GROningen MAchine for Chemical Simulation
95940
    1G5    HO5'    1   5.951   5.874   6.636
    1G5     O5'    2   5.970   5.911   6.722
    1G5     C5'    3   6.078   6.002   6.702
    1G5     H5'    4   6.068   6.065   6.791
    1G5    H5''    5   6.060   6.058   6.611
    1G5     C4'    6   6.219   5.943   6.694
    1G5     H4'    7   6.282   6.024   6.656
    1G5     O4'    8   6.274   5.906   6.824
    1G5     C1'    9   6.373   5.814   6.803
    1G5     H1'   10   6.469   5.863   6.822
    1G5      N9   11   6.350   5.709   6.904
    1G5      C8   12   6.243   5.684   6.985
    1G5      H8   13   6.150   5.739   6.978
    1G5      N7   14   6.261   5.575   7.056
    1G5      C5   15   6.385   5.534   7.023
    1G5      C6   16   6.466   5.425   7.079
    1G5      O6   17   6.438   5.344   7.163
    1G5      N1   18   6.590   5.418   7.023
    1G5      H1   19   6.651   5.341   7.046
    1G5      C2   20   6.632   5.505   6.931
    1G5      N2   21   6.743   5.480   6.873
    1G5     H21   22   6.807   5.412   6.911
    1G5     H22   23   6.783   5.545   6.807
    1G5      N3   24   6.562   5.598   6.874
    1G5      C4   25   6.444   5.617   6.933
    1G5     C3'   26   6.231   5.822   6.600
    1G5     H3'   27   6.154   5.750   6.630
    1G5     C2'   28   6.363   5.775   6.654
    1G5     H2'   29   6.377   5.667   6.641
    1G5     O2'   30   6.469   5.844   6.595
    1G5    HO2'   31   6.442   5.844   6.503
    1G5     O3'   32   6.220   5.862   6.465
    2G        P   33   6.196   5.761   6.343
    2G      OP1   34   6.230   5.834   6.219
    2G      OP2   35   6.058   5.708   6.354
    2G      O5'   36   6.298   5.636   6.352
    2G      C5'   37   6.432   5.642   6.309
    2G      H5'   38   6.482   5.735   6.336
    2G     H5''   39   6.433   5.637   6.201
    2G      C4'   40   6.526   5.529   6.359
    2G      H4'   41   6.625   5.542   6.315
    2G      O4'   42   6.541   5.540   6.506
    2G      C1'   43   6.547   5.404   6.555
    2G      H1'   44   6.639   5.388   6.611
    2G       N9   45   6.426   5.370   6.646
    2G       C8   46   6.302   5.431   6.660
    2G       H8   47   6.272   5.517   6.602
    2G       N7   48   6.232   5.378   6.754
    2G       C5   49   6.305   5.263   6.792
    2G       C6   50   6.275   5.169   6.896
    2G       O6   51   6.174   5.158   6.962
    2G       N1   52   6.382   5.078   6.914
    2G       H1   53   6.378   5.020   6.997
    2G       C2   54   6.497   5.080   6.840
    2G       N2   55   6.572   4.978   6.855
    2G      H21   56   6.553   4.916   6.933
    2G      H22   57   6.661   4.981   6.806
    2G       N3   58   6.518   5.169   6.740
    2G       C4   59   6.425   5.266   6.730
    2G      C3'   60   6.476   5.385   6.330
    2G      H3'   61   6.370   5.390   6.351
    2G      C2'   62   6.541   5.309   6.437
    2G      H2'   63   6.493   5.216   6.467
    2G      O2'   64   6.679   5.269   6.413
    2G     HO2'   65   6.698   5.259   6.320
    2G      O3'   66   6.505   5.344   6.203
    3G        P   67   6.413   5.239   6.124
    3G      OP1   68   6.483   5.216   5.993
    3G      OP2   69   6.273   5.286   6.127
    3G      O5'   70   6.429   5.108   6.215
    3G      C5'   71   6.541   5.020   6.203
    3G      H5'   72   6.627   5.079   6.234
    3G     H5''   73   6.552   4.976   6.103
    3G      C4'   74   6.551   4.912   6.311
    3G      H4'   75   6.650   4.871   6.293
    3G      O4'   76   6.513   4.962   6.442
    3G      C1'   77   6.445   4.867   6.515
    3G      H1'   78   6.495   4.839   6.607
    3G       N9   79   6.314   4.932   6.542
    3G       C8   80   6.258   5.037   6.470
    3G       H8   81   6.295   5.090   6.384
    3G       N7   82   6.152   5.084   6.533
    3G       C5   83   6.131   5.006   6.644
    3G       C6   84   6.031   5.005   6.750
    3G       O6   85   5.951   5.099   6.765
    3G       N1   86   6.042   4.908   6.837
    3G       H1   87   5.979   4.898   6.916
    3G       C2   88   6.130   4.806   6.826
    3G       N2   89   6.132   4.725   6.922
    3G      H21   90   6.063   4.735   6.995
    3G      H22   91   6.178   4.638   6.901
    3G       N3   92   6.222   4.795   6.731
    3G       C4   93   6.223   4.904   6.643
    3G      C3'   94   6.452   4.800   6.286
    3G      H3'   95   6.363   4.849   6.246
    3G      C2'   96   6.439   4.739   6.423
    3G      H2'   97   6.345   4.686   6.434
    3G      O2'   98   6.546   4.656   6.461
    3G     HO2'   99   6.608   4.659   6.388
    3G      O3'  100   6.497   4.709   6.195
    4U        P  101   6.399   4.631   6.107
    4U      OP1  102   6.471   4.529   6.028
    4U      OP2  103   6.318   4.727   6.031
    4U      O5'  104   6.306   4.550   6.199
    4U      C5'  105   6.329   4.414   6.239
    4U      H5'  106   6.431   4.402   6.274
    4U     H5''  107   6.312   4.343   6.158
    4U      C4'  108   6.233   4.385   6.354
    4U      H4'  109   6.262   4.292   6.403
    4U      O4'  110   6.215   4.478   6.448
    4U      C1'  111   6.080   4.474   6.497
    4U      H1'  112   6.077   4.434   6.599
    4U       N1  113   6.019   4.611   6.494
    4U       C6  114   6.031   4.694   6.388
    4U       H6  115   6.103   4.678   6.308
    4U       C5  116   5.967   4.815   6.395
    4U       H5  117   5.984   4.887   6.317
    4U       C4  118   5.876   4.848   6.499
    4U       O4  119   5.813   4.950   6.508
    4U       N3  120   5.876   4.762   6.606
    4U       H3  121   5.824   4.780   6.690
    4U       C2  122   5.939   4.644   6.608
    4U       O2  123   5.928   4.570   6.711
    4U      C3'  124   6.096   4.362   6.291
    4U      H3'  125   6.080   4.456   6.238
    4U      C2'  126   5.997   4.374   6.406
    4U      H2'  127   5.905   4.424   6.374
    4U      O2'  128   5.980   4.245   6.455
    4U     HO2'  129   5.955   4.186   6.383
    4U      O3'  130   6.079   4.248   6.205
    5U        P  131   5.979   4.261   6.078
    5U      OP1  132   6.015   4.159   5.973
    5U      OP2  133   5.944   4.404   6.039
    5U      O5'  134   5.847   4.198   6.147
    5U      C5'  135   5.837   4.059   6.165
    5U      H5'  136   5.927   4.013   6.207
    5U     H5''  137   5.816   4.005   6.073
    5U      C4'  138   5.722   4.031   6.269
    5U      H4'  139   5.722   3.924   6.287
    5U      O4'  140   5.739   4.092   6.398
    5U      C1'  141   5.613   4.119   6.455
    5U      H1'  142   5.601   4.060   6.546
    5U       N1  143   5.579   4.263   6.485
    5U       C6  144   5.637   4.363   6.414
    5U       H6  145   5.698   4.345   6.327
    5U       C5  146   5.630   4.494   6.446
    5U       H5  147   5.691   4.564   6.390
    5U       C4  148   5.564   4.543   6.563
    5U       O4  149   5.550   4.659   6.592
    5U       N3  150   5.510   4.441   6.637
    5U       H3  151   5.497   4.468   6.734
    5U       C2  152   5.510   4.306   6.600
    5U       O2  153   5.447   4.224   6.667
    5U      C3'  154   5.581   4.067   6.228
    5U      H3'  155   5.577   4.172   6.199
    5U      C2'  156   5.502   4.066   6.357
    5U      H2'  157   5.413   4.128   6.346
    5U      O2'  158   5.464   3.931   6.394
    5U     HO2'  159   5.440   3.888   6.311
    5U      O3'  160   5.517   3.991   6.130
    6A        P  161   5.466   4.059   6.002
    6A      OP1  162   5.392   3.953   5.925
    6A      OP2  163   5.579   4.129   5.935
    6A      O5'  164   5.363   4.167   6.045
    6A      C5'  165   5.246   4.128   6.111
    6A      H5'  166   5.280   4.060   6.189
    6A     H5''  167   5.179   4.083   6.038
    6A      C4'  168   5.162   4.247   6.170
    6A      H4'  169   5.065   4.205   6.197
    6A      O4'  170   5.229   4.307   6.278
    6A      C1'  171   5.220   4.448   6.278
    6A      H1'  172   5.194   4.496   6.372
    6A       N9  173   5.349   4.520   6.229
    6A       C8  174   5.457   4.462   6.167
    6A       H8  175   5.452   4.360   6.133
    6A       N7  176   5.562   4.544   6.154
    6A       C5  177   5.518   4.663   6.202
    6A       C6  178   5.568   4.794   6.226
    6A       N6  179   5.692   4.840   6.187
    6A      H61  180   5.703   4.930   6.231
    6A      H62  181   5.765   4.784   6.146
    6A       N1  182   5.490   4.897   6.269
    6A       C2  183   5.374   4.861   6.316
    6A       H2  184   5.312   4.940   6.357
    6A       N3  185   5.312   4.743   6.306
    6A       C4  186   5.387   4.649   6.246
    6A      C3'  187   5.134   4.369   6.080
    6A      H3'  188   5.222   4.392   6.020
    6A      C2'  189   5.116   4.489   6.175
    6A      H2'  190   5.144   4.584   6.130
    6A      O2'  191   4.998   4.495   6.247
    6A     HO2'  192   4.922   4.477   6.191
    6A      O3'  193   5.032   4.346   5.979
    7G        P  194   5.045   4.421   5.840
    7G      OP1  195   4.922   4.404   5.766
    7G      OP2  196   5.165   4.366   5.771
    7G      O5'  197   5.067   4.582   5.871
    7G      C5'  198   4.962   4.667   5.913
    7G      H5'  199   4.943   4.639   6.016
    7G     H5''  200   4.879   4.657   5.843
    7G      C4'  201   5.003   4.811   5.925
    7G      H4'  202   4.919   4.870   5.961
    7G      O4'  203   5.108   4.825   6.023
    7G      C1'  204   5.202   4.920   5.978
    7G      H1'  205   5.239   4.996   6.047
    7G       N9  206   5.328   4.854   5.933
    7G       C8  207   5.355   4.721   5.930
    7G       H8  208   5.284   4.646   5.963
    7G       N7  209   5.476   4.691   5.902
    7G       C5  210   5.538   4.815   5.879
    7G       C6  211   5.667   4.852   5.838
    7G       O6  212   5.769   4.778   5.832
    7G       N1  213   5.692   4.986   5.825
    7G       H1  214   5.784   5.024   5.811
    7G       C2  215   5.592   5.073   5.837
    7G       N2  216   5.623   5.204   5.835
    7G      H21  217   5.711   5.237   5.798
    7G      H22  218   5.549   5.268   5.861
    7G       N3  219   5.472   5.044   5.863
    7G       C4  220   5.447   4.914   5.897
    7G      C3'  221   5.060   4.872   5.791
    7G      H3'  222   5.116   4.802   5.729
    7G      C2'  223   5.147   4.985   5.842
    7G      H2'  224   5.219   5.002   5.762
    7G      O2'  225   5.069   5.098   5.880
    7G     HO2'  226   5.127   5.163   5.921
    7G      O3'  227   4.960   4.929   5.701
    8G        P  228   4.972   4.907   5.546
    8G      OP1  229   4.855   4.975   5.480
    8G      OP2  230   4.994   4.762   5.526
    8G      O5'  231   5.105   4.986   5.509
    8G      C5'  232   5.104   5.129   5.518
    8G      H5'  233   5.080   5.171   5.616
    8G     H5''  234   5.034   5.172   5.446
    8G      C4'  235   5.243   5.181   5.489
    8G      H4'  236   5.240   5.290   5.485
    8G      O4'  237   5.340   5.139   5.587
    8G      C1'  238   5.468   5.117   5.530
    8G      H1'  239   5.549   5.172   5.579
    8G       N9  240   5.503   4.971   5.532
    8G       C8  241   5.419   4.867   5.561
    8G       H8  242   5.321   4.884   5.603
    8G       N7  243   5.471   4.753   5.527
    8G       C5  244   5.600   4.780   5.487
    8G       C6  245   5.705   4.700   5.440
    8G       O6  246   5.709   4.577   5.433
    8G       N1  247   5.821   4.768   5.407
    8G       H1  248   5.890   4.714   5.356
    8G       C2  249   5.833   4.898   5.421
    8G       N2  250   5.946   4.955   5.385
    8G      H21  251   6.023   4.895   5.360
    8G      H22  252   5.945   5.052   5.355
    8G       N3  253   5.732   4.980   5.465
    8G       C4  254   5.621   4.917   5.490
    8G      C3'  255   5.308   5.127   5.359
    8G      H3'  256   5.298   5.019   5.347
    8G      C2'  257   5.457   5.161   5.383
    8G      H2'  258   5.516   5.096   5.319
    8G      O2'  259   5.482   5.304   5.375
    8G     HO2'  260   5.425   5.332   5.304
    8G      O3'  261   5.269   5.195   5.244
    9G        P  262   5.272   5.111   5.106
    9G      OP1  263   5.224   5.204   5.006
    9G      OP2  264   5.194   4.984   5.131
    9G      O5'  265   5.426   5.076   5.074
    9G      C5'  266   5.524   5.169   5.027
    9G      H5'  267   5.547   5.245   5.102
    9G     H5''  268   5.485   5.218   4.938
    9G      C4'  269   5.640   5.085   4.984
    9G      H4'  270   5.709   5.161   4.946
    9G      O4'  271   5.699   5.011   5.087
    9G      C1'  272   5.750   4.893   5.030
    9G      H1'  273   5.853   4.876   5.061
    9G       N9  274   5.665   4.783   5.087
    9G       C8  275   5.561   4.794   5.167
    9G       H8  276   5.513   4.888   5.190
    9G       N7  277   5.506   4.682   5.202
    9G       C5  278   5.592   4.584   5.149
    9G       C6  279   5.593   4.443   5.150
    9G       O6  280   5.518   4.362   5.206
    9G       N1  281   5.696   4.382   5.089
    9G       H1  282   5.702   4.281   5.097
    9G       C2  283   5.793   4.450   5.028
    9G       N2  284   5.876   4.389   4.952
    9G      H21  285   5.882   4.288   4.952
    9G      H22  286   5.960   4.438   4.927
    9G       N3  287   5.798   4.585   5.013
    9G       C4  288   5.694   4.644   5.082
    9G      C3'  289   5.615   4.974   4.872
    9G      H3'  290   5.526   4.920   4.904
    9G      C2'  291   5.742   4.886   4.878
    9G      H2'  292   5.742   4.788   4.830
    9G      O2'  293   5.860   4.949   4.835
    9G     HO2'  294   5.844   5.031   4.788
    9G      O3'  295   5.608   5.039   4.744
   10U        P  296   5.503   4.991   4.642
   10U      OP1  297   5.497   5.076   4.522
   10U      OP2  298   5.384   4.957   4.713
   10U      O5'  299   5.563   4.851   4.598
   10U      C5'  300   5.672   4.838   4.500
   10U      H5'  301   5.757   4.878   4.555
   10U     H5''  302   5.640   4.892   4.411
   10U      C4'  303   5.703   4.697   4.455
   10U      H4'  304   5.775   4.688   4.374
   10U      O4'  305   5.748   4.625   4.571
   10U      C1'  306   5.700   4.489   4.556
   10U      H1'  307   5.778   4.415   4.542
   10U       N1  308   5.609   4.445   4.666
   10U       C6  309   5.539   4.530   4.741
   10U       H6  310   5.538   4.637   4.731
   10U       C5  311   5.457   4.486   4.838
   10U       H5  312   5.409   4.562   4.899
   10U       C4  313   5.446   4.347   4.875
   10U       O4  314   5.376   4.303   4.966
   10U       N3  315   5.512   4.268   4.790
   10U       H3  316   5.515   4.171   4.818
   10U       C2  317   5.602   4.308   4.695
   10U       O2  318   5.677   4.218   4.654
   10U      C3'  319   5.575   4.628   4.402
   10U      H3'  320   5.487   4.636   4.465
   10U      C2'  321   5.624   4.478   4.420
   10U      H2'  322   5.538   4.412   4.419
   10U      O2'  323   5.720   4.441   4.313
   10U     HO2'  324   5.720   4.503   4.240
   10U      O3'  325   5.560   4.664   4.268
   11U        P  326   5.415   4.676   4.211
   11U      OP1  327   5.424   4.726   4.074
   11U      OP2  328   5.332   4.753   4.308
   11U      O5'  329   5.373   4.530   4.211
   11U      C5'  330   5.414   4.438   4.114
   11U      H5'  331   5.523   4.431   4.108
   11U     H5''  332   5.381   4.464   4.013
   11U      C4'  333   5.355   4.301   4.144
   11U      H4'  334   5.374   4.222   4.072
   11U      O4'  335   5.377   4.261   4.279
   11U      C1'  336   5.272   4.184   4.340
   11U      H1'  337   5.320   4.087   4.357
   11U       N1  338   5.223   4.227   4.474
   11U       C6  339   5.234   4.350   4.528
   11U       H6  340   5.278   4.428   4.467
   11U       C5  341   5.181   4.382   4.647
   11U       H5  342   5.193   4.483   4.683
   11U       C4  343   5.117   4.292   4.731
   11U       O4  344   5.057   4.327   4.837
   11U       N3  345   5.119   4.163   4.681
   11U       H3  346   5.069   4.095   4.737
   11U       C2  347   5.161   4.128   4.557
   11U       O2  348   5.130   4.015   4.521
   11U      C3'  349   5.203   4.296   4.146
   11U      H3'  350   5.180   4.394   4.188
   11U      C2'  351   5.164   4.179   4.234
   11U      H2'  352   5.065   4.201   4.274
   11U      O2'  353   5.174   4.046   4.177
   11U     HO2'  354   5.129   4.046   4.092
   11U      O3'  355   5.151   4.296   4.020
   12A        P  356   5.022   4.393   3.992
   12A      OP1  357   4.962   4.342   3.867
   12A      OP2  358   5.054   4.533   4.011
   12A      O5'  359   4.921   4.357   4.110
   12A      C5'  360   4.837   4.244   4.102
   12A      H5'  361   4.894   4.151   4.094
   12A     H5''  362   4.766   4.257   4.020
   12A      C4'  363   4.744   4.240   4.226
   12A      H4'  364   4.674   4.157   4.213
   12A      O4'  365   4.813   4.221   4.351
   12A      C1'  366   4.757   4.311   4.444
   12A      H1'  367   4.735   4.247   4.530
   12A       N9  368   4.842   4.421   4.484
   12A       C8  369   4.935   4.493   4.410
   12A       H8  370   4.950   4.469   4.305
   12A       N7  371   5.002   4.580   4.478
   12A       C5  372   4.941   4.571   4.605
   12A       C6  373   4.944   4.651   4.720
   12A       N6  374   5.021   4.754   4.724
   12A      H61  375   5.023   4.812   4.807
   12A      H62  376   5.092   4.783   4.658
   12A       N1  377   4.853   4.628   4.817
   12A       C2  378   4.763   4.534   4.798
   12A       H2  379   4.692   4.524   4.878
   12A       N3  380   4.747   4.449   4.700
   12A       C4  381   4.843   4.481   4.601
   12A      C3'  382   4.662   4.369   4.241
   12A      H3'  383   4.728   4.454   4.223
   12A      C2'  384   4.623   4.352   4.387
   12A      H2'  385   4.599   4.450   4.428
   12A      O2'  386   4.526   4.254   4.414
   12A     HO2'  387   4.454   4.252   4.350
   12A      O3'  388   4.541   4.370   4.159
   13G        P  389   4.469   4.512   4.131
   13G      OP1  390   4.341   4.489   4.060
   13G      OP2  391   4.571   4.601   4.065
   13G      O5'  392   4.438   4.573   4.276
   13G      C5'  393   4.319   4.535   4.345
   13G      H5'  394   4.308   4.430   4.370
   13G     H5''  395   4.239   4.575   4.283
   13G      C4'  396   4.297   4.606   4.479
   13G      H4'  397   4.217   4.565   4.541
   13G      O4'  398   4.419   4.579   4.550
   13G      C1'  399   4.465   4.698   4.616
   13G      H1'  400   4.478   4.671   4.721
   13G       N9  401   4.592   4.750   4.561
   13G       C8  402   4.657   4.722   4.448
   13G       H8  403   4.624   4.649   4.374
   13G       N7  404   4.762   4.797   4.419
   13G       C5  405   4.762   4.880   4.532
   13G       C6  406   4.846   4.991   4.562
   13G       O6  407   4.945   5.040   4.503
   13G       N1  408   4.812   5.056   4.684
   13G       H1  409   4.850   5.150   4.689
   13G       C2  410   4.707   5.019   4.758
   13G       N2  411   4.678   5.096   4.865
   13G      H21  412   4.739   5.174   4.881
   13G      H22  413   4.604   5.078   4.931
   13G       N3  414   4.626   4.921   4.735
   13G       C4  415   4.661   4.858   4.620
   13G      C3'  416   4.286   4.753   4.473
   13G      H3'  417   4.344   4.803   4.396
   13G      C2'  418   4.351   4.802   4.605
   13G      H2'  419   4.394   4.901   4.593
   13G      O2'  420   4.270   4.782   4.722
   13G     HO2'  421   4.179   4.772   4.696
   13G      O3'  422   4.149   4.797   4.470
   14G        P  423   4.094   4.919   4.386
   14G      OP1  424   3.949   4.932   4.408
   14G      OP2  425   4.142   4.907   4.251
   14G      O5'  426   4.180   5.046   4.444
   14G      C5'  427   4.150   5.109   4.564
   14G      H5'  428   4.167   5.034   4.641
   14G     H5''  429   4.046   5.138   4.569
   14G      C4'  430   4.250   5.224   4.595
   14G      H4'  431   4.223   5.252   4.697
   14G      O4'  432   4.380   5.177   4.603
   14G      C1'  433   4.474   5.269   4.551
   14G      H1'  434   4.559   5.289   4.615
   14G       N9  435   4.522   5.218   4.416
   14G       C8  436   4.493   5.105   4.353
   14G       H8  437   4.407   5.050   4.390
   14G       N7  438   4.589   5.048   4.288
   14G       C5  439   4.692   5.146   4.290
   14G       C6  440   4.814   5.148   4.223
   14G       O6  441   4.856   5.064   4.137
   14G       N1  442   4.895   5.258   4.251
   14G       H1  443   4.989   5.264   4.217
   14G       C2  444   4.851   5.355   4.335
   14G       N2  445   4.920   5.462   4.346
   14G      H21  446   4.991   5.464   4.274
   14G      H22  447   4.860   5.539   4.372
   14G       N3  448   4.726   5.358   4.395
   14G       C4  449   4.651   5.244   4.370
   14G      C3'  450   4.256   5.345   4.509
   14G      H3'  451   4.244   5.305   4.408
   14G      C2'  452   4.392   5.397   4.528
   14G      H2'  453   4.418   5.446   4.434
   14G      O2'  454   4.409   5.490   4.635
   14G     HO2'  455   4.320   5.522   4.654
   14G      O3'  456   4.151   5.441   4.537
   15G        P  457   4.072   5.509   4.414
   15G      OP1  458   3.987   5.617   4.469
   15G      OP2  459   4.003   5.395   4.348
   15G      O5'  460   4.182   5.573   4.324
   15G      C5'  461   4.244   5.701   4.346
   15G      H5'  462   4.288   5.693   4.446
   15G     H5''  463   4.171   5.782   4.344
   15G      C4'  464   4.353   5.725   4.247
   15G      H4'  465   4.382   5.829   4.263
   15G      O4'  466   4.474   5.647   4.260
   15G      C1'  467   4.534   5.612   4.137
   15G      H1'  468   4.641   5.634   4.127
   15G       N9  469   4.515   5.478   4.100
   15G       C8  470   4.413   5.402   4.129
   15G       H8  471   4.326   5.434   4.184
   15G       N7  472   4.422   5.280   4.089
   15G       C5  473   4.540   5.277   4.016
   15G       C6  474   4.615   5.177   3.947
   15G       O6  475   4.580   5.059   3.935
   15G       N1  476   4.732   5.222   3.884
   15G       H1  477   4.788   5.151   3.838
   15G       C2  478   4.786   5.342   3.908
   15G       N2  479   4.904   5.376   3.863
   15G      H21  480   4.954   5.312   3.804
   15G      H22  481   4.950   5.461   3.892
   15G       N3  482   4.725   5.439   3.969
   15G       C4  483   4.600   5.402   4.021
   15G      C3'  484   4.318   5.718   4.092
   15G      H3'  485   4.264   5.627   4.065
   15G      C2'  486   4.461   5.704   4.042
   15G      H2'  487   4.467   5.664   3.940
   15G      O2'  488   4.540   5.822   4.042
   15G     HO2'  489   4.608   5.810   3.976
   15G      O3'  490   4.247   5.837   4.048
   16U        P  491   4.155   5.829   3.918
   16U      OP1  492   4.095   5.965   3.909
   16U      OP2  493   4.067   5.711   3.929
   16U      O5'  494   4.256   5.813   3.801
   16U      C5'  495   4.330   5.921   3.742
   16U      H5'  496   4.399   5.955   3.819
   16U     H5''  497   4.256   5.999   3.724
   16U      C4'  498   4.402   5.870   3.609
   16U      H4'  499   4.445   5.957   3.560
   16U      O4'  500   4.490   5.770   3.648
   16U      C1'  501   4.505   5.682   3.533
   16U      H1'  502   4.603   5.703   3.490
   16U       N1  503   4.490   5.534   3.573
   16U       C6  504   4.435   5.496   3.695
   16U       H6  505   4.426   5.578   3.765
   16U       C5  506   4.413   5.364   3.726
   16U       H5  507   4.370   5.331   3.820
   16U       C4  508   4.457   5.262   3.633
   16U       O4  509   4.443   5.146   3.649
   16U       N3  510   4.518   5.307   3.522
   16U       H3  511   4.533   5.247   3.441
   16U       C2  512   4.535   5.439   3.488
   16U       O2  513   4.585   5.469   3.377
   16U      C3'  514   4.307   5.797   3.518
   16U      H3'  515   4.234   5.732   3.566
   16U      C2'  516   4.400   5.712   3.426
   16U      H2'  517   4.342   5.627   3.391
   16U      O2'  518   4.459   5.776   3.326
   16U     HO2'  519   4.409   5.854   3.302
   16U      O3'  520   4.246   5.890   3.433
   17U        P  521   4.115   5.864   3.352
   17U      OP1  522   4.097   5.994   3.283
   17U      OP2  523   4.007   5.830   3.450
   17U      O5'  524   4.127   5.742   3.245
   17U      C5'  525   4.111   5.772   3.110
   17U      H5'  526   4.183   5.847   3.075
   17U     H5''  527   4.007   5.803   3.096
   17U      C4'  528   4.119   5.652   3.019
   17U      H4'  529   4.086   5.675   2.917
   17U      O4'  530   4.244   5.588   3.023
   17U      C1'  531   4.211   5.451   3.006
   17U      H1'  532   4.258   5.422   2.912
   17U       N1  533   4.248   5.362   3.113
   17U       C6  534   4.239   5.403   3.245
   17U       H6  535   4.217   5.505   3.274
   17U       C5  536   4.246   5.311   3.340
   17U       H5  537   4.235   5.335   3.444
   17U       C4  538   4.272   5.173   3.310
   17U       O4  539   4.277   5.085   3.388
   17U       N3  540   4.286   5.141   3.178
   17U       H3  541   4.305   5.043   3.161
   17U       C2  542   4.265   5.232   3.076
   17U       O2  543   4.259   5.193   2.960
   17U      C3'  544   4.014   5.553   3.063
   17U      H3'  545   4.025   5.520   3.167
   17U      C2'  546   4.058   5.427   2.988
   17U      H2'  547   4.023   5.336   3.037
   17U      O2'  548   4.026   5.419   2.848
   17U     HO2'  549   3.934   5.446   2.853
   17U      O3'  550   3.881   5.591   3.035
   18A        P  551   3.754   5.528   3.106
   18A      OP1  552   3.635   5.535   3.016
   18A      OP2  553   3.742   5.580   3.245
   18A      O5'  554   3.786   5.369   3.125
   18A      C5'  555   3.752   5.273   3.023
   18A      H5'  556   3.820   5.291   2.939
   18A     H5''  557   3.646   5.278   2.996
   18A      C4'  558   3.789   5.136   3.075
   18A      H4'  559   3.774   5.070   2.989
   18A      O4'  560   3.922   5.122   3.142
   18A      C1'  561   3.907   5.020   3.247
   18A      H1'  562   3.983   4.941   3.248
   18A       N9  563   3.931   5.085   3.382
   18A       C8  564   3.911   5.219   3.410
   18A       H8  565   3.876   5.286   3.332
   18A       N7  566   3.966   5.255   3.524
   18A       C5  567   4.018   5.139   3.572
   18A       C6  568   4.092   5.107   3.686
   18A       N6  569   4.142   5.192   3.773
   18A      H61  570   4.171   5.155   3.863
   18A      H62  571   4.144   5.291   3.752
   18A       N1  572   4.116   4.975   3.719
   18A       C2  573   4.065   4.883   3.638
   18A       H2  574   4.090   4.781   3.663
   18A       N3  575   3.995   4.894   3.520
   18A       C4  576   3.979   5.030   3.500
   18A      C3'  577   3.695   5.091   3.184
   18A      H3'  578   3.699   5.169   3.260
   18A      C2'  579   3.762   4.964   3.234
   18A      H2'  580   3.726   4.934   3.332
   18A      O2'  581   3.751   4.857   3.141
   18A     HO2'  582   3.816   4.795   3.174
   18A      O3'  583   3.568   5.066   3.135
   19G        P  584   3.446   5.090   3.224
   19G      OP1  585   3.334   5.047   3.144
   19G      OP2  586   3.449   5.231   3.277
   19G      O5'  587   3.448   5.000   3.354
   19G      C5'  588   3.435   4.853   3.348
   19G      H5'  589   3.496   4.821   3.263
   19G     H5''  590   3.330   4.836   3.324
   19G      C4'  591   3.473   4.791   3.482
   19G      H4'  592   3.463   4.682   3.476
   19G      O4'  593   3.604   4.821   3.525
   19G      C1'  594   3.608   4.840   3.664
   19G      H1'  595   3.678   4.766   3.704
   19G       N9  596   3.653   4.975   3.690
   19G       C8  597   3.598   5.095   3.650
   19G       H8  598   3.525   5.100   3.571
   19G       N7  599   3.658   5.196   3.710
   19G       C5  600   3.744   5.138   3.804
   19G       C6  601   3.830   5.198   3.907
   19G       O6  602   3.845   5.320   3.923
   19G       N1  603   3.901   5.103   3.972
   19G       H1  604   3.962   5.146   4.040
   19G       C2  605   3.892   4.967   3.956
   19G       N2  606   3.945   4.886   4.040
   19G      H21  607   4.004   4.924   4.113
   19G      H22  608   3.941   4.787   4.024
   19G       N3  609   3.806   4.912   3.874
   19G       C4  610   3.742   5.002   3.792
   19G      C3'  611   3.376   4.834   3.595
   19G      H3'  612   3.348   4.938   3.580
   19G      C2'  613   3.461   4.812   3.714
   19G      H2'  614   3.446   4.884   3.794
   19G      O2'  615   3.457   4.685   3.761
   19G     HO2'  616   3.370   4.667   3.798
   19G      O3'  617   3.257   4.757   3.592
   20G        P  618   3.123   4.790   3.673
   20G      OP1  619   3.012   4.726   3.601
   20G      OP2  620   3.120   4.935   3.699
   20G      O5'  621   3.148   4.722   3.807
   20G      C5'  622   3.122   4.585   3.830
   20G      H5'  623   3.169   4.517   3.760
   20G     H5''  624   3.014   4.570   3.827
   20G      C4'  625   3.151   4.541   3.972
   20G      H4'  626   3.142   4.433   3.987
   20G      O4'  627   3.293   4.572   4.000
   20G      C1'  628   3.298   4.641   4.121
   20G      H1'  629   3.379   4.601   4.183
   20G       N9  630   3.337   4.775   4.090
   20G       C8  631   3.266   4.886   4.038
   20G       H8  632   3.166   4.883   3.999
   20G       N7  633   3.332   5.001   4.045
   20G       C5  634   3.454   4.968   4.098
   20G       C6  635   3.572   5.051   4.128
   20G       O6  636   3.584   5.175   4.104
   20G       N1  637   3.674   4.983   4.189
   20G       H1  638   3.752   5.035   4.227
   20G       C2  639   3.655   4.853   4.221
   20G       N2  640   3.758   4.780   4.260
   20G      H21  641   3.852   4.809   4.280
   20G      H22  642   3.739   4.684   4.236
   20G       N3  643   3.557   4.767   4.185
   20G       C4  644   3.449   4.833   4.138
   20G      C3'  645   3.066   4.626   4.067
   20G      H3'  646   3.058   4.728   4.029
   20G      C2'  647   3.156   4.632   4.193
   20G      H2'  648   3.137   4.724   4.248
   20G      O2'  649   3.165   4.514   4.269
   20G     HO2'  650   3.095   4.506   4.334
   20G      O3'  651   2.938   4.567   4.103
   21G3       P  652   2.842   4.640   4.216
   21G3     OP1  653   2.704   4.591   4.195
   21G3     OP2  654   2.872   4.785   4.232
   21G3     O5'  655   2.888   4.584   4.361
   21G3     C5'  656   2.872   4.448   4.395
   21G3     H5'  657   2.918   4.389   4.316
   21G3    H5''  658   2.765   4.429   4.405
   21G3     C4'  659   2.934   4.418   4.530
   21G3     H4'  660   2.936   4.312   4.556
   21G3     O4'  661   3.068   4.452   4.515
   21G3     C1'  662   3.113   4.524   4.632
   21G3     H1'  663   3.208   4.483   4.666
   21G3      N9  664   3.149   4.656   4.584
   21G3      C8  665   3.087   4.779   4.573
   21G3      H8  666   2.979   4.787   4.573
   21G3      N7  667   3.167   4.880   4.541
   21G3      C5  668   3.290   4.824   4.545
   21G3      C6  669   3.410   4.889   4.495
   21G3      O6  670   3.425   5.004   4.454
   21G3      N1  671   3.521   4.803   4.501
   21G3      H1  672   3.615   4.838   4.493
   21G3      C2  673   3.500   4.671   4.509
   21G3      N2  674   3.605   4.591   4.522
   21G3     H21  675   3.694   4.636   4.507
   21G3     H22  676   3.597   4.492   4.540
   21G3      N3  677   3.387   4.604   4.538
   21G3      C4  678   3.285   4.690   4.561
   21G3     C3'  679   2.881   4.489   4.653
   21G3     H3'  680   2.843   4.586   4.622
   21G3     C2'  681   3.004   4.506   4.742
   21G3     H2'  682   2.978   4.595   4.800
   21G3     O2'  683   3.040   4.386   4.811
   21G3    HO2'  684   2.957   4.359   4.851
   21G3     O3'  685   2.772   4.428   4.715
   21G3    HO3'  686   2.695   4.414   4.659
   22Cl-    Cl-  687   2.148   3.472   4.484
   23Cl-    Cl-  688   6.170   1.837   6.354
   24Cl-    Cl-  689   1.863   7.805   8.217
   25Cl-    Cl-  690   9.033   6.160   9.260
   26Cl-    Cl-  691   3.043   3.076   0.959
   27Cl-    Cl-  692   3.069   3.744   8.352
   28Cl-    Cl-  693   3.737   4.231   2.373
   29Cl-    Cl-  694   5.644   3.741   5.150
   30Cl-    Cl-  695   7.565   9.284   1.203
   31Cl-    Cl-  696   1.575   3.260   6.125
   32Cl-    Cl-  697   0.846   0.473   6.959
   33Cl-    Cl-  698   3.967   1.228   6.578
   34Cl-    Cl-  699   8.191   8.920   1.217
   35Cl-    Cl-  700   0.162   0.590   7.723
   36Cl-    Cl-  701   9.875   4.720   0.555
   37Cl-    Cl-  702   9.227   1.242   9.234
   38Cl-    Cl-  703   2.270   4.275   2.304
   39Cl-    Cl-  704   7.326   7.791   5.261
   40Cl-    Cl-  705   4.533   8.403   9.555
   41Cl-    Cl-  706   4.234   9.770   5.657
   42Cl-    Cl-  707   4.768   6.912   9.004
   43Cl-    Cl-  708   4.999   5.615   0.866
   44Cl-    Cl-  709   6.095   1.688   7.937
   45Cl-    Cl-  710   6.011   7.105   0.443
   46Cl-    Cl-  711   4.117   6.747   0.865
   47Cl-    Cl-  712   8.680   0.875   3.676
   48Cl-    Cl-  713   3.724   1.050   2.703
   49Cl-    Cl-  714   4.480   0.047   3.056
   50Cl-    Cl-  715   6.001   8.364   5.856
   51Cl-    Cl-  716   3.681   7.716   2.124
   52Cl-    Cl-  717   9.836   1.354   6.651
   53Cl-    Cl-  718   9.471   6.241   2.945
   54Cl-    Cl-  719   1.531   9.075   6.768
   55Cl-    Cl-  720   8.713   3.811   1.650
   56Cl-    Cl-  721   0.613   7.038   2.432
   57Cl-    Cl-  722   9.024   4.223   1.652
   58Cl-    Cl-  723   6.782   3.509   0.019
   59Cl-    Cl-  724   0.029   2.450   7.088
   60Cl-    Cl-  725   1.352   2.614   1.579
   61Cl-    Cl-  726   2.720   3.679   7.619
   62Cl-    Cl-  727   4.646   4.691   0.103
   63Cl-    Cl-  728   4.372   2.754   9.041
   64Cl-    Cl-  729   7.438   1.855   1.702
   65Cl-    Cl-  730   8.202   4.982   9.474
   66Cl-    Cl-  731   4.893   6.856   2.513
   67Cl-    Cl-  732   1.298   4.955   8.767
   68Cl-    Cl-  733   7.701   4.578   3.035
   69Cl-    Cl-  734   1.939   0.222   5.222
   70Cl-    Cl-  735   3.216   4.397   8.626
   71Cl-    Cl-  736   6.588   6.963   0.568
   72Cl-    Cl-  737   0.449   5.799   4.628
   73Cl-    Cl-  738   9.683   6.057   5.325
   74Cl-    Cl-  739   1.727   3.016   9.351
   75Cl-    Cl-  740   0.865   7.442   0.161
   76Cl-    Cl-  741   6.118   6.957   8.655
   77Cl-    Cl-  742   5.090   7.769   3.138
   78Cl-    Cl-  743   7.003   0.694   3.939
   79Cl-    Cl-  744   8.204   2.388   0.658
   80Cl-    Cl-  745   7.981   2.186   0.252
   81Cl-    Cl-  746   5.818   3.850   8.821
   82Cl-    Cl-  747   9.671   1.063   5.556
   83Cl-    Cl-  748   1.333   4.549   9.224
   84Cl-    Cl-  749   3.130   6.078   0.442
   85Cl-    Cl-  750   9.786   4.754   1.648
   86Cl-    Cl-  751   5.659   8.239   9.240
   87Cl-    Cl-  752   8.184   8.293   5.031
   88Cl-    Cl-  753   2.460   4.511   8.324
   89Cl-    Cl-  754   0.530   1.579   2.390
   90Cl-    Cl-  755   7.398   3.834   3.736
   91Cl-    Cl-  756   7.032   8.121   3.842
   92Cl-    Cl-  757   8.333   7.624   7.069
   93Cl-    Cl-  758   2.626   8.851   9.564
   94Cl-    Cl-  759   6.816   1.308   7.389
   95Cl-    Cl-  760   4.777   1.913   2.082
   96Cl-    Cl-  761   1.883   2.809   0.484
   97Cl-    Cl-  762   0.338   6.406   5.299
   98Cl-    Cl-  763   5.512   6.719   4.683
   99Cl-    Cl-  764   3.187   3.707   1.215
  100Cl-    Cl-  765   3.601   0.380   2.305
  101Cl-    Cl-  766   0.001   9.464   0.000
  102Cl-    Cl-  767   8.938   4.271   5.701
  103Cl-    Cl-  768   1.716   8.175   8.955
  104Cl-    Cl-  769   9.496   8.129   4.582
  105Cl-    Cl-  770   9.782   7.697   2.159
  106Cl-    Cl-  771   2.701   5.572   3.409
  107K+      K+  772   4.370   4.940   3.802
  108K+      K+  773   8.395   7.208   4.002
  109K+      K+  774   1.508   4.500   6.210
  110K+      K+  775   4.798   4.203   5.919
  111K+      K+  776   5.052   4.816   4.341
  112K+      K+  777   1.097   1.238   2.058
  113K+      K+  778   4.656   8.764   4.658
  114K+      K+  779   5.969   1.791   4.831
  115K+      K+  780   3.740   5.773   7.573
  116K+      K+  781   5.904   5.213   6.494
  117K+      K+  782   5.984   0.068   6.872
  118K+      K+  783   4.904   5.656   2.504
  119K+      K+  784   5.931   7.911   4.865
  120K+      K+  785   0.817   0.381   7.483
  121K+      K+  786   5.386   4.529   5.387
  122K+      K+  787   4.090   0.197   7.175
  123K+      K+  788   3.696   7.218   4.064
  124K+      K+  789   5.466   6.732   8.199
  125K+      K+  790   8.600   0.490   7.884
  126K+      K+  791   7.402   9.726   3.869
  127K+      K+  792   3.514   4.178   6.872
  128K+      K+  793   9.628   1.135   4.087
  129K+      K+  794   3.586   2.779   0.840
  130K+      K+  795   6.303   6.729   0.173
  131K+      K+  796   2.516   6.840   6.398
  132K+      K+  797   3.651   5.806   3.644
  133K+      K+  798   2.021   1.165   6.367
  134K+      K+  799   1.832   9.043   6.649
  135K+      K+  800   2.271   6.248   1.164
  136K+      K+  801   2.326   3.942   1.433
  137K+      K+  802   1.399   5.266   2.121
  138K+      K+  803   9.039   3.705   5.827
  139K+      K+  804   9.278   0.612   3.093
  140K+      K+  805   2.830   9.307   5.257
  141K+      K+  806   9.178   3.762   1.656
  142K+      K+  807   6.571   7.458   0.492
  143K+      K+  808   5.151   2.423   0.616
  144K+      K+  809   0.600   0.307   6.481
  145K+      K+  810   0.086   5.284   0.752
  146K+      K+  811   3.397   4.862   0.610
  147K+      K+  812   2.699   5.349   2.964
  148K+      K+  813   6.817   6.414   0.923
  149K+      K+  814   4.036   8.272   0.052
  150K+      K+  815   3.760   5.403   4.195
  151K+      K+  816   2.231   3.870   3.996
  152K+      K+  817   6.963   0.881   5.459
  153K+      K+  818   4.307   3.874   0.712
  154K+      K+  819   0.493   8.082   5.131
  155K+      K+  820   8.763   5.802   7.936
  156K+      K+  821   4.936   5.050   0.271
  157K+      K+  822   5.213   6.483   1.907
  158K+      K+  823   0.989   4.497   1.204
  159K+      K+  824   3.839   5.456   3.692
  160K+      K+  825   4.274   6.267   4.103
  161K+      K+  826   7.201   4.319   7.807
  162K+      K+  827   5.184   1.476   6.197
  163K+      K+  828   0.707   6.599   0.406
  164K+      K+  829   7.748   4.956   5.613
  165K+      K+  830   8.295   0.355   2.936
  166K+      K+  831   7.420   4.532   2.572
  167K+      K+  832   8.520   9.719   1.063
  168K+      K+  833   4.866   4.692   5.091
  169K+      K+  834   6.748   4.238   3.671
  170K+      K+  835   6.983   0.003   3.793
  171K+      K+  836   5.863   8.517   6.377
  172K+      K+  837   2.136   5.366   3.835
  173K+      K+  838   5.878   2.267   6.416
  174K+      K+  839   8.378   4.638   8.995
  175K+      K+  840   9.058   9.148   5.457
  176K+      K+  841   7.364   2.105   0.814
  177K+      K+  842   5.435   4.126   5.375
  178K+      K+  843   2.098   7.914   0.357
  179K+      K+  844   9.050   5.235   2.125
  180K+      K+  845   6.458   6.697   8.946
  181K+      K+  846   6.124   2.947   4.138
  182K+      K+  847   2.752   3.895   1.999
  183K+      K+  848   7.402   1.461   5.633
  184K+      K+  849   4.426   4.575   5.362
  185K+      K+  850   8.961   3.217   0.077
  186K+      K+  851   8.181   4.383   0.873
  187K+      K+  852   1.071   2.253   8.288
  188K+      K+  853   3.779   2.267   6.008
  189K+      K+  854   1.472   4.209   9.717
  190K+      K+  855   2.023   2.313   3.011
  191K+      K+  856   4.651   4.855   4.092
  192K+      K+  857   2.237   3.042   6.616
  193K+      K+  858   9.570   8.722   1.666
  194K+      K+  859   1.606   4.131   8.974
  195K+      K+  860   0.312   6.252   6.051
  196K+      K+  861   0.585   9.281   7.966
  197K+      K+  862   4.587   8.680   9.288
  198K+      K+  863   5.709   4.529   5.927
  199K+      K+  864   6.032   5.135   7.217
  200K+      K+  865   7.426   8.741   5.600
  201K+      K+  866   9.540   5.466   3.016
  202K+      K+  867   7.896   9.729   9.536
  203K+      K+  868   9.040   9.375   8.650
  204K+      K+  869   2.844   8.847   7.680
  205K+      K+  870   2.850   5.030   4.136
  206K+      K+  871   9.284   5.419   7.215
  207K+      K+  872   2.652   1.529   8.439
  208K+      K+  873   3.120   4.366   8.063
  209K+      K+  874   1.581   2.994   1.443
  210K+      K+  875   1.077   6.974   9.278
  211K+      K+  876   8.257   0.765   5.727
  212WAT      O  877   7.093   0.201   8.376
  212WAT     H1  878   7.062   0.283   8.328
  212WAT     H2  879   7.161   0.153   8.319
  213WAT      O  880   6.926   7.807   5.597
  213WAT     H1  881   6.962   7.763   5.679
  213WAT     H2  882   6.973   7.770   5.517
  214WAT      O  883   6.494   9.285   1.769
  214WAT     H1  884   6.410   9.286   1.823
  214WAT     H2  885   6.482   9.225   1.689
  215WAT      O  886   4.554   5.408   5.120
  215WAT     H1  887   4.536   5.393   5.022
  215WAT     H2  888   4.545   5.322   5.169
  216WAT      O  889   6.818   5.233   6.672
  216WAT     H1  890   6.862   5.154   6.629
  216WAT     H2  891   6.750   5.272   6.609
  217WAT      O  892   7.617   0.082   4.718
  217WAT     H1  893   7.606   0.148   4.644
  217WAT     H2  894   7.607   0.128   4.806
  218WAT      O  895   5.258   9.168   3.869
  218WAT     H1  896   5.225   9.119   3.788
  218WAT     H2  897   5.274   9.103   3.944
  219WAT      O  898   4.575   7.795   6.979
  219WAT     H1  899   4.586   7.829   6.885
  219WAT     H2  900   4.489   7.828   7.017
  220WAT      O  901   8.304   4.135   4.003
  220WAT     H1  902   8.222   4.085   3.976
  220WAT     H2  903   8.332   4.195   3.928
  221WAT      O  904   9.674   4.508   9.008
  221WAT     H1  905   9.707   4.420   9.043
  221WAT     H2  906   9.730   4.536   8.929
  222WAT      O  907   7.653   4.588   2.718
  222WAT     H1  908   7.735   4.548   2.678
  222WAT     H2  909   7.656   4.577   2.817
  223WAT      O  910   0.311   4.663   3.040
  223WAT     H1  911   0.239   4.681   2.972
  223WAT     H2  912   0.274   4.606   3.113
  224WAT      O  913   7.743   2.538   2.475
  224WAT     H1  914   7.670   2.597   2.439
  224WAT     H2  915   7.744   2.452   2.423
  225WAT      O  916   7.508   6.218   2.428
  225WAT     H1  917   7.475   6.138   2.478
  225WAT     H2  918   7.476   6.301   2.474
  226WAT      O  919   1.379   5.000   7.613
  226WAT     H1  920   1.378   4.923   7.549
  226WAT     H2  921   1.386   4.965   7.707
  227WAT      O  922   4.883   6.576   4.230
  227WAT     H1  923   4.894   6.508   4.157
  227WAT     H2  924   4.956   6.644   4.225
  228WAT      O  925   0.867   4.172   5.936
  228WAT     H1  926   0.866   4.077   5.906
  228WAT     H2  927   0.813   4.181   6.020
  229WAT      O  928   4.466   5.661   1.631
  229WAT     H1  929   4.486   5.629   1.538
  229WAT     H2  930   4.487   5.588   1.696
  230WAT      O  931   5.149   1.706   6.012
  230WAT     H1  932   5.195   1.766   6.078
  230WAT     H2  933   5.216   1.666   5.950
  231WAT      O  934   4.895   1.763   5.885
  231WAT     H1  935   4.986   1.748   5.925
  231WAT     H2  936   4.831   1.697   5.924
  232WAT      O  937   4.328   5.949   7.842
  232WAT     H1  938   4.315   6.038   7.885
  232WAT     H2  939   4.300   5.954   7.746
  233WAT      O  940   4.948   5.904   6.714
  233WAT     H1  941   4.932   5.840   6.639
  233WAT     H2  942   4.902   5.990   6.695
  234WAT      O  943   7.953   7.168   4.588
  234WAT     H1  944   7.885   7.165   4.661
  234WAT     H2  945   7.929   7.239   4.523
  235WAT      O  946   8.308   7.566   9.121
  235WAT     H1  947   8.219   7.522   9.121
  235WAT     H2  948   8.330   7.597   9.214
  236WAT      O  949   3.394   2.537   7.801
  236WAT     H1  950   3.333   2.564   7.727
  236WAT     H2  951   3.481   2.505   7.763
  237WAT      O  952   8.576   0.745   7.505
  237WAT     H1  953   8.636   0.775   7.431
  237WAT     H2  954   8.486   0.788   7.494
  238WAT      O  955   3.616   5.835   0.685
  238WAT     H1  956   3.652   5.903   0.621
  238WAT     H2  957   3.517   5.847   0.695
  239WAT      O  958   5.433   6.211   9.472
  239WAT     H1  959   5.392   6.255   9.552
  239WAT     H2  960   5.424   6.112   9.481
  240WAT      O  961   2.123   2.010   9.248
  240WAT     H1  962   2.104   2.020   9.345
  240WAT     H2  963   2.055   1.950   9.206
  241WAT      O  964   7.237   3.130   4.781
  241WAT     H1  965   7.226   3.158   4.877
  241WAT     H2  966   7.208   3.205   4.721
  242WAT      O  967   4.533   4.056   3.462
  242WAT     H1  968   4.599   4.030   3.392
  242WAT     H2  969   4.512   4.153   3.455
  243WAT      O  970   3.580   2.256   7.175
  243WAT     H1  971   3.567   2.341   7.228
  243WAT     H2  972   3.527   2.182   7.218
  244WAT      O  973   0.420   9.014   7.759
  244WAT     H1  974   0.398   9.063   7.844
  244WAT     H2  975   0.511   8.975   7.766
  245WAT      O  976   6.057   7.560   7.174
  245WAT     H1  977   6.122   7.566   7.250
  245WAT     H2  978   6.106   7.530   7.092
  246WAT      O  979   1.826   2.595   2.608
  246WAT     H1  980   1.762   2.567   2.680
  246WAT     H2  981   1.918   2.603   2.647
  247WAT      O  982   7.384   6.449   8.554
  247WAT     H1  983   7.359   6.361   8.513
  247WAT     H2  984   7.450   6.496   8.494
  248WAT      O  985   3.195   0.347   0.901
  248WAT     H1  986   3.139   0.332   0.982
  248WAT     H2  987   3.189   0.443   0.874
  249WAT      O  988   0.217   1.511   4.775
  249WAT     H1  989   0.256   1.450   4.844
  249WAT     H2  990   0.290   1.550   4.720
  250WAT      O  991   2.070   5.334   7.234
  250WAT     H1  992   2.074   5.261   7.302
  250WAT     H2  993   2.136   5.405   7.259
  251WAT      O  994   7.015   7.008   2.542
  251WAT     H1  995   6.933   6.969   2.500
  251WAT     H2  996   7.081   7.032   2.471
  252WAT      O  997   2.619   7.473   9.080
  252WAT     H1  998   2.682   7.503   9.152
  252WAT     H2  999   2.526   7.493   9.107
  253WAT      O 1000   6.716   8.693   9.574
  253WAT     H1 1001   6.636   8.658   9.525
  253WAT     H2 1002   6.796   8.637   9.551
  254WAT      O 1003   2.588   9.554   3.129
  254WAT     H1 1004   2.661   9.607   3.086
  254WAT     H2 1005   2.528   9.616   3.181
  255WAT      O 1006   1.997   8.656   5.640
  255WAT     H1 1007   1.899   8.674   5.638
  255WAT     H2 1008   2.047   8.740   5.617
  256WAT      O 1009   6.134   7.744   2.928
  256WAT     H1 1010   6.181   7.810   2.987
  256WAT     H2 1011   6.182   7.738   2.840
  257WAT      O 1012   8.394   8.473   1.273
  257WAT     H1 1013   8.328   8.442   1.203
  257WAT     H2 1014   8.485   8.477   1.232
  258WAT      O 1015   8.449   8.837   6.862
  258WAT     H1 1016   8.415   8.822   6.770
  258WAT     H2 1017   8.513   8.914   6.862
  259WAT      O 1018   2.168   2.427   2.635
  259WAT     H1 1019   2.236   2.489   2.596
  259WAT     H2 1020   2.173   2.339   2.588
  260WAT      O 1021   0.461   8.733   7.996
  260WAT     H1 1022   0.388   8.760   7.933
  260WAT     H2 1023   0.491   8.640   7.974
  261WAT      O 1024   1.973   1.797   4.986
  261WAT     H1 1025   1.901   1.841   4.932
  261WAT     H2 1026   2.022   1.867   5.038
  262WAT      O 1027   9.630   8.873   2.168
  262WAT     H1 1028   9.583   8.904   2.250
  262WAT     H2 1029   9.648   8.951   2.108
  263WAT      O 1030   0.009   9.779   2.683
  263WAT     H1 1031   0.061   9.711   2.736
  263WAT     H2 1032  -0.065   9.733   2.635
  264WAT      O 1033   7.523   4.123   4.408
  264WAT     H1 1034   7.473   4.061   4.348
  264WAT     H2 1035   7.472   4.135   4.493
  265WAT      O 1036   2.013   3.072   5.596
  265WAT     H1 1037   2.075   2.994   5.608
  265WAT     H2 1038   2.015   3.129   5.677
  266WAT      O 1039   9.122   0.906   7.811
  266WAT     H1 1040   9.190   0.834   7.795
  266WAT     H2 1041   9.054   0.905   7.738
  267WAT      O 1042   3.744   2.947   6.754
  267WAT     H1 1043   3.671   2.926   6.689
  267WAT     H2 1044   3.741   2.884   6.831
  268WAT      O 1045   5.173   8.051   0.127
  268WAT     H1 1046   5.166   7.953   0.111
  268WAT     H2 1047   5.239   8.091   0.063
  269WAT      O 1048   3.848   3.161   3.694
  269WAT     H1 1049   3.805   3.108   3.768
  269WAT     H2 1050   3.926   3.111   3.659
  270WAT      O 1051   4.857   6.273   2.645
  270WAT     H1 1052   4.826   6.212   2.572
  270WAT     H2 1053   4.859   6.367   2.612
  271WAT      O 1054   1.419   7.717   9.374
  271WAT     H1 1055   1.444   7.813   9.364
  271WAT     H2 1056   1.330   7.709   9.419
  272WAT      O 1057   2.681   4.932   1.124
  272WAT     H1 1058   2.584   4.948   1.103
  272WAT     H2 1059   2.733   5.015   1.107
  273WAT      O 1060   0.872   5.365   9.769
  273WAT     H1 1061   0.894   5.268   9.761
  273WAT     H2 1062   0.924   5.405   9.845
  274WAT      O 1063   5.534   0.513   7.814
  274WAT     H1 1064   5.575   0.583   7.756
  274WAT     H2 1065   5.498   0.439   7.758
  275WAT      O 1066   7.758   4.058   2.256
  275WAT     H1 1067   7.686   4.013   2.309
  275WAT     H2 1068   7.846   4.015   2.277
  276WAT      O 1069   9.099   7.919   0.667
  276WAT     H1 1070   9.109   8.017   0.682
  276WAT     H2 1071   9.006   7.900   0.634
  277WAT      O 1072   8.174   4.366   7.602
  277WAT     H1 1073   8.241   4.291   7.605
  277WAT     H2 1074   8.083   4.330   7.622
  278WAT      O 1075   8.297   7.539   8.498
  278WAT     H1 1076   8.199   7.556   8.508
  278WAT     H2 1077   8.345   7.625   8.482
  279WAT      O 1078   5.122   2.840   5.552
  279WAT     H1 1079   5.123   2.788   5.638
  279WAT     H2 1080   5.065   2.791   5.485
  280WAT      O 1081   0.298   4.311   7.880
  280WAT     H1 1082   0.222   4.250   7.860
  280WAT     H2 1083   0.330   4.295   7.973
  281WAT      O 1084   1.721   3.387   5.692
  281WAT     H1 1085   1.730   3.296   5.732
  281WAT     H2 1086   1.677   3.449   5.758
  282WAT      O 1087   4.966   2.486   5.047
  282WAT     H1 1088   4.875   2.446   5.054
  282WAT     H2 1089   4.960   2.585   5.054
  283WAT      O 1090   8.300   7.919   8.150
  283WAT     H1 1091   8.283   7.860   8.071
  283WAT     H2 1092   8.385   7.970   8.136
  284WAT      O 1093   3.501   3.685   7.479
  284WAT     H1 1094   3.515   3.665   7.576
  284WAT     H2 1095   3.549   3.770   7.455
  285WAT      O 1096   8.394   1.371   6.318
  285WAT     H1 1097   8.309   1.415   6.290
  285WAT     H2 1098   8.374   1.284   6.364
  286WAT      O 1099   1.132   2.564   3.317
  286WAT     H1 1100   1.094   2.478   3.281
  286WAT     H2 1101   1.090   2.641   3.270
  287WAT      O 1102   1.292   2.584   7.374
  287WAT     H1 1103   1.227   2.653   7.406
  287WAT     H2 1104   1.384   2.624   7.369
  288WAT      O 1105   5.408   4.143   3.651
  288WAT     H1 1106   5.379   4.237   3.670
  288WAT     H2 1107   5.508   4.139   3.644
  289WAT      O 1108   3.564   6.891   8.200
  289WAT     H1 1109   3.475   6.928   8.227
  289WAT     H2 1110   3.572   6.891   8.101
  290WAT      O 1111   4.749   3.131   2.383
  290WAT     H1 1112   4.656   3.109   2.413
  290WAT     H2 1113   4.815   3.097   2.450
  291WAT      O 1114   6.635   9.189   7.336
  291WAT     H1 1115   6.614   9.140   7.421
  291WAT     H2 1116   6.551   9.200   7.282
  292WAT      O 1117   2.203   6.108   7.008
  292WAT     H1 1118   2.285   6.156   7.038
  292WAT     H2 1119   2.125   6.134   7.066
  293WAT      O 1120   8.701   6.432   4.444
  293WAT     H1 1121   8.668   6.380   4.524
  293WAT     H2 1122   8.660   6.523   4.445
  294WAT      O 1123   1.855   0.459   4.384
  294WAT     H1 1124   1.954   0.472   4.376
  294WAT     H2 1125   1.808   0.537   4.344
  295WAT      O 1126   9.563   5.728   5.925
  295WAT     H1 1127   9.556   5.632   5.898
  295WAT     H2 1128   9.483   5.754   5.979
  296WAT      O 1129   7.613   6.836   6.786
  296WAT     H1 1130   7.525   6.837   6.834
  296WAT     H2 1131   7.687   6.819   6.851
  297WAT      O 1132   4.395   0.327   2.013
  297WAT     H1 1133   4.456   0.372   2.078
  297WAT     H2 1134   4.307   0.374   2.011
  298WAT      O 1135   4.508   1.646   9.103
  298WAT     H1 1136   4.425   1.593   9.082
  298WAT     H2 1137   4.482   1.734   9.143
  299WAT      O 1138   2.038   4.300   6.093
  299WAT     H1 1139   2.077   4.311   6.185
  299WAT     H2 1140   1.979   4.219   6.092
  300WAT      O 1141   0.455   9.044   1.472
  300WAT     H1 1142   0.479   8.963   1.526
  300WAT     H2 1143   0.533   9.107   1.471
  301WAT      O 1144   3.134   2.560   3.751
  301WAT     H1 1145   3.217   2.526   3.794
  301WAT     H2 1146   3.061   2.567   3.820
  302WAT      O 1147   7.158   9.468   1.935
  302WAT     H1 1148   7.145   9.553   1.985
  302WAT     H2 1149   7.074   9.414   1.937
  303WAT      O 1150   8.688   3.622   7.680
  303WAT     H1 1151   8.730   3.531   7.676
  303WAT     H2 1152   8.630   3.629   7.760
  304WAT      O 1153   0.862   1.826   0.743
  304WAT     H1 1154   0.846   1.912   0.695
  304WAT     H2 1155   0.935   1.775   0.699
  305WAT      O 1156   6.552   4.374   4.489
  305WAT     H1 1157   6.491   4.338   4.560
  305WAT     H2 1158   6.623   4.306   4.470
  306WAT      O 1159   6.522   2.669   1.961
  306WAT     H1 1160   6.519   2.625   1.871
  306WAT     H2 1161   6.451   2.740   1.966
  307WAT      O 1162   6.784   1.239   9.877
  307WAT     H1 1163   6.775   1.308   9.805
  307WAT     H2 1164   6.788   1.285   9.966
  308WAT      O 1165   1.240   8.045   6.396
  308WAT     H1 1166   1.324   7.991   6.385
  308WAT     H2 1167   1.232   8.075   6.491
  309WAT      O 1168   0.277   2.122   3.529
  309WAT     H1 1169   0.371   2.094   3.547
  309WAT     H2 1170   0.276   2.194   3.460
  310WAT      O 1171   3.289   0.917   3.720
  310WAT     H1 1172   3.274   1.011   3.752
  310WAT     H2 1173   3.301   0.857   3.799
  311WAT      O 1174   2.464   6.198   7.035
  311WAT     H1 1175   2.512   6.110   7.032
  311WAT     H2 1176   2.525   6.267   7.074
  312WAT      O 1177   9.601   2.996   0.511
  312WAT     H1 1178   9.607   3.044   0.423
  312WAT     H2 1179   9.505   2.982   0.534
  313WAT      O 1180   5.567   8.511   5.324
  313WAT     H1 1181   5.579   8.417   5.294
  313WAT     H2 1182   5.643   8.567   5.291
  314WAT      O 1183   4.180   2.884   9.451
  314WAT     H1 1184   4.216   2.961   9.398
  314WAT     H2 1185   4.242   2.866   9.528
  315WAT      O 1186   9.225   0.312   3.983
  315WAT     H1 1187   9.147   0.357   4.026
  315WAT     H2 1188   9.196   0.226   3.941
  316WAT      O 1189   0.454   9.570   6.740
  316WAT     H1 1190   0.420   9.491   6.688
  316WAT     H2 1191   0.534   9.607   6.694
  317WAT      O 1192   7.478   8.519   6.868
  317WAT     H1 1193   7.503   8.484   6.959
  317WAT     H2 1194   7.481   8.443   6.802
  318WAT      O 1195   7.562   8.706   7.913
  318WAT     H1 1196   7.619   8.663   7.984
  318WAT     H2 1197   7.472   8.727   7.951
  319WAT      O 1198   3.062   6.407   4.376
  319WAT     H1 1199   3.050   6.308   4.380
  319WAT     H2 1200   3.156   6.430   4.401
  320WAT      O 1201   2.833   7.702   1.673
  320WAT     H1 1202   2.817   7.742   1.582
  320WAT     H2 1203   2.749   7.705   1.726
  321WAT      O 1204   9.460   4.013   1.799
  321WAT     H1 1205   9.364   4.040   1.805
  321WAT     H2 1206   9.470   3.941   1.730
  322WAT      O 1207   0.195   5.032   6.702
  322WAT     H1 1208   0.188   5.094   6.624
  322WAT     H2 1209   0.284   4.986   6.701
  323WAT      O 1210   3.681   5.149   0.997
  323WAT     H1 1211   3.666   5.180   0.903
  323WAT     H2 1212   3.735   5.217   1.047
  324WAT      O 1213   1.257   5.415   7.046
  324WAT     H1 1214   1.336   5.383   7.098
  324WAT     H2 1215   1.247   5.359   6.963
  325WAT      O 1216   9.175   8.167   5.552
  325WAT     H1 1217   9.147   8.143   5.458
  325WAT     H2 1218   9.112   8.236   5.588
  326WAT      O 1219   0.425   8.209   6.812
  326WAT     H1 1220   0.455   8.288   6.759
  326WAT     H2 1221   0.473   8.207   6.899
  327WAT      O 1222   4.409   6.815   0.903
  327WAT     H1 1223   4.407   6.911   0.933
  327WAT     H2 1224   4.316   6.782   0.891
  328WAT      O 1225   8.983   7.478   2.021
  328WAT     H1 1226   9.018   7.551   1.962
  328WAT     H2 1227   8.905   7.512   2.073
  329WAT      O 1228   7.619   9.519   7.858
  329WAT     H1 1229   7.581   9.474   7.777
  329WAT     H2 1230   7.618   9.618   7.844
  330WAT      O 1231   0.675   1.875   0.275
  330WAT     H1 1232   0.652   1.825   0.192
  330WAT     H2 1233   0.593   1.919   0.312
  331WAT      O 1234   6.776   3.194   6.241
  331WAT     H1 1235   6.849   3.258   6.267
  331WAT     H2 1236   6.804   3.144   6.158
  332WAT      O 1237   6.796   9.536   1.979
  332WAT     H1 1238   6.702   9.518   2.008
  332WAT     H2 1239   6.803   9.629   1.945
  333WAT      O 1240   5.436   8.535   6.171
  333WAT     H1 1241   5.484   8.507   6.088
  333WAT     H2 1242   5.368   8.466   6.196
  334WAT      O 1243   2.299   0.898   5.960
  334WAT     H1 1244   2.301   0.917   5.862
  334WAT     H2 1245   2.353   0.816   5.980
  335WAT      O 1246   2.756   2.072   6.161
  335WAT     H1 1247   2.853   2.047   6.163
  335WAT     H2 1248   2.728   2.105   6.251
  336WAT      O 1249   9.815   1.691   4.391
  336WAT     H1 1250   9.852   1.650   4.474
  336WAT     H2 1251   9.799   1.619   4.323
  337WAT      O 1252   0.799   2.480   0.660
  337WAT     H1 1253   0.804   2.556   0.725
  337WAT     H2 1254   0.847   2.401   0.698
  338WAT      O 1255   6.616   7.906   2.281
  338WAT     H1 1256   6.644   7.942   2.191
  338WAT     H2 1257   6.628   7.807   2.282
  339WAT      O 1258   5.654   8.345   9.580
  339WAT     H1 1259   5.640   8.296   9.494
  339WAT     H2 1260   5.598   8.429   9.580
  340WAT      O 1261   1.424   2.436   8.648
  340WAT     H1 1262   1.366   2.517   8.651
  340WAT     H2 1263   1.388   2.367   8.710
  341WAT      O 1264   5.124   0.701   5.583
  341WAT     H1 1265   5.154   0.697   5.488
  341WAT     H2 1266   5.139   0.793   5.619
  342WAT      O 1267   9.536   2.203   1.490
  342WAT     H1 1268   9.626   2.212   1.448
  342WAT     H2 1269   9.466   2.200   1.418
  343WAT      O 1270   7.636   2.706   6.762
  343WAT     H1 1271   7.609   2.760   6.683
  343WAT     H2 1272   7.732   2.679   6.754
  344WAT      O 1273   5.143   5.428   4.180
  344WAT     H1 1274   5.171   5.485   4.102
  344WAT     H2 1275   5.222   5.376   4.213
  345WAT      O 1276   6.023   2.693   7.526
  345WAT     H1 1277   5.990   2.606   7.561
  345WAT     H2 1278   6.008   2.765   7.594
  346WAT      O 1279   2.016   0.985   9.479
  346WAT     H1 1280   1.946   1.013   9.414
  346WAT     H2 1281   2.067   0.907   9.442
  347WAT      O 1282   9.003   6.347   6.127
  347WAT     H1 1283   9.011   6.447   6.127
  347WAT     H2 1284   9.036   6.310   6.040
  348WAT      O 1285   8.385   8.933   0.347
  348WAT     H1 1286   8.477   8.970   0.362
  348WAT     H2 1287   8.377   8.844   0.392
  349WAT      O 1288   9.727   3.229   1.449
  349WAT     H1 1289   9.651   3.202   1.507
  349WAT     H2 1290   9.786   3.150   1.432
  350WAT      O 1291   6.325   0.451   0.221
  350WAT     H1 1292   6.300   0.414   0.310
  350WAT     H2 1293   6.288   0.543   0.211
  351WAT      O 1294   1.182   1.963   5.342
  351WAT     H1 1295   1.103   1.907   5.367
  351WAT     H2 1296   1.262   1.931   5.393
  352WAT      O 1297   5.440   2.201   2.652
  352WAT     H1 1298   5.431   2.162   2.560
  352WAT     H2 1299   5.536   2.221   2.670
  353WAT      O 1300   1.883   4.485   7.649
  353WAT     H1 1301   1.846   4.468   7.741
  353WAT     H2 1302   1.906   4.582   7.640
  354WAT      O 1303   8.528   7.974   9.186
  354WAT     H1 1304   8.434   7.988   9.219
  354WAT     H2 1305   8.584   8.052   9.213
  355WAT      O 1306   5.365   8.605   3.929
  355WAT     H1 1307   5.315   8.519   3.917
  355WAT     H2 1308   5.415   8.626   3.845
  356WAT      O 1309   9.809   3.975   6.631
  356WAT     H1 1310   9.905   3.969   6.659
  356WAT     H2 1311   9.751   3.977   6.712
  357WAT      O 1312   4.252   4.958   2.667
  357WAT     H1 1313   4.214   4.923   2.582
  357WAT     H2 1314   4.216   5.050   2.684
  358WAT      O 1315   6.846   8.608   4.397
  358WAT     H1 1316   6.912   8.663   4.345
  358WAT     H2 1317   6.889   8.523   4.428
  359WAT      O 1318   1.910   0.512   5.519
  359WAT     H1 1319   1.925   0.530   5.421
  359WAT     H2 1320   1.836   0.446   5.529
  360WAT      O 1321   8.457   7.673   2.425
  360WAT     H1 1322   8.422   7.657   2.332
  360WAT     H2 1323   8.545   7.627   2.436
  361WAT      O 1324   2.576   1.072   5.711
  361WAT     H1 1325   2.481   1.098   5.729
  361WAT     H2 1326   2.629   1.081   5.796
  362WAT      O 1327   0.034   0.520   1.667
  362WAT     H1 1328   0.064   0.537   1.761
  362WAT     H2 1329  -0.063   0.495   1.667
  363WAT      O 1330   6.296   7.145   0.888
  363WAT     H1 1331   6.377   7.199   0.908
  363WAT     H2 1332   6.221   7.205   0.860
  364WAT      O 1333   2.091   5.145   7.448
  364WAT     H1 1334   2.019   5.075   7.449
  364WAT     H2 1335   2.179   5.102   7.427
  365WAT      O 1336   4.524   5.569   7.776
  365WAT     H1 1337   4.614   5.525   7.774
  365WAT     H2 1338   4.461   5.512   7.827
  366WAT      O 1339   3.321   7.246   1.142
  366WAT     H1 1340   3.336   7.273   1.047
  366WAT     H2 1341   3.404   7.264   1.195
  367WAT      O 1342   1.666   9.510   4.919
  367WAT     H1 1343   1.604   9.566   4.865
  367WAT     H2 1344   1.686   9.557   5.005
  368WAT      O 1345   6.480   6.441   5.047
  368WAT     H1 1346   6.522   6.403   4.965
  368WAT     H2 1347   6.494   6.378   5.124
  369WAT      O 1348   1.583   1.368   7.561
  369WAT     H1 1349   1.498   1.315   7.557
  369WAT     H2 1350   1.577   1.437   7.632
  370WAT      O 1351   8.009   7.658   5.788
  370WAT     H1 1352   7.927   7.705   5.819
  370WAT     H2 1353   7.984   7.584   5.726
  371WAT      O 1354   5.346   7.511   8.060
  371WAT     H1 1355   5.287   7.432   8.042
  371WAT     H2 1356   5.310   7.563   8.137
  372WAT      O 1357   6.631   2.039   9.708
  372WAT     H1 1358   6.576   2.085   9.778
  372WAT     H2 1359   6.613   2.082   9.619
  373WAT      O 1360   5.090   3.165   8.763
  373WAT     H1 1361   5.063   3.241   8.704
  373WAT     H2 1362   5.045   3.174   8.852
  374WAT      O 1363   8.562   5.196   2.183
  374WAT     H1 1364   8.507   5.172   2.104
  374WAT     H2 1365   8.502   5.209   2.263
  375WAT      O 1366   6.874   8.550   5.081
  375WAT     H1 1367   6.962   8.501   5.079
  375WAT     H2 1368   6.847   8.572   4.987
  376WAT      O 1369   5.047   6.694   4.534
  376WAT     H1 1370   5.112   6.769   4.525
  376WAT     H2 1371   5.097   6.609   4.550
  377WAT      O 1372   5.957   7.228   5.698
  377WAT     H1 1373   6.031   7.182   5.747
  377WAT     H2 1374   5.927   7.308   5.750
  378WAT      O 1375   2.132   8.397   7.395
  378WAT     H1 1376   2.108   8.311   7.349
  378WAT     H2 1377   2.226   8.422   7.372
  379WAT      O 1378   0.670   1.897   2.480
  379WAT     H1 1379   0.725   1.882   2.397
  379WAT     H2 1380   0.590   1.838   2.477
  380WAT      O 1381   1.155   1.512   8.533
  380WAT     H1 1382   1.240   1.463   8.510
  380WAT     H2 1383   1.166   1.609   8.512
  381WAT      O 1384   6.862   7.604   0.349
  381WAT     H1 1385   6.821   7.688   0.384
  381WAT     H2 1386   6.930   7.570   0.414
  382WAT      O 1387   6.422   9.799   4.377
  382WAT     H1 1388   6.390   9.768   4.288
  382WAT     H2 1389   6.352   9.856   4.420
  383WAT      O 1390   6.793   5.369   7.708
  383WAT     H1 1391   6.838   5.458   7.713
  383WAT     H2 1392   6.697   5.382   7.681
  384WAT      O 1393   9.017   0.939   5.369
  384WAT     H1 1394   9.114   0.956   5.352
  384WAT     H2 1395   8.973   1.024   5.399
  385WAT      O 1396   0.238   0.275   6.284
  385WAT     H1 1397   0.230   0.265   6.383
  385WAT     H2 1398   0.244   0.372   6.261
  386WAT      O 1399   9.420   7.565   9.501
  386WAT     H1 1400   9.458   7.650   9.536
  386WAT     H2 1401   9.466   7.539   9.416
  387WAT      O 1402   5.642   0.991   3.753
  387WAT     H1 1403   5.589   0.908   3.737
  387WAT     H2 1404   5.640   1.048   3.670
  388WAT      O 1405   2.826   7.070   2.583
  388WAT     H1 1406   2.855   7.001   2.649
  388WAT     H2 1407   2.875   7.156   2.600
  389WAT      O 1408   3.264   6.760   7.154
  389WAT     H1 1409   3.249   6.855   7.179
  389WAT     H2 1410   3.342   6.754   7.092
  390WAT      O 1411   5.610   6.853   0.511
  390WAT     H1 1412   5.577   6.770   0.466
  390WAT     H2 1413   5.585   6.851   0.608
  391WAT      O 1414   6.115   0.256   3.750
  391WAT     H1 1415   6.069   0.327   3.805
  391WAT     H2 1416   6.125   0.289   3.656
  392WAT      O 1417   2.457   3.183   6.045
  392WAT     H1 1418   2.478   3.098   5.997
  392WAT     H2 1419   2.361   3.183   6.073
  393WAT      O 1420   3.805   4.953   9.268
  393WAT     H1 1421   3.881   5.007   9.230
  393WAT     H2 1422   3.816   4.946   9.367
  394WAT      O 1423   7.958   3.514   2.549
  394WAT     H1 1424   7.915   3.433   2.511
  394WAT     H2 1425   7.903   3.550   2.625
  395WAT      O 1426   0.815   8.980   2.317
  395WAT     H1 1427   0.836   9.060   2.262
  395WAT     H2 1428   0.735   8.999   2.375
  396WAT      O 1429   1.899   5.601   9.020
  396WAT     H1 1430   1.969   5.647   8.965
  396WAT     H2 1431   1.918   5.617   9.117
  397WAT      O 1432   5.105   0.441   5.171
  397WAT     H1 1433   5.070   0.398   5.089
  397WAT     H2 1434   5.162   0.376   5.222
  398WAT      O 1435   8.141   6.562   0.894
  398WAT     H1 1436   8.124   6.488   0.960
  398WAT     H2 1437   8.109   6.648   0.931
  399WAT      O 1438   3.065   7.608   3.057
  399WAT     H1 1439   3.011   7.692   3.051
  399WAT     H2 1440   3.142   7.613   2.994
  400WAT      O 1441   9.612   6.913   6.748
  400WAT     H1 1442   9.596   7.004   6.784
  400WAT     H2 1443   9.560   6.901   6.663
  401WAT      O 1444   8.941   4.118   2.254
  401WAT     H1 1445   8.903   4.114   2.347
  401WAT     H2 1446   8.994   4.203   2.244
  402WAT      O 1447   3.236   5.069   6.841
  402WAT     H1 1448   3.206   5.165   6.839
  402WAT     H2 1449   3.181   5.016   6.776
  403WAT      O 1450   1.448   6.170   1.227
  403WAT     H1 1451   1.526   6.187   1.288
  403WAT     H2 1452   1.459   6.225   1.144
  404WAT      O 1453   3.385   4.179   3.386
  404WAT     H1 1454   3.364   4.145   3.294
  404WAT     H2 1455   3.300   4.206   3.431
  405WAT      O 1456   1.787   1.825   6.321
  405WAT     H1 1457   1.860   1.893   6.318
  405WAT     H2 1458   1.827   1.734   6.321
  406WAT      O 1459   7.025   5.671   8.481
  406WAT     H1 1460   7.006   5.593   8.539
  406WAT     H2 1461   7.044   5.751   8.538
  407WAT      O 1462   8.311   0.057   6.075
  407WAT     H1 1463   8.215   0.058   6.100
  407WAT     H2 1464   8.354  -0.026   6.110
  408WAT      O 1465   7.181   8.409   7.840
  408WAT     H1 1466   7.167   8.501   7.805
  408WAT     H2 1467   7.149   8.403   7.934
  409WAT      O 1468   5.538   7.589   0.651
  409WAT     H1 1469   5.628   7.560   0.618
  409WAT     H2 1470   5.531   7.688   0.647
  410WAT      O 1471   3.807   4.227   2.673
  410WAT     H1 1472   3.798   4.229   2.573
  410WAT     H2 1473   3.889   4.278   2.701
  411WAT      O 1474   6.250   2.056   9.711
  411WAT     H1 1475   6.242   2.036   9.809
  411WAT     H2 1476   6.279   1.974   9.662
  412WAT      O 1477   4.119   5.053   5.632
  412WAT     H1 1478   4.128   4.973   5.692
  412WAT     H2 1479   4.032   5.047   5.582
  413WAT      O 1480   3.688   5.816   7.833
  413WAT     H1 1481   3.750   5.777   7.900
  413WAT     H2 1482   3.689   5.916   7.841
  414WAT      O 1483   4.703   6.331   3.312
  414WAT     H1 1484   4.731   6.305   3.404
  414WAT     H2 1485   4.609   6.301   3.296
  415WAT      O 1486   3.631   2.919   3.796
  415WAT     H1 1487   3.604   2.938   3.701
  415WAT     H2 1488   3.723   2.879   3.797
  416WAT      O 1489   8.784   5.750   4.251
  416WAT     H1 1490   8.715   5.698   4.302
  416WAT     H2 1491   8.739   5.816   4.191
  417WAT      O 1492   3.204   5.834   1.267
  417WAT     H1 1493   3.257   5.790   1.194
  417WAT     H2 1494   3.265   5.865   1.339
  418WAT      O 1495   7.761   4.289   4.049
  418WAT     H1 1496   7.852   4.304   4.088
  418WAT     H2 1497   7.747   4.350   3.972
  419WAT      O 1498   6.422   2.118   4.530
  419WAT     H1 1499   6.458   2.097   4.621
  419WAT     H2 1500   6.462   2.204   4.497
  420WAT      O 1501   0.430   1.538   4.651
  420WAT     H1 1502   0.478   1.451   4.646
  420WAT     H2 1503   0.487   1.610   4.611
  421WAT      O 1504   8.293   7.690   9.353
  421WAT     H1 1505   8.242   7.769   9.318
  421WAT     H2 1506   8.367   7.722   9.412
  422WAT      O 1507   6.945   3.862   5.851
  422WAT     H1 1508   6.926   3.790   5.917
  422WAT     H2 1509   6.887   3.941   5.871
  423WAT      O 1510   6.544   6.047   7.980
  423WAT     H1 1511   6.605   6.042   8.059
  423WAT     H2 1512   6.451   6.023   8.008
  424WAT      O 1513   6.483   7.734   6.316
  424WAT     H1 1514   6.451   7.777   6.400
  424WAT     H2 1515   6.410   7.676   6.278
  425WAT      O 1516   1.391   7.438   9.817
  425WAT     H1 1517   1.356   7.527   9.844
  425WAT     H2 1518   1.414   7.385   9.899
  426WAT      O 1519   6.902   2.885   9.830
  426WAT     H1 1520   6.996   2.895   9.798
  426WAT     H2 1521   6.851   2.969   9.808
  427WAT      O 1522   6.424   1.910   2.539
  427WAT     H1 1523   6.471   1.892   2.625
  427WAT     H2 1524   6.391   2.004   2.539
  428WAT      O 1525   2.971   4.568   2.135
  428WAT     H1 1526   2.880   4.585   2.099
  428WAT     H2 1527   2.977   4.603   2.229
  429WAT      O 1528   1.541   8.305   7.668
  429WAT     H1 1529   1.576   8.229   7.722
  429WAT     H2 1530   1.496   8.370   7.729
  430WAT      O 1531   1.228   5.690   0.291
  430WAT     H1 1532   1.149   5.633   0.318
  430WAT     H2 1533   1.195   5.773   0.245
  431WAT      O 1534   2.414   3.710   9.767
  431WAT     H1 1535   2.465   3.631   9.802
  431WAT     H2 1536   2.323   3.681   9.739
  432WAT      O 1537   3.906   9.669   9.375
  432WAT     H1 1538   3.833   9.737   9.387
  432WAT     H2 1539   3.983   9.711   9.327
  433WAT      O 1540   7.558   0.877   7.833
  433WAT     H1 1541   7.504   0.936   7.894
  433WAT     H2 1542   7.554   0.912   7.740
  434WAT      O 1543   6.640   0.339   4.168
  434WAT     H1 1544   6.652   0.252   4.119
  434WAT     H2 1545   6.668   0.328   4.263
  435WAT      O 1546   1.636   1.753   4.848
  435WAT     H1 1547   1.601   1.669   4.890
  435WAT     H2 1548   1.613   1.754   4.751
  436WAT      O 1549   4.980   2.773   1.240
  436WAT     H1 1550   4.988   2.839   1.315
  436WAT     H2 1551   4.936   2.689   1.274
  437WAT      O 1552   1.155   1.656   2.608
  437WAT     H1 1553   1.110   1.589   2.549
  437WAT     H2 1554   1.220   1.709   2.555
  438WAT      O 1555   3.474   6.856   6.962
  438WAT     H1 1556   3.435   6.898   6.881
  438WAT     H2 1557   3.574   6.863   6.959
  439WAT      O 1558   7.500   6.882   2.369
  439WAT     H1 1559   7.515   6.845   2.278
  439WAT     H2 1560   7.583   6.928   2.401
  440WAT      O 1561   6.111   0.826   4.705
  440WAT     H1 1562   6.130   0.851   4.610
  440WAT     H2 1563   6.139   0.732   4.722
  441WAT      O 1564   4.667   6.148   0.323
  441WAT     H1 1565   4.733   6.082   0.286
  441WAT     H2 1566   4.609   6.103   0.390
  442WAT      O 1567   8.715   8.069   1.975
  442WAT     H1 1568   8.672   8.128   1.907
  442WAT     H2 1569   8.771   8.000   1.930
  443WAT      O 1570   3.781   1.265   8.340
  443WAT     H1 1571   3.753   1.228   8.252
  443WAT     H2 1572   3.877   1.243   8.357
  444WAT      O 1573   0.954   4.388   6.302
  444WAT     H1 1574   0.996   4.476   6.280
  444WAT     H2 1575   0.863   4.404   6.340
  445WAT      O 1576   7.016   1.661   8.803
  445WAT     H1 1577   6.918   1.647   8.790
  445WAT     H2 1578   7.057   1.689   8.716
  446WAT      O 1579   1.342   8.770   9.679
  446WAT     H1 1580   1.430   8.745   9.639
  446WAT     H2 1581   1.357   8.805   9.772
  447WAT      O 1582   3.845   0.499   1.614
  447WAT     H1 1583   3.942   0.499   1.592
  447WAT     H2 1584   3.812   0.594   1.618
  448WAT      O 1585   0.656   3.686   3.545
  448WAT     H1 1586   0.608   3.664   3.460
  448WAT     H2 1587   0.754   3.685   3.529
  449WAT      O 1588   8.412   6.100   6.501
  449WAT     H1 1589   8.352   6.170   6.541
  449WAT     H2 1590   8.357   6.028   6.460
  450WAT      O 1591   9.655   1.160   8.057
  450WAT     H1 1592   9.610   1.230   8.113
  450WAT     H2 1593   9.734   1.124   8.106
  451WAT      O 1594   0.565   3.269   4.413
  451WAT     H1 1595   0.596   3.300   4.323
  451WAT     H2 1596   0.560   3.170   4.415
  452WAT      O 1597   9.281   5.250   3.782
  452WAT     H1 1598   9.306   5.297   3.697
  452WAT     H2 1599   9.362   5.207   3.821
  453WAT      O 1600   0.350   7.350   2.131
  453WAT     H1 1601   0.359   7.417   2.204
  453WAT     H2 1602   0.308   7.266   2.167
  454WAT      O 1603   8.911   0.828   2.980
  454WAT     H1 1604   8.966   0.760   2.931
  454WAT     H2 1605   8.932   0.920   2.945
  455WAT      O 1606   3.902   4.978   2.764
  455WAT     H1 1607   3.982   5.035   2.744
  455WAT     H2 1608   3.819   5.030   2.744
  456WAT      O 1609   0.841   7.455   0.479
  456WAT     H1 1610   0.853   7.474   0.382
  456WAT     H2 1611   0.756   7.497   0.511
  457WAT      O 1612   7.760   1.958   4.536
  457WAT     H1 1613   7.839   1.949   4.476
  457WAT     H2 1614   7.716   2.046   4.522
  458WAT      O 1615   6.381   6.154   3.176
  458WAT     H1 1616   6.355   6.186   3.267
  458WAT     H2 1617   6.345   6.216   3.107
  459WAT      O 1618   1.996   4.200   6.769
  459WAT     H1 1619   2.050   4.125   6.809
  459WAT     H2 1620   1.969   4.263   6.841
  460WAT      O 1621   3.040   0.371   2.856
  460WAT     H1 1622   3.011   0.357   2.950
  460WAT     H2 1623   3.132   0.411   2.854
  461WAT      O 1624   3.612   1.742   8.002
  461WAT     H1 1625   3.712   1.735   8.001
  461WAT     H2 1626   3.583   1.808   7.933
  462WAT      O 1627   8.350   3.477   2.874
  462WAT     H1 1628   8.376   3.567   2.840
  462WAT     H2 1629   8.420   3.411   2.850
  463WAT      O 1630   5.224   4.737   7.086
  463WAT     H1 1631   5.267   4.746   7.176
  463WAT     H2 1632   5.223   4.825   7.040
  464WAT      O 1633   7.489   9.321   5.280
  464WAT     H1 1634   7.466   9.390   5.349
  464WAT     H2 1635   7.467   9.356   5.189
  465WAT      O 1636   4.282   8.908   1.118
  465WAT     H1 1637   4.360   8.847   1.129
  465WAT     H2 1638   4.258   8.916   1.021
  466WAT      O 1639   0.806   4.805   2.331
  466WAT     H1 1640   0.897   4.764   2.335
  466WAT     H2 1641   0.772   4.818   2.424
  467WAT      O 1642   8.300   8.276   8.993
  467WAT     H1 1643   8.269   8.333   8.917
  467WAT     H2 1644   8.258   8.185   8.986
  468WAT      O 1645   2.459   6.878   9.707
  468WAT     H1 1646   2.418   6.790   9.730
  468WAT     H2 1647   2.478   6.882   9.609
  469WAT      O 1648   5.953   4.136   9.378
  469WAT     H1 1649   5.916   4.186   9.300
  469WAT     H2 1650   6.022   4.192   9.424
  470WAT      O 1651   3.549   5.105   9.339
  470WAT     H1 1652   3.518   5.167   9.267
  470WAT     H2 1653   3.629   5.053   9.307
  471WAT      O 1654   3.074   5.308   8.173
  471WAT     H1 1655   3.015   5.351   8.242
  471WAT     H2 1656   3.048   5.212   8.162
  472WAT      O 1657   0.072   2.058   8.643
  472WAT     H1 1658   0.167   2.036   8.667
  472WAT     H2 1659   0.050   2.017   8.554
  473WAT      O 1660   6.663   0.815   0.579
  473WAT     H1 1661   6.736   0.755   0.612
  473WAT     H2 1662   6.595   0.826   0.651
  474WAT      O 1663   8.207   6.140   4.534
  474WAT     H1 1664   8.253   6.056   4.564
  474WAT     H2 1665   8.252   6.219   4.575
  475WAT      O 1666   3.220   5.061   9.513
  475WAT     H1 1667   3.307   5.020   9.540
  475WAT     H2 1668   3.172   5.091   9.595
  476WAT      O 1669   8.541   1.065   8.069
  476WAT     H1 1670   8.493   1.023   8.147
  476WAT     H2 1671   8.474   1.108   8.008
  477WAT      O 1672   1.872   8.051   3.354
  477WAT     H1 1673   1.853   8.074   3.259
  477WAT     H2 1674   1.900   8.133   3.403
  478WAT      O 1675   1.607   7.493   8.020
  478WAT     H1 1676   1.589   7.591   8.011
  478WAT     H2 1677   1.693   7.480   8.071
  479WAT      O 1678   9.510   0.215   2.972
  479WAT     H1 1679   9.414   0.204   2.945
  479WAT     H2 1680   9.568   0.163   2.909
  480WAT      O 1681   7.403   3.151   7.887
  480WAT     H1 1682   7.373   3.065   7.928
  480WAT     H2 1683   7.421   3.218   7.958
  481WAT      O 1684   6.149   0.368   8.528
  481WAT     H1 1685   6.072   0.374   8.591
  481WAT     H2 1686   6.211   0.295   8.558
  482WAT      O 1687   9.516   3.472   0.591
  482WAT     H1 1688   9.453   3.462   0.668
  482WAT     H2 1689   9.464   3.490   0.507
  483WAT      O 1690   9.431   5.796   6.624
  483WAT     H1 1691   9.518   5.792   6.673
  483WAT     H2 1692   9.399   5.890   6.621
  484WAT      O 1693   6.835   4.037   6.155
  484WAT     H1 1694   6.892   4.018   6.236
  484WAT     H2 1695   6.762   4.101   6.180
  485WAT      O 1696   3.201   8.932   1.682
  485WAT     H1 1697   3.239   8.980   1.603
  485WAT     H2 1698   3.219   8.985   1.765
  486WAT      O 1699   5.606   8.841   0.238
  486WAT     H1 1700   5.706   8.849   0.232
  486WAT     H2 1701   5.564   8.891   0.162
  487WAT      O 1702   8.112   3.020   6.905
  487WAT     H1 1703   8.016   3.035   6.882
  487WAT     H2 1704   8.118   2.989   7.000
  488WAT      O 1705   6.533   6.503   6.633
  488WAT     H1 1706   6.521   6.404   6.631
  488WAT     H2 1707   6.447   6.548   6.610
  489WAT      O 1708   1.867   0.169   8.007
  489WAT     H1 1709   1.938   0.102   7.986
  489WAT     H2 1710   1.805   0.131   8.075
  490WAT      O 1711   4.883   3.386   1.088
  490WAT     H1 1712   4.872   3.320   1.163
  490WAT     H2 1713   4.842   3.473   1.115
  491WAT      O 1714   9.880   8.325   3.924
  491WAT     H1 1715   9.975   8.313   3.896
  491WAT     H2 1716   9.820   8.313   3.844
  492WAT      O 1717   6.453   0.337   9.713
  492WAT     H1 1718   6.393   0.314   9.636
  492WAT     H2 1719   6.470   0.435   9.714
  493WAT      O 1720   0.960   4.413   8.196
  493WAT     H1 1721   0.976   4.364   8.110
  493WAT     H2 1722   0.959   4.348   8.272
  494WAT      O 1723   3.714   6.944   4.168
  494WAT     H1 1724   3.645   6.945   4.096
  494WAT     H2 1725   3.740   6.850   4.189
  495WAT      O 1726   0.810   8.243   7.819
  495WAT     H1 1727   0.762   8.156   7.823
  495WAT     H2 1728   0.878   8.240   7.745
  496WAT      O 1729   4.472   2.539   9.511
  496WAT     H1 1730   4.525   2.623   9.507
  496WAT     H2 1731   4.520   2.466   9.463
  497WAT      O 1732   7.016   8.239   1.312
  497WAT     H1 1733   7.035   8.186   1.395
  497WAT     H2 1734   6.917   8.242   1.296
  498WAT      O 1735   6.758   4.306   5.118
  498WAT     H1 1736   6.765   4.284   5.215
  498WAT     H2 1737   6.797   4.231   5.064
  499WAT      O 1738   9.853   2.361   4.481
  499WAT     H1 1739   9.871   2.447   4.528
  499WAT     H2 1740   9.847   2.377   4.383
  500WAT      O 1741   7.231   1.795   1.474
  500WAT     H1 1742   7.253   1.832   1.383
  500WAT     H2 1743   7.293   1.833   1.542
  501WAT      O 1744   9.859   0.993   9.577
  501WAT     H1 1745   9.782   0.935   9.551
  501WAT     H2 1746   9.895   0.962   9.665
  502WAT      O 1747   3.463   2.957   3.192
  502WAT     H1 1748   3.547   2.935   3.143
  502WAT     H2 1749   3.486   2.998   3.280
  503WAT      O 1750   8.303   9.526   3.346
  503WAT     H1 1751   8.301   9.621   3.316
  503WAT     H2 1752   8.398   9.498   3.361
  504WAT      O 1753   4.122   5.332   6.384
  504WAT     H1 1754   4.042   5.368   6.338
  504WAT     H2 1755   4.141   5.387   6.466
  505WAT      O 1756   3.868   1.625   4.424
  505WAT     H1 1757   3.848   1.709   4.374
  505WAT     H2 1758   3.956   1.634   4.471
  506WAT      O 1759   4.551   7.605   4.504
  506WAT     H1 1760   4.543   7.532   4.571
  506WAT     H2 1761   4.464   7.656   4.499
  507WAT      O 1762   6.879   7.865   6.703
  507WAT     H1 1763   6.834   7.825   6.624
  507WAT     H2 1764   6.901   7.961   6.684
  508WAT      O 1765   4.706   4.086   4.765
  508WAT     H1 1766   4.631   4.049   4.709
  508WAT     H2 1767   4.778   4.017   4.773
  509WAT      O 1768   1.111   7.713   1.529
  509WAT     H1 1769   1.093   7.812   1.526
  509WAT     H2 1770   1.068   7.669   1.450
  510WAT      O 1771   7.056   6.315   3.440
  510WAT     H1 1772   7.035   6.218   3.452
  510WAT     H2 1773   7.148   6.334   3.474
  511WAT      O 1774   0.656   8.000   6.442
  511WAT     H1 1775   0.645   8.010   6.541
  511WAT     H2 1776   0.741   7.949   6.423
  512WAT      O 1777   3.717   7.404   1.811
  512WAT     H1 1778   3.673   7.494   1.811
  512WAT     H2 1779   3.734   7.376   1.905
  513WAT      O 1780   6.093   1.976   5.943
  513WAT     H1 1781   6.167   1.957   5.878
  513WAT     H2 1782   6.128   2.026   6.021
  514WAT      O 1783   9.207   2.554   2.791
  514WAT     H1 1784   9.260   2.542   2.707
  514WAT     H2 1785   9.206   2.468   2.843
  515WAT      O 1786   0.495   7.528   9.211
  515WAT     H1 1787   0.503   7.481   9.299
  515WAT     H2 1788   0.398   7.542   9.190
  516WAT      O 1789   9.096   5.598   3.115
  516WAT     H1 1790   9.033   5.521   3.105
  516WAT     H2 1791   9.182   5.566   3.155
  517WAT      O 1792   8.060   5.803   3.040
  517WAT     H1 1793   7.996   5.879   3.033
  517WAT     H2 1794   8.086   5.773   2.948
  518WAT      O 1795   3.651   0.349   0.426
  518WAT     H1 1796   3.691   0.396   0.346
  518WAT     H2 1797   3.556   0.378   0.437
  519WAT      O 1798   7.956   7.612   6.683
  519WAT     H1 1799   7.870   7.562   6.696
  519WAT     H2 1800   8.028   7.548   6.653
  520WAT      O 1801   7.518   6.119   7.203
  520WAT     H1 1802   7.597   6.180   7.213
  520WAT     H2 1803   7.476   6.104   7.293
  521WAT      O 1804   6.809   1.600   0.449
  521WAT     H1 1805   6.889   1.655   0.472
  521WAT     H2 1806   6.726   1.654   0.460
  522WAT      O 1807   9.858   1.757   5.214
  522WAT     H1 1808   9.881   1.710   5.129
  522WAT     H2 1809   9.908   1.844   5.219
  523WAT      O 1810   8.158   1.550   6.914
  523WAT     H1 1811   8.066   1.518   6.934
  523WAT     H2 1812   8.207   1.568   6.999
  524WAT      O 1813   1.606   0.782   6.254
  524WAT     H1 1814   1.582   0.879   6.265
  524WAT     H2 1815   1.704   0.775   6.234
  525WAT      O 1816   3.260   8.319   4.363
  525WAT     H1 1817   3.254   8.419   4.368
  525WAT     H2 1818   3.334   8.287   4.421
  526WAT      O 1819   7.187   5.272   7.146
  526WAT     H1 1820   7.211   5.181   7.113
  526WAT     H2 1821   7.154   5.266   7.240
  527WAT      O 1822   9.296   1.143   0.918
  527WAT     H1 1823   9.217   1.082   0.909
  527WAT     H2 1824   9.367   1.098   0.972
  528WAT      O 1825   2.902   3.125   2.596
  528WAT     H1 1826   2.903   3.221   2.568
  528WAT     H2 1827   2.910   3.120   2.696
  529WAT      O 1828   4.647   5.681   1.176
  529WAT     H1 1829   4.651   5.588   1.139
  529WAT     H2 1830   4.739   5.719   1.179
  530WAT      O 1831   7.819   2.495   2.060
  530WAT     H1 1832   7.731   2.543   2.061
  530WAT     H2 1833   7.872   2.524   1.980
  531WAT      O 1834   7.349   4.066   5.830
  531WAT     H1 1835   7.430   4.124   5.820
  531WAT     H2 1836   7.268   4.119   5.807
  532WAT      O 1837   6.532   5.210   3.293
  532WAT     H1 1838   6.549   5.309   3.291
  532WAT     H2 1839   6.453   5.192   3.352
  533WAT      O 1840   4.647   1.264   3.935
  533WAT     H1 1841   4.734   1.220   3.956
  533WAT     H2 1842   4.614   1.312   4.017
  534WAT      O 1843   4.323   2.941   3.142
  534WAT     H1 1844   4.225   2.938   3.126
  534WAT     H2 1845   4.371   2.959   3.055
  535WAT      O 1846   8.863   3.499   5.939
  535WAT     H1 1847   8.813   3.482   6.023
  535WAT     H2 1848   8.800   3.529   5.868
  536WAT      O 1849   4.364   0.247   3.494
  536WAT     H1 1850   4.449   0.294   3.520
  536WAT     H2 1851   4.387   0.163   3.444
  537WAT      O 1852   7.327   9.246   1.962
  537WAT     H1 1853   7.424   9.263   1.945
  537WAT     H2 1854   7.274   9.328   1.938
  538WAT      O 1855   2.544   5.444   3.629
  538WAT     H1 1856   2.591   5.503   3.563
  538WAT     H2 1857   2.597   5.361   3.642
  539WAT      O 1858   6.309   8.472   8.440
  539WAT     H1 1859   6.347   8.416   8.513
  539WAT     H2 1860   6.210   8.481   8.452
  540WAT      O 1861   8.430   3.533   3.900
  540WAT     H1 1862   8.403   3.450   3.948
  540WAT     H2 1863   8.481   3.593   3.962
  541WAT      O 1864   3.491   3.665   4.349
  541WAT     H1 1865   3.529   3.575   4.367
  541WAT     H2 1866   3.434   3.662   4.267
  542WAT      O 1867   4.615   1.907   5.694
  542WAT     H1 1868   4.652   1.840   5.630
  542WAT     H2 1869   4.676   1.916   5.772
  543WAT      O 1870   1.310   6.451   3.022
  543WAT     H1 1871   1.387   6.390   3.000
  543WAT     H2 1872   1.338   6.515   3.094
  544WAT      O 1873   4.654   2.366   1.649
  544WAT     H1 1874   4.559   2.383   1.675
  544WAT     H2 1875   4.668   2.268   1.636
  545WAT      O 1876   9.414   8.347   2.490
  545WAT     H1 1877   9.509   8.348   2.521
  545WAT     H2 1878   9.382   8.442   2.482
  546WAT      O 1879   5.073   3.006   1.410
  546WAT     H1 1880   5.072   3.052   1.321
  546WAT     H2 1881   5.164   2.967   1.426
  547WAT      O 1882   6.058   7.468   6.066
  547WAT     H1 1883   5.998   7.496   5.991
  547WAT     H2 1884   6.003   7.431   6.140
  548WAT      O 1885   6.698   9.339   9.798
  548WAT     H1 1886   6.764   9.410   9.823
  548WAT     H2 1887   6.613   9.382   9.769
  549WAT      O 1888   6.880   6.204   6.911
  549WAT     H1 1889   6.939   6.207   6.831
  549WAT     H2 1890   6.801   6.146   6.892
  550WAT      O 1891   4.450   3.014   4.819
  550WAT     H1 1892   4.484   3.030   4.912
  550WAT     H2 1893   4.459   3.098   4.766
  551WAT      O 1894   3.893   0.343   5.314
  551WAT     H1 1895   3.803   0.365   5.350
  551WAT     H2 1896   3.952   0.423   5.319
  552WAT      O 1897   9.801   5.719   8.000
  552WAT     H1 1898   9.890   5.688   8.033
  552WAT     H2 1899   9.729   5.666   8.044
  553WAT      O 1900   6.011   7.856   0.592
  553WAT     H1 1901   6.050   7.770   0.623
  553WAT     H2 1902   5.943   7.838   0.521
  554WAT      O 1903   6.911   8.318   4.387
  554WAT     H1 1904   6.875   8.288   4.299
  554WAT     H2 1905   7.004   8.353   4.375
  555WAT      O 1906   0.727   3.631   0.667
  555WAT     H1 1907   0.783   3.605   0.589
  555WAT     H2 1908   0.632   3.604   0.650
  556WAT      O 1909   4.465   5.504   6.735
  556WAT     H1 1910   4.532   5.431   6.723
  556WAT     H2 1911   4.459   5.559   6.652
  557WAT      O 1912   1.779   1.875   3.469
  557WAT     H1 1913   1.714   1.923   3.411
  557WAT     H2 1914   1.819   1.798   3.418
  558WAT      O 1915   2.179   7.650   0.534
  558WAT     H1 1916   2.088   7.640   0.492
  558WAT     H2 1917   2.173   7.629   0.631
  559WAT      O 1918   2.707   6.587   8.229
  559WAT     H1 1919   2.712   6.572   8.328
  559WAT     H2 1920   2.762   6.519   8.182
  560WAT      O 1921   7.464   5.135   4.728
  560WAT     H1 1922   7.499   5.221   4.765
  560WAT     H2 1923   7.372   5.117   4.765
  561WAT      O 1924   5.058   8.408   3.653
  561WAT     H1 1925   5.147   8.448   3.631
  561WAT     H2 1926   5.062   8.309   3.642
  562WAT      O 1927   7.281   8.408   9.152
  562WAT     H1 1928   7.313   8.329   9.204
  562WAT     H2 1929   7.182   8.404   9.141
  563WAT      O 1930   2.383   5.238   7.197
  563WAT     H1 1931   2.353   5.320   7.149
  563WAT     H2 1932   2.405   5.167   7.131
  564WAT      O 1933   5.979   8.736   6.209
  564WAT     H1 1934   5.990   8.834   6.225
  564WAT     H2 1935   5.920   8.722   6.130
  565WAT      O 1936   7.180   5.315   4.056
  565WAT     H1 1937   7.153   5.375   3.981
  565WAT     H2 1938   7.191   5.222   4.022
  566WAT      O 1939   3.133   6.893   3.516
  566WAT     H1 1940   3.036   6.916   3.528
  566WAT     H2 1941   3.165   6.928   3.428
  567WAT      O 1942   0.390   7.729   9.791
  567WAT     H1 1943   0.456   7.689   9.854
  567WAT     H2 1944   0.306   7.751   9.841
  568WAT      O 1945   6.200   5.029   8.866
  568WAT     H1 1946   6.286   5.034   8.815
  568WAT     H2 1947   6.195   5.107   8.929
  569WAT      O 1948   7.277   6.104   3.715
  569WAT     H1 1949   7.349   6.138   3.654
  569WAT     H2 1950   7.285   6.005   3.724
  570WAT      O 1951   2.558   0.317   9.535
  570WAT     H1 1952   2.629   0.266   9.585
  570WAT     H2 1953   2.509   0.377   9.598
  571WAT      O 1954   1.596   9.256   4.857
  571WAT     H1 1955   1.551   9.223   4.940
  571WAT     H2 1956   1.630   9.349   4.873
  572WAT      O 1957   6.939   6.626   2.805
  572WAT     H1 1958   6.862   6.689   2.818
  572WAT     H2 1959   6.991   6.620   2.891
  573WAT      O 1960   9.599   8.518   7.689
  573WAT     H1 1961   9.616   8.616   7.675
  573WAT     H2 1962   9.546   8.482   7.613
  574WAT      O 1963   7.949   9.474   1.046
  574WAT     H1 1964   8.026   9.416   1.019
  574WAT     H2 1965   7.920   9.450   1.139
  575WAT      O 1966   6.275   0.541   8.373
  575WAT     H1 1967   6.211   0.476   8.416
  575WAT     H2 1968   6.299   0.507   8.282
  576WAT      O 1969   9.444   6.185   0.307
  576WAT     H1 1970   9.365   6.164   0.250
  576WAT     H2 1971   9.517   6.120   0.287
  577WAT      O 1972   6.450   8.200   1.106
  577WAT     H1 1973   6.408   8.284   1.071
  577WAT     H2 1974   6.481   8.215   1.200
  578WAT      O 1975   8.341   2.557   7.639
  578WAT     H1 1976   8.281   2.531   7.714
  578WAT     H2 1977   8.287   2.581   7.559
  579WAT      O 1978   6.431   9.265   0.901
  579WAT     H1 1979   6.392   9.353   0.873
  579WAT     H2 1980   6.363   9.212   0.952
  580WAT      O 1981   6.079   3.219   4.144
  580WAT     H1 1982   6.096   3.205   4.047
  580WAT     H2 1983   6.099   3.314   4.168
  581WAT      O 1984   0.373   0.986   5.898
  581WAT     H1 1985   0.323   1.058   5.849
  581WAT     H2 1986   0.315   0.949   5.971
  582WAT      O 1987   5.271   1.781   2.300
  582WAT     H1 1988   5.235   1.794   2.392
  582WAT     H2 1989   5.195   1.768   2.236
  583WAT      O 1990   8.414   2.896   5.349
  583WAT     H1 1991   8.356   2.815   5.344
  583WAT     H2 1992   8.380   2.965   5.286
  584WAT      O 1993   8.579   8.000   3.039
  584WAT     H1 1994   8.598   7.941   2.961
  584WAT     H2 1995   8.662   8.051   3.063
  585WAT      O 1996   6.694   3.919   7.554
  585WAT     H1 1997   6.702   3.860   7.474
  585WAT     H2 1998   6.745   4.004   7.538
  586WAT      O 1999   5.707   1.043   5.240
  586WAT     H1 2000   5.623   0.991   5.233
  586WAT     H2 2001   5.750   1.050   5.150
  587WAT      O 2002   8.324   5.621   7.297
  587WAT     H1 2003   8.272   5.699   7.264
  587WAT     H2 2004   8.422   5.636   7.279
  588WAT      O 2005   7.771   5.883   3.812
  588WAT     H1 2006   7.768   5.813   3.741
  588WAT     H2 2007   7.704   5.862   3.883
  589WAT      O 2008   5.581   4.048   5.114
  589WAT     H1 2009   5.603   3.951   5.124
  589WAT     H2 2010   5.506   4.059   5.050
  590WAT      O 2011   9.760   4.871   5.042
  590WAT     H1 2012   9.825   4.908   4.976
  590WAT     H2 2013   9.686   4.937   5.057
  591WAT      O 2014   4.540   4.271   0.724
  591WAT     H1 2015   4.584   4.186   0.696
  591WAT     H2 2016   4.455   4.283   0.675
  592WAT      O 2017   7.726   4.396   7.425
  592WAT     H1 2018   7.789   4.323   7.403
  592WAT     H2 2019   7.742   4.426   7.520
  593WAT      O 2020   1.619   3.090   0.793
  593WAT     H1 2021   1.653   3.032   0.867
  593WAT     H2 2022   1.684   3.089   0.717
  594WAT      O 2023   9.830   8.652   3.560
  594WAT     H1 2024   9.804   8.744   3.590
  594WAT     H2 2025   9.833   8.591   3.639
  595WAT      O 2026   4.230   7.294   0.207
  595WAT     H1 2027   4.329   7.289   0.194
  595WAT     H2 2028   4.209   7.357   0.282
  596WAT      O 2029   9.688   4.202   0.500
  596WAT     H1 2030   9.700   4.296   0.532
  596WAT     H2 2031   9.724   4.193   0.407
  597WAT      O 2032   1.690   3.559   0.046
  597WAT     H1 2033   1.643   3.503   0.114
  597WAT     H2 2034   1.776   3.515   0.020
  598WAT      O 2035   8.271   3.607   8.542
  598WAT     H1 2036   8.344   3.632   8.605
  598WAT     H2 2037   8.301   3.530   8.485
  599WAT      O 2038   8.862   5.791   9.658
  599WAT     H1 2039   8.868   5.700   9.615
  599WAT     H2 2040   8.894   5.860   9.594
  600WAT      O 2041   8.809   1.588   3.953
  600WAT     H1 2042   8.770   1.674   3.919
  600WAT     H2 2043   8.865   1.606   4.033
  601WAT      O 2044   6.260   0.694   9.869
  601WAT     H1 2045   6.245   0.780   9.819
  601WAT     H2 2046   6.204   0.622   9.830
  602WAT      O 2047   6.491   3.121   9.636
  602WAT     H1 2048   6.513   3.218   9.649
  602WAT     H2 2049   6.399   3.103   9.669
  603WAT      O 2050   4.367   5.530   9.591
  603WAT     H1 2051   4.382   5.446   9.642
  603WAT     H2 2052   4.440   5.542   9.524
  604WAT      O 2053   3.065   4.971   4.307
  604WAT     H1 2054   3.095   4.969   4.402
  604WAT     H2 2055   3.011   4.889   4.287
  605WAT      O 2056   8.243   0.723   4.921
  605WAT     H1 2057   8.300   0.789   4.971
  605WAT     H2 2058   8.290   0.635   4.916
  606WAT      O 2059   1.647   5.695   7.231
  606WAT     H1 2060   1.693   5.607   7.218
  606WAT     H2 2061   1.601   5.695   7.320
  607WAT      O 2062   9.070   3.854   6.487
  607WAT     H1 2063   9.007   3.926   6.458
  607WAT     H2 2064   9.019   3.781   6.532
  608WAT      O 2065   0.246   0.477   4.704
  608WAT     H1 2066   0.281   0.493   4.612
  608WAT     H2 2067   0.304   0.411   4.751
  609WAT      O 2068   0.094   8.458   6.102
  609WAT     H1 2069   0.046   8.376   6.071
  609WAT     H2 2070   0.049   8.494   6.183
  610WAT      O 2071   2.605   1.536   0.556
  610WAT     H1 2072   2.561   1.477   0.623
  610WAT     H2 2073   2.694   1.566   0.592
  611WAT      O 2074   5.268   4.604   1.966
  611WAT     H1 2075   5.262   4.696   1.928
  611WAT     H2 2076   5.362   4.572   1.963
  612WAT      O 2077   8.743   7.416   5.476
  612WAT     H1 2078   8.756   7.366   5.390
  612WAT     H2 2079   8.803   7.378   5.547
  613WAT      O 2080   8.179   1.437   6.666
  613WAT     H1 2081   8.186   1.492   6.749
  613WAT     H2 2082   8.088   1.396   6.661
  614WAT      O 2083   7.889   3.703   7.604
  614WAT     H1 2084   7.955   3.778   7.609
  614WAT     H2 2085   7.803   3.737   7.565
  615WAT      O 2086   4.668   8.861   2.774
  615WAT     H1 2087   4.765   8.878   2.760
  615WAT     H2 2088   4.614   8.932   2.730
  616WAT      O 2089   7.129   0.422   7.283
  616WAT     H1 2090   7.074   0.394   7.204
  616WAT     H2 2091   7.119   0.521   7.297
  617WAT      O 2092   6.770   4.407   5.760
  617WAT     H1 2093   6.724   4.490   5.730
  617WAT     H2 2094   6.830   4.374   5.687
  618WAT      O 2095   7.990   4.673   6.986
  618WAT     H1 2096   7.957   4.586   7.021
  618WAT     H2 2097   7.993   4.670   6.886
  619WAT      O 2098   3.194   9.141   3.361
  619WAT     H1 2099   3.160   9.231   3.336
  619WAT     H2 2100   3.124   9.072   3.339
  620WAT      O 2101   4.435   3.087   8.829
  620WAT     H1 2102   4.455   2.991   8.851
  620WAT     H2 2103   4.521   3.136   8.814
  621WAT      O 2104   8.604   3.908   8.414
  621WAT     H1 2105   8.660   3.987   8.390
  621WAT     H2 2106   8.520   3.908   8.359
  622WAT      O 2107   5.462   3.249   9.725
  622WAT     H1 2108   5.509   3.177   9.776
  622WAT     H2 2109   5.529   3.307   9.680
  623WAT      O 2110   1.809   2.069   7.924
  623WAT     H1 2111   1.735   2.111   7.870
  623WAT     H2 2112   1.849   1.994   7.871
  624WAT      O 2113   8.651   8.881   1.307
  624WAT     H1 2114   8.590   8.820   1.258
  624WAT     H2 2115   8.598   8.939   1.368
  625WAT      O 2116   1.782   9.037   6.924
  625WAT     H1 2117   1.765   8.985   7.008
  625WAT     H2 2118   1.696   9.052   6.875
  626WAT      O 2119   7.673   2.694   1.463
  626WAT     H1 2120   7.756   2.719   1.513
  626WAT     H2 2121   7.670   2.745   1.377
  627WAT      O 2122   9.333   4.686   4.320
  627WAT     H1 2123   9.292   4.644   4.401
  627WAT     H2 2124   9.400   4.624   4.280
  628WAT      O 2125   7.987   4.384   8.063
  628WAT     H1 2126   7.979   4.476   8.025
  628WAT     H2 2127   8.037   4.325   8.000
  629WAT      O 2128   5.831   5.970   9.762
  629WAT     H1 2129   5.756   6.001   9.820
  629WAT     H2 2130   5.906   6.036   9.768
  630WAT      O 2131   8.832   3.837   9.486
  630WAT     H1 2132   8.862   3.908   9.423
  630WAT     H2 2133   8.775   3.878   9.557
  631WAT      O 2134   3.684   9.304   5.823
  631WAT     H1 2135   3.683   9.276   5.919
  631WAT     H2 2136   3.671   9.223   5.765
  632WAT      O 2137   7.358   4.957   3.623
  632WAT     H1 2138   7.262   4.934   3.643
  632WAT     H2 2139   7.416   4.924   3.698
  633WAT      O 2140   8.724   3.312   2.312
  633WAT     H1 2141   8.702   3.407   2.287
  633WAT     H2 2142   8.812   3.287   2.272
  634WAT      O 2143   4.314   2.332   7.905
  634WAT     H1 2144   4.297   2.401   7.975
  634WAT     H2 2145   4.379   2.368   7.838
  635WAT      O 2146   6.109   3.834   6.722
  635WAT     H1 2147   6.128   3.881   6.809
  635WAT     H2 2148   6.195   3.809   6.678
  636WAT      O 2149   5.374   8.094   0.577
  636WAT     H1 2150   5.312   8.140   0.513
  636WAT     H2 2151   5.356   8.126   0.670
  637WAT      O 2152   0.303   9.083   6.978
  637WAT     H1 2153   0.251   9.016   7.031
  637WAT     H2 2154   0.401   9.068   6.993
  638WAT      O 2155   1.472   1.407   6.501
  638WAT     H1 2156   1.537   1.456   6.559
  638WAT     H2 2157   1.461   1.314   6.535
  639WAT      O 2158   2.487   0.606   0.862
  639WAT     H1 2159   2.435   0.691   0.861
  639WAT     H2 2160   2.457   0.547   0.787
  640WAT      O 2161   8.610   5.650   7.285
  640WAT     H1 2162   8.600   5.601   7.199
  640WAT     H2 2163   8.689   5.613   7.335
  641WAT      O 2164   0.716   7.134   6.352
  641WAT     H1 2165   0.773   7.142   6.434
  641WAT     H2 2166   0.756   7.066   6.291
  642WAT      O 2167   6.699   8.648   2.882
  642WAT     H1 2168   6.774   8.607   2.829
  642WAT     H2 2169   6.724   8.650   2.979
  643WAT      O 2170   7.629   8.619   2.618
  643WAT     H1 2171   7.713   8.565   2.618
  643WAT     H2 2172   7.650   8.713   2.645
  644WAT      O 2173   6.095   0.521   1.806
  644WAT     H1 2174   6.004   0.560   1.818
  644WAT     H2 2175   6.116   0.462   1.884
  645WAT      O 2176   9.583   1.610   5.275
  645WAT     H1 2177   9.594   1.523   5.324
  645WAT     H2 2178   9.673   1.651   5.261
  646WAT      O 2179   8.660   8.693   2.363
  646WAT     H1 2180   8.601   8.720   2.439
  646WAT     H2 2181   8.656   8.594   2.350
  647WAT      O 2182   5.703   0.637   8.584
  647WAT     H1 2183   5.749   0.657   8.670
  647WAT     H2 2184   5.695   0.538   8.573
  648WAT      O 2185   7.018   0.532   8.901
  648WAT     H1 2186   7.064   0.479   8.829
  648WAT     H2 2187   6.920   0.519   8.894
  649WAT      O 2188   5.213   7.195   0.318
  649WAT     H1 2189   5.258   7.276   0.356
  649WAT     H2 2190   5.268   7.114   0.339
  650WAT      O 2191   2.971   2.551   8.866
  650WAT     H1 2192   2.979   2.641   8.823
  650WAT     H2 2193   2.986   2.560   8.964
  651WAT      O 2194   5.205   3.420   1.098
  651WAT     H1 2195   5.195   3.431   0.999
  651WAT     H2 2196   5.178   3.505   1.144
  652WAT      O 2197   5.289   2.683   3.569
  652WAT     H1 2198   5.268   2.625   3.647
  652WAT     H2 2199   5.381   2.664   3.536
  653WAT      O 2200   4.242   3.440   1.349
  653WAT     H1 2201   4.212   3.405   1.438
  653WAT     H2 2202   4.172   3.502   1.312
  654WAT      O 2203   3.395   7.002   6.484
  654WAT     H1 2204   3.377   6.978   6.580
  654WAT     H2 2205   3.327   7.069   6.454
  655WAT      O 2206   4.069   4.027   0.707
  655WAT     H1 2207   4.017   4.088   0.767
  655WAT     H2 2208   4.069   4.064   0.614
  656WAT      O 2209   8.491   5.146   6.430
  656WAT     H1 2210   8.568   5.089   6.403
  656WAT     H2 2211   8.455   5.194   6.350
  657WAT      O 2212   3.195   6.069   3.573
  657WAT     H1 2213   3.267   6.095   3.508
  657WAT     H2 2214   3.128   6.144   3.580
  658WAT      O 2215   3.557   7.282   0.343
  658WAT     H1 2216   3.645   7.329   0.334
  658WAT     H2 2217   3.523   7.294   0.437
  659WAT      O 2218   1.848   0.946   0.269
  659WAT     H1 2219   1.851   0.886   0.189
  659WAT     H2 2220   1.937   0.946   0.314
  660WAT      O 2221   7.768   7.858   1.205
  660WAT     H1 2222   7.699   7.894   1.267
  660WAT     H2 2223   7.824   7.791   1.254
  661WAT      O 2224   0.481   3.146   1.876
  661WAT     H1 2225   0.496   3.049   1.858
  661WAT     H2 2226   0.555   3.200   1.835
  662WAT      O 2227   7.101   4.253   3.369
  662WAT     H1 2228   7.106   4.239   3.468
  662WAT     H2 2229   7.193   4.245   3.330
  663WAT      O 2230   9.760   9.399   0.489
  663WAT     H1 2231   9.720   9.329   0.549
  663WAT     H2 2232   9.803   9.354   0.411
  664WAT      O 2233   5.524   8.975   0.012
  664WAT     H1 2234   5.601   9.022  -0.030
  664WAT     H2 2235   5.440   9.026  -0.003
  665WAT      O 2236   7.037   2.700   8.146
  665WAT     H1 2237   7.118   2.742   8.187
  665WAT     H2 2238   7.043   2.601   8.156
  666WAT      O 2239   1.770   8.020   3.766
  666WAT     H1 2240   1.692   7.961   3.744
  666WAT     H2 2241   1.756   8.110   3.725
  667WAT      O 2242   9.395   6.636   9.690
  667WAT     H1 2243   9.314   6.663   9.741
  667WAT     H2 2244   9.471   6.697   9.713
  668WAT      O 2245   3.821   0.534   2.465
  668WAT     H1 2246   3.760   0.494   2.396
  668WAT     H2 2247   3.915   0.505   2.446
  669WAT      O 2248   7.922   0.118   8.201
  669WAT     H1 2249   7.911   0.026   8.166
  669WAT     H2 2250   7.837   0.147   8.246
  670WAT      O 2251   6.764   7.761   2.019
  670WAT     H1 2252   6.812   7.675   2.002
  670WAT     H2 2253   6.822   7.822   2.073
  671WAT      O 2254   3.354   0.199   9.001
  671WAT     H1 2255   3.352   0.128   9.072
  671WAT     H2 2256   3.400   0.164   8.920
  672WAT      O 2257   4.337   2.851   7.064
  672WAT     H1 2258   4.324   2.821   7.158
  672WAT     H2 2259   4.319   2.774   7.002
  673WAT      O 2260   6.109   1.940   4.673
  673WAT     H1 2261   6.053   1.971   4.596
  673WAT     H2 2262   6.200   1.979   4.665
  674WAT      O 2263   2.339   5.335   8.342
  674WAT     H1 2264   2.355   5.282   8.259
  674WAT     H2 2265   2.359   5.432   8.325
  675WAT      O 2266   0.938   6.144   8.158
  675WAT     H1 2267   0.990   6.085   8.221
  675WAT     H2 2268   0.870   6.196   8.210
  676WAT      O 2269   2.563   9.273   7.990
  676WAT     H1 2270   2.566   9.373   7.994
  676WAT     H2 2271   2.593   9.243   7.900
  677WAT      O 2272   5.365   5.243   0.247
  677WAT     H1 2273   5.419   5.173   0.292
  677WAT     H2 2274   5.423   5.298   0.187
  678WAT      O 2275   8.915   3.689   2.081
  678WAT     H1 2276   8.873   3.777   2.104
  678WAT     H2 2277   8.892   3.622   2.151
  679WAT      O 2278   1.297   1.569   5.460
  679WAT     H1 2279   1.209   1.539   5.498
  679WAT     H2 2280   1.347   1.621   5.529
  680WAT      O 2281   5.899   1.113   8.753
  680WAT     H1 2282   5.971   1.110   8.823
  680WAT     H2 2283   5.829   1.045   8.775
  681WAT      O 2284   9.226   6.162   1.146
  681WAT     H1 2285   9.149   6.205   1.099
  681WAT     H2 2286   9.199   6.072   1.179
  682WAT      O 2287   0.288   6.416   4.911
  682WAT     H1 2288   0.213   6.418   4.978
  682WAT     H2 2289   0.359   6.480   4.938
  683WAT      O 2290   0.208   9.376   8.105
  683WAT     H1 2291   0.284   9.439   8.124
  683WAT     H2 2292   0.163   9.402   8.020
  684WAT      O 2293   4.549   0.194   5.512
  684WAT     H1 2294   4.572   0.291   5.507
  684WAT     H2 2295   4.523   0.171   5.606
  685WAT      O 2296   8.985   9.212   0.065
  685WAT     H1 2297   9.029   9.145   0.006
  685WAT     H2 2298   8.887   9.216   0.045
  686WAT      O 2299   8.165   8.016   3.779
  686WAT     H1 2300   8.178   8.019   3.680
  686WAT     H2 2301   8.132   8.105   3.811
  687WAT      O 2302   0.290   5.592   2.397
  687WAT     H1 2303   0.223   5.613   2.468
  687WAT     H2 2304   0.345   5.514   2.425
  688WAT      O 2305   3.711   0.361   8.957
  688WAT     H1 2306   3.759   0.293   9.012
  688WAT     H2 2307   3.631   0.394   9.006
  689WAT      O 2308   8.406   0.168   6.666
  689WAT     H1 2309   8.467   0.211   6.732
  689WAT     H2 2310   8.445   0.175   6.574
  690WAT      O 2311   0.993   3.265   0.198
  690WAT     H1 2312   0.940   3.349   0.209
  690WAT     H2 2313   0.960   3.215   0.118
  691WAT      O 2314   4.877   3.960   5.969
  691WAT     H1 2315   4.947   3.973   5.899
  691WAT     H2 2316   4.850   3.863   5.971
  692WAT      O 2317   4.650   9.737   5.238
  692WAT     H1 2318   4.701   9.654   5.261
  692WAT     H2 2319   4.563   9.737   5.287
  693WAT      O 2320   0.236   1.681   7.375
  693WAT     H1 2321   0.247   1.734   7.459
  693WAT     H2 2322   0.158   1.717   7.323
  694WAT      O 2323   7.572   8.415   7.085
  694WAT     H1 2324   7.556   8.341   7.151
  694WAT     H2 2325   7.664   8.451   7.097
  695WAT      O 2326   4.062   2.830   7.444
  695WAT     H1 2327   3.993   2.808   7.376
  695WAT     H2 2328   4.019   2.835   7.535
  696WAT      O 2329   0.619   7.809   3.418
  696WAT     H1 2330   0.527   7.777   3.394
  696WAT     H2 2331   0.613   7.899   3.461
  697WAT      O 2332   3.462   9.642   7.110
  697WAT     H1 2333   3.503   9.726   7.075
  697WAT     H2 2334   3.520   9.564   7.088
  698WAT      O 2335   8.950   1.859   1.105
  698WAT     H1 2336   8.852   1.850   1.087
  698WAT     H2 2337   9.002   1.817   1.030
  699WAT      O 2338   4.922   7.835   2.767
  699WAT     H1 2339   4.980   7.909   2.800
  699WAT     H2 2340   4.836   7.834   2.819
  700WAT      O 2341   0.029   7.123   1.722
  700WAT     H1 2342   0.122   7.088   1.719
  700WAT     H2 2343   0.026   7.206   1.777
  701WAT      O 2344   3.996   6.943   3.632
  701WAT     H1 2345   4.091   6.924   3.654
  701WAT     H2 2346   3.989   7.032   3.587
  702WAT      O 2347   7.955   6.074   1.766
  702WAT     H1 2348   7.992   6.104   1.679
  702WAT     H2 2349   8.007   5.996   1.800
  703WAT      O 2350   9.474   1.325   5.676
  703WAT     H1 2351   9.516   1.243   5.638
  703WAT     H2 2352   9.545   1.384   5.715
  704WAT      O 2353   0.247   7.565   7.087
  704WAT     H1 2354   0.215   7.471   7.071
  704WAT     H2 2355   0.336   7.578   7.043
  705WAT      O 2356   0.497   9.008   6.027
  705WAT     H1 2357   0.434   9.028   5.952
  705WAT     H2 2358   0.588   9.042   6.004
  706WAT      O 2359   3.494   3.451   0.179
  706WAT     H1 2360   3.572   3.427   0.237
  706WAT     H2 2361   3.479   3.550   0.183
  707WAT      O 2362   3.805   2.165   2.595
  707WAT     H1 2363   3.834   2.113   2.515
  707WAT     H2 2364   3.869   2.150   2.670
  708WAT      O 2365   1.768   2.326   0.244
  708WAT     H1 2366   1.683   2.303   0.198
  708WAT     H2 2367   1.763   2.420   0.279
  709WAT      O 2368   5.176   3.725   8.396
  709WAT     H1 2369   5.186   3.724   8.297
  709WAT     H2 2370   5.259   3.686   8.438
  710WAT      O 2371   3.541   8.753   4.439
  710WAT     H1 2372   3.456   8.790   4.403
  710WAT     H2 2373   3.521   8.675   4.498
  711WAT      O 2374   0.975   1.660   1.871
  711WAT     H1 2375   0.923   1.672   1.787
  711WAT     H2 2376   1.066   1.700   1.861
  712WAT      O 2377   9.820   6.511   3.173
  712WAT     H1 2378   9.832   6.531   3.075
  712WAT     H2 2379   9.789   6.593   3.220
  713WAT      O 2380   5.405   1.352   3.779
  713WAT     H1 2381   5.381   1.414   3.705
  713WAT     H2 2382   5.505   1.348   3.788
  714WAT      O 2383   7.209   0.151   2.334
  714WAT     H1 2384   7.138   0.103   2.282
  714WAT     H2 2385   7.171   0.236   2.372
  715WAT      O 2386   7.708   1.401   0.782
  715WAT     H1 2387   7.716   1.402   0.882
  715WAT     H2 2388   7.714   1.495   0.748
  716WAT      O 2389   4.998   8.857   8.513
  716WAT     H1 2390   4.920   8.921   8.518
  716WAT     H2 2391   5.062   8.876   8.587
  717WAT      O 2392   2.685   5.300   8.177
  717WAT     H1 2393   2.731   5.387   8.157
  717WAT     H2 2394   2.741   5.224   8.144
  718WAT      O 2395   7.854   7.260   7.083
  718WAT     H1 2396   7.838   7.277   6.986
  718WAT     H2 2397   7.872   7.163   7.097
  719WAT      O 2398   7.315   6.604   4.330
  719WAT     H1 2399   7.262   6.541   4.274
  719WAT     H2 2400   7.282   6.602   4.425
  720WAT      O 2401   7.891   2.316   2.918
  720WAT     H1 2402   7.830   2.385   2.880
  720WAT     H2 2403   7.845   2.227   2.917
  721WAT      O 2404   7.366   0.028   8.506
  721WAT     H1 2405   7.319   0.017   8.594
  721WAT     H2 2406   7.404   0.121   8.500
  722WAT      O 2407   1.698   0.223   7.801
  722WAT     H1 2408   1.648   0.145   7.763
  722WAT     H2 2409   1.755   0.192   7.878
  723WAT      O 2410   9.436   4.197   8.399
  723WAT     H1 2411   9.527   4.172   8.432
  723WAT     H2 2412   9.387   4.248   8.470
  724WAT      O 2413   2.630   2.967   7.301
  724WAT     H1 2414   2.623   3.066   7.295
  724WAT     H2 2415   2.710   2.936   7.248
  725WAT      O 2416   7.046   4.448   2.041
  725WAT     H1 2417   7.036   4.438   1.942
  725WAT     H2 2418   7.135   4.487   2.062
  726WAT      O 2419   3.985   2.718   4.820
  726WAT     H1 2420   3.919   2.660   4.867
  726WAT     H2 2421   4.046   2.660   4.766
  727WAT      O 2422   9.436   5.925   3.088
  727WAT     H1 2423   9.431   6.004   3.028
  727WAT     H2 2424   9.373   5.938   3.165
  728WAT      O 2425   0.236   5.613   0.426
  728WAT     H1 2426   0.284   5.695   0.394
  728WAT     H2 2427   0.179   5.636   0.504
  729WAT      O 2428   0.850   5.110   0.143
  729WAT     H1 2429   0.831   5.027   0.196
  729WAT     H2 2430   0.855   5.188   0.205
  730WAT      O 2431   3.284   1.585   2.144
  730WAT     H1 2432   3.242   1.624   2.062
  730WAT     H2 2433   3.340   1.654   2.189
  731WAT      O 2434   7.221   3.992   2.368
  731WAT     H1 2435   7.201   3.896   2.385
  731WAT     H2 2436   7.181   4.019   2.280
  732WAT      O 2437   7.701   7.572   5.567
  732WAT     H1 2438   7.671   7.588   5.472
  732WAT     H2 2439   7.796   7.542   5.568
  733WAT      O 2440   1.227   5.151   9.040
  733WAT     H1 2441   1.298   5.161   9.109
  733WAT     H2 2442   1.261   5.095   8.965
  734WAT      O 2443   9.575   7.288   8.169
  734WAT     H1 2444   9.586   7.329   8.079
  734WAT     H2 2445   9.543   7.357   8.234
  735WAT      O 2446   6.944   1.117   1.619
  735WAT     H1 2447   7.013   1.144   1.686
  735WAT     H2 2448   6.949   1.177   1.539
  736WAT      O 2449   6.024   1.024   1.953
  736WAT     H1 2450   6.079   1.102   1.926
  736WAT     H2 2451   5.942   1.056   2.002
  737WAT      O 2452   1.156   4.442   5.435
  737WAT     H1 2453   1.216   4.368   5.404
  737WAT     H2 2454   1.154   4.514   5.366
  738WAT      O 2455   7.988   3.441   7.607
  738WAT     H1 2456   7.955   3.534   7.591
  738WAT     H2 2457   8.066   3.443   7.668
  739WAT      O 2458   7.220   0.338   0.194
  739WAT     H1 2459   7.129   0.335   0.153
  739WAT     H2 2460   7.289   0.331   0.123
  740WAT      O 2461   5.217   4.266   7.795
  740WAT     H1 2462   5.117   4.258   7.800
  740WAT     H2 2463   5.249   4.326   7.868
  741WAT      O 2464   8.124   7.242   2.745
  741WAT     H1 2465   8.025   7.239   2.759
  741WAT     H2 2466   8.168   7.273   2.829
  742WAT      O 2467   5.927   1.285   7.480
  742WAT     H1 2468   5.870   1.264   7.400
  742WAT     H2 2469   6.018   1.245   7.467
  743WAT      O 2470   4.673   3.163   9.755
  743WAT     H1 2471   4.745   3.173   9.687
  743WAT     H2 2472   4.589   3.207   9.723
  744WAT      O 2473   8.478   4.859   5.695
  744WAT     H1 2474   8.416   4.795   5.741
  744WAT     H2 2475   8.534   4.905   5.764
  745WAT      O 2476   1.800   5.468   1.239
  745WAT     H1 2477   1.863   5.406   1.193
  745WAT     H2 2478   1.785   5.549   1.182
  746WAT      O 2479   0.982   9.510   2.418
  746WAT     H1 2480   1.003   9.461   2.503
  746WAT     H2 2481   0.909   9.577   2.436
  747WAT      O 2482   4.549   9.394   5.168
  747WAT     H1 2483   4.572   9.424   5.075
  747WAT     H2 2484   4.455   9.361   5.170
  748WAT      O 2485   6.828   4.254   8.592
  748WAT     H1 2486   6.830   4.327   8.660
  748WAT     H2 2487   6.917   4.208   8.590
  749WAT      O 2488   4.813   4.232   3.691
  749WAT     H1 2489   4.864   4.276   3.766
  749WAT     H2 2490   4.719   4.217   3.720
  750WAT      O 2491   3.503   1.325   7.491
  750WAT     H1 2492   3.469   1.357   7.403
  750WAT     H2 2493   3.485   1.394   7.561
  751WAT      O 2494   6.762   8.895   8.485
  751WAT     H1 2495   6.699   8.969   8.462
  751WAT     H2 2496   6.732   8.811   8.442
  752WAT      O 2497   5.060   7.542   0.000
  752WAT     H1 2498   5.123   7.475  -0.040
  752WAT     H2 2499   4.984   7.494   0.044
  753WAT      O 2500   2.443   2.213   8.857
  753WAT     H1 2501   2.457   2.298   8.908
  753WAT     H2 2502   2.439   2.234   8.759
  754WAT      O 2503   9.558   5.648   9.697
  754WAT     H1 2504   9.641   5.688   9.658
  754WAT     H2 2505   9.478   5.678   9.645
  755WAT      O 2506   0.577   2.812   5.087
  755WAT     H1 2507   0.482   2.841   5.075
  755WAT     H2 2508   0.590   2.773   5.178
  756WAT      O 2509   0.256   7.208   1.407
  756WAT     H1 2510   0.163   7.230   1.437
  756WAT     H2 2511   0.322   7.244   1.474
  757WAT      O 2512   7.260   3.049   4.439
  757WAT     H1 2513   7.218   3.015   4.355
  757WAT     H2 2514   7.310   2.975   4.484
  758WAT      O 2515   4.370   7.938   7.152
  758WAT     H1 2516   4.351   8.028   7.113
  758WAT     H2 2517   4.308   7.871   7.112
  759WAT      O 2518   9.852   3.406   3.908
  759WAT     H1 2519   9.917   3.346   3.861
  759WAT     H2 2520   9.878   3.502   3.892
  760WAT      O 2521   8.893   7.168   6.443
  760WAT     H1 2522   8.991   7.160   6.422
  760WAT     H2 2523   8.880   7.236   6.516
  761WAT      O 2524   4.072   3.279   4.668
  761WAT     H1 2525   4.030   3.367   4.686
  761WAT     H2 2526   4.019   3.230   4.599
  762WAT      O 2527   4.124   4.292   6.197
  762WAT     H1 2528   4.037   4.337   6.216
  762WAT     H2 2529   4.132   4.211   6.255
  763WAT      O 2530   6.837   4.766   2.670
  763WAT     H1 2531   6.788   4.854   2.673
  763WAT     H2 2532   6.910   4.766   2.737
  764WAT      O 2533   6.444   0.352   5.985
  764WAT     H1 2534   6.453   0.253   5.979
  764WAT     H2 2535   6.535   0.394   5.994
  765WAT      O 2536   5.273   0.508   3.040
  765WAT     H1 2537   5.346   0.441   3.055
  765WAT     H2 2538   5.187   0.461   3.022
  766WAT      O 2539   5.342   7.773   4.477
  766WAT     H1 2540   5.406   7.746   4.549
  766WAT     H2 2541   5.375   7.739   4.389
  767WAT      O 2542   4.670   1.747   8.808
  767WAT     H1 2543   4.635   1.665   8.763
  767WAT     H2 2544   4.619   1.827   8.775
  768WAT      O 2545   6.849   1.926   3.965
  768WAT     H1 2546   6.860   1.827   3.956
  768WAT     H2 2547   6.752   1.950   3.954
  769WAT      O 2548   7.799   2.809   7.082
  769WAT     H1 2549   7.848   2.724   7.065
  769WAT     H2 2550   7.837   2.881   7.024
  770WAT      O 2551   8.357   1.150   6.434
  770WAT     H1 2552   8.366   1.134   6.532
  770WAT     H2 2553   8.378   1.065   6.384
  771WAT      O 2554   2.075   7.750   8.625
  771WAT     H1 2555   1.987   7.774   8.668
  771WAT     H2 2556   2.119   7.678   8.677
  772WAT      O 2557   7.596   3.473   8.630
  772WAT     H1 2558   7.521   3.460   8.695
  772WAT     H2 2559   7.678   3.427   8.664
  773WAT      O 2560   5.757   6.677   2.064
  773WAT     H1 2561   5.727   6.772   2.054
  773WAT     H2 2562   5.793   6.644   1.977
  774WAT      O 2563   2.030   8.018   0.615
  774WAT     H1 2564   2.031   8.114   0.642
  774WAT     H2 2565   1.975   7.965   0.679
  775WAT      O 2566   5.117   9.583   5.980
  775WAT     H1 2567   5.095   9.558   5.885
  775WAT     H2 2568   5.215   9.573   5.995
  776WAT      O 2569   6.279   1.594   0.913
  776WAT     H1 2570   6.213   1.659   0.951
  776WAT     H2 2571   6.276   1.599   0.813
  777WAT      O 2572   0.904   4.055   9.602
  777WAT     H1 2573   0.944   4.123   9.541
  777WAT     H2 2574   0.883   4.097   9.690
  778WAT      O 2575   6.273   9.068   3.331
  778WAT     H1 2576   6.354   9.055   3.389
  778WAT     H2 2577   6.261   8.988   3.274
  779WAT      O 2578   1.679   8.697   4.669
  779WAT     H1 2579   1.620   8.617   4.681
  779WAT     H2 2580   1.641   8.755   4.597
  780WAT      O 2581   0.076   8.254   6.388
  780WAT     H1 2582   0.036   8.345   6.401
  780WAT     H2 2583   0.033   8.190   6.452
  781WAT      O 2584   8.923   7.951   6.717
  781WAT     H1 2585   9.002   7.968   6.776
  781WAT     H2 2586   8.849   8.014   6.742
  782WAT      O 2587   4.619   6.272   6.851
  782WAT     H1 2588   4.618   6.327   6.767
  782WAT     H2 2589   4.608   6.176   6.827
  783WAT      O 2590   1.781   0.115   2.527
  783WAT     H1 2591   1.736   0.194   2.485
  783WAT     H2 2592   1.827   0.061   2.457
  784WAT      O 2593   6.750   3.612   9.148
  784WAT     H1 2594   6.849   3.606   9.161
  784WAT     H2 2595   6.710   3.668   9.222
  785WAT      O 2596   8.149   9.099   9.854
  785WAT     H1 2597   8.180   9.025   9.913
  785WAT     H2 2598   8.189   9.089   9.763
  786WAT      O 2599   2.603   2.348   0.016
  786WAT     H1 2600   2.639   2.374   0.105
  786WAT     H2 2601   2.504   2.366   0.013
  787WAT      O 2602   4.737   4.500   8.255
  787WAT     H1 2603   4.823   4.502   8.305
  787WAT     H2 2604   4.661   4.515   8.319
  788WAT      O 2605   6.654   2.201   2.693
  788WAT     H1 2606   6.588   2.259   2.645
  788WAT     H2 2607   6.624   2.187   2.787
  789WAT      O 2608   7.369   0.349   3.802
  789WAT     H1 2609   7.388   0.433   3.852
  789WAT     H2 2610   7.441   0.334   3.733
  790WAT      O 2611   8.529   9.720   2.034
  790WAT     H1 2612   8.539   9.668   1.950
  790WAT     H2 2613   8.566   9.667   2.111
  791WAT      O 2614   5.259   3.616   4.808
  791WAT     H1 2615   5.234   3.663   4.723
  791WAT     H2 2616   5.319   3.539   4.787
  792WAT      O 2617   9.798   6.522   5.369
  792WAT     H1 2618   9.780   6.603   5.312
  792WAT     H2 2619   9.779   6.440   5.316
  793WAT      O 2620   2.447   7.925   2.760
  793WAT     H1 2621   2.488   7.921   2.851
  793WAT     H2 2622   2.353   7.958   2.766
  794WAT      O 2623   0.549   6.989   4.914
  794WAT     H1 2624   0.546   7.057   4.841
  794WAT     H2 2625   0.635   6.999   4.966
  795WAT      O 2626   2.653   9.794   6.380
  795WAT     H1 2627   2.620   9.881   6.343
  795WAT     H2 2628   2.718   9.753   6.315
  796WAT      O 2629   8.472   0.922   5.921
  796WAT     H1 2630   8.554   0.889   5.968
  796WAT     H2 2631   8.460   1.020   5.940
  797WAT      O 2632   4.589   9.452   8.638
  797WAT     H1 2633   4.657   9.399   8.587
  797WAT     H2 2634   4.587   9.546   8.605
  798WAT      O 2635   7.099   7.789   2.781
  798WAT     H1 2636   7.047   7.831   2.856
  798WAT     H2 2637   7.061   7.818   2.693
  799WAT      O 2638   9.711   6.538   0.257
  799WAT     H1 2639   9.753   6.486   0.331
  799WAT     H2 2640   9.678   6.475   0.186
  800WAT      O 2641   8.322   1.317   2.729
  800WAT     H1 2642   8.318   1.352   2.636
  800WAT     H2 2643   8.339   1.393   2.793
  801WAT      O 2644   9.499   8.326   1.369
  801WAT     H1 2645   9.561   8.248   1.364
  801WAT     H2 2646   9.448   8.334   1.283
  802WAT      O 2647   4.971   6.519   2.934
  802WAT     H1 2648   4.934   6.435   2.973
  802WAT     H2 2649   4.909   6.595   2.951
  803WAT      O 2650   6.662   0.240   7.035
  803WAT     H1 2651   6.714   0.250   7.120
  803WAT     H2 2652   6.565   0.230   7.057
  804WAT      O 2653   7.042   5.205   5.731
  804WAT     H1 2654   7.074   5.173   5.642
  804WAT     H2 2655   6.954   5.251   5.720
  805WAT      O 2656   1.217   4.348   1.988
  805WAT     H1 2657   1.282   4.286   1.943
  805WAT     H2 2658   1.164   4.396   1.919
  806WAT      O 2659   7.148   1.341   4.365
  806WAT     H1 2660   7.085   1.269   4.336
  806WAT     H2 2661   7.241   1.318   4.335
  807WAT      O 2662   1.160   3.794   2.643
  807WAT     H1 2663   1.214   3.720   2.684
  807WAT     H2 2664   1.083   3.755   2.592
  808WAT      O 2665   9.412   3.542   1.529
  808WAT     H1 2666   9.476   3.570   1.457
  808WAT     H2 2667   9.387   3.446   1.515
  809WAT      O 2668   8.507   4.441   4.632
  809WAT     H1 2669   8.446   4.502   4.583
  809WAT     H2 2670   8.461   4.353   4.647
  810WAT      O 2671   2.566   9.828   8.026
  810WAT     H1 2672   2.647   9.808   8.081
  810WAT     H2 2673   2.593   9.852   7.933
  811WAT      O 2674   0.912   6.846   4.286
  811WAT     H1 2675   0.854   6.822   4.209
  811WAT     H2 2676   0.999   6.881   4.252
  812WAT      O 2677   7.245   1.650   4.098
  812WAT     H1 2678   7.288   1.739   4.080
  812WAT     H2 2679   7.291   1.580   4.044
  813WAT      O 2680   6.556   5.394   0.257
  813WAT     H1 2681   6.635   5.365   0.204
  813WAT     H2 2682   6.567   5.490   0.284
  814WAT      O 2683   9.646   9.836   8.722
  814WAT     H1 2684   9.740   9.803   8.715
  814WAT     H2 2685   9.646   9.936   8.720
  815WAT      O 2686   2.959   7.854   3.064
  815WAT     H1 2687   3.052   7.892   3.061
  815WAT     H2 2688   2.931   7.844   3.160
  816WAT      O 2689   7.148   7.680   9.504
  816WAT     H1 2690   7.202   7.689   9.588
  816WAT     H2 2691   7.094   7.763   9.490
  817WAT      O 2692   7.685   0.489   1.165
  817WAT     H1 2693   7.605   0.535   1.204
  817WAT     H2 2694   7.706   0.529   1.076
  818WAT      O 2695   3.042   0.551   6.029
  818WAT     H1 2696   2.982   0.554   6.109
  818WAT     H2 2697   3.106   0.475   6.038
  819WAT      O 2698   3.688   3.790   4.514
  819WAT     H1 2699   3.645   3.834   4.593
  819WAT     H2 2700   3.618   3.752   4.454
  820WAT      O 2701   4.659   1.848   6.681
  820WAT     H1 2702   4.560   1.864   6.680
  820WAT     H2 2703   4.700   1.900   6.756
  821WAT      O 2704   0.790   6.957   0.707
  821WAT     H1 2705   0.854   6.884   0.684
  821WAT     H2 2706   0.793   6.974   0.805
  822WAT      O 2707   8.550   9.520   4.645
  822WAT     H1 2708   8.513   9.465   4.570
  822WAT     H2 2709   8.648   9.499   4.656
  823WAT      O 2710   4.095   5.757   5.380
  823WAT     H1 2711   4.152   5.681   5.351
  823WAT     H2 2712   4.018   5.768   5.318
  824WAT      O 2713   9.359   7.721   8.227
  824WAT     H1 2714   9.409   7.788   8.282
  824WAT     H2 2715   9.421   7.681   8.159
  825WAT      O 2716   8.077   4.518   4.315
  825WAT     H1 2717   8.100   4.610   4.284
  825WAT     H2 2718   8.149   4.454   4.287
  826WAT      O 2719   2.440   3.181   5.283
  826WAT     H1 2720   2.395   3.186   5.372
  826WAT     H2 2721   2.371   3.177   5.211
  827WAT      O 2722   6.163   7.992   5.226
  827WAT     H1 2723   6.141   8.064   5.292
  827WAT     H2 2724   6.231   7.930   5.265
  828WAT      O 2725   2.734   6.728   4.230
  828WAT     H1 2726   2.763   6.784   4.151
  828WAT     H2 2727   2.814   6.680   4.267
  829WAT      O 2728   4.085   2.997   2.250
  829WAT     H1 2729   3.993   3.032   2.262
  829WAT     H2 2730   4.141   3.065   2.202
  830WAT      O 2731   7.939   7.111   5.480
  830WAT     H1 2732   7.866   7.051   5.513
  830WAT     H2 2733   7.987   7.150   5.558
  831WAT      O 2734   9.680   5.871   8.659
  831WAT     H1 2735   9.723   5.854   8.747
  831WAT     H2 2736   9.713   5.957   8.621
  832WAT      O 2737   5.805   6.395   4.194
  832WAT     H1 2738   5.721   6.442   4.220
  832WAT     H2 2739   5.853   6.450   4.125
  833WAT      O 2740   5.051   5.470   5.382
  833WAT     H1 2741   5.140   5.467   5.335
  833WAT     H2 2742   4.981   5.431   5.322
  834WAT      O 2743   6.212   2.801   8.617
  834WAT     H1 2744   6.266   2.832   8.695
  834WAT     H2 2745   6.260   2.821   8.532
  835WAT      O 2746   7.939   4.505   2.701
  835WAT     H1 2747   7.964   4.596   2.667
  835WAT     H2 2748   7.946   4.504   2.801
  836WAT      O 2749   8.812   1.126   1.630
  836WAT     H1 2750   8.760   1.199   1.584
  836WAT     H2 2751   8.907   1.127   1.597
  837WAT      O 2752   5.370   2.736   7.908
  837WAT     H1 2753   5.413   2.773   7.825
  837WAT     H2 2754   5.354   2.810   7.973
  838WAT      O 2755   6.177   6.244   4.966
  838WAT     H1 2756   6.250   6.257   4.900
  838WAT     H2 2757   6.090   6.231   4.919
  839WAT      O 2758   1.056   1.883   9.792
  839WAT     H1 2759   1.128   1.952   9.800
  839WAT     H2 2760   0.972   1.919   9.835
  840WAT      O 2761   5.379   4.453   7.976
  840WAT     H1 2762   5.353   4.406   8.061
  840WAT     H2 2763   5.470   4.422   7.948
  841WAT      O 2764   1.810   2.589   1.158
  841WAT     H1 2765   1.789   2.516   1.224
  841WAT     H2 2766   1.814   2.550   1.066
  842WAT      O 2767   1.872   5.253   5.533
  842WAT     H1 2768   1.884   5.285   5.439
  842WAT     H2 2769   1.868   5.153   5.534
  843WAT      O 2770   3.301   3.706   0.928
  843WAT     H1 2771   3.378   3.646   0.907
  843WAT     H2 2772   3.267   3.686   1.020
  844WAT      O 2773   7.676   3.414   8.233
  844WAT     H1 2774   7.602   3.460   8.283
  844WAT     H2 2775   7.652   3.408   8.136
  845WAT      O 2776   1.445   2.187   8.518
  845WAT     H1 2777   1.449   2.285   8.536
  845WAT     H2 2778   1.486   2.138   8.595
  846WAT      O 2779   0.490   2.806   0.754
  846WAT     H1 2780   0.540   2.838   0.674
  846WAT     H2 2781   0.537   2.728   0.794
  847WAT      O 2782   9.422   4.732   5.658
  847WAT     H1 2783   9.418   4.668   5.581
  847WAT     H2 2784   9.425   4.825   5.623
  848WAT      O 2785   4.409   3.483   2.839
  848WAT     H1 2786   4.371   3.435   2.760
  848WAT     H2 2787   4.345   3.554   2.868
  849WAT      O 2788   2.079   3.878   0.423
  849WAT     H1 2789   2.025   3.808   0.377
  849WAT     H2 2790   2.129   3.836   0.499
  850WAT      O 2791   1.543   4.094   6.097
  850WAT     H1 2792   1.529   4.145   6.182
  850WAT     H2 2793   1.462   4.038   6.078
  851WAT      O 2794   2.498   3.773   2.006
  851WAT     H1 2795   2.509   3.777   2.106
  851WAT     H2 2796   2.498   3.678   1.976
  852WAT      O 2797   4.545   8.789   2.990
  852WAT     H1 2798   4.571   8.814   2.897
  852WAT     H2 2799   4.623   8.801   3.052
  853WAT      O 2800   0.184   7.104   2.380
  853WAT     H1 2801   0.102   7.118   2.435
  853WAT     H2 2802   0.260   7.156   2.420
  854WAT      O 2803   7.700   7.794   0.391
  854WAT     H1 2804   7.703   7.776   0.293
  854WAT     H2 2805   7.607   7.778   0.425
  855WAT      O 2806   5.662   0.548   1.291
  855WAT     H1 2807   5.758   0.576   1.290
  855WAT     H2 2808   5.609   0.611   1.234
  856WAT      O 2809   8.066   8.522   5.758
  856WAT     H1 2810   8.070   8.427   5.728
  856WAT     H2 2811   8.075   8.526   5.857
  857WAT      O 2812   3.862   3.814   5.766
  857WAT     H1 2813   3.852   3.792   5.863
  857WAT     H2 2814   3.922   3.747   5.722
  858WAT      O 2815   9.118   3.730   5.554
  858WAT     H1 2816   9.047   3.775   5.500
  858WAT     H2 2817   9.125   3.634   5.526
  859WAT      O 2818   9.341   0.094   7.500
  859WAT     H1 2819   9.386   0.075   7.412
  859WAT     H2 2820   9.244   0.070   7.493
  860WAT      O 2821   8.467   0.120   2.115
  860WAT     H1 2822   8.430   0.165   2.034
  860WAT     H2 2823   8.486   0.024   2.095
  861WAT      O 2824   2.641   8.570   3.133
  861WAT     H1 2825   2.541   8.576   3.134
  861WAT     H2 2826   2.672   8.551   3.040
  862WAT      O 2827   8.256   2.737   4.615
  862WAT     H1 2828   8.230   2.741   4.519
  862WAT     H2 2829   8.182   2.774   4.672
  863WAT      O 2830   6.988   2.283   1.077
  863WAT     H1 2831   6.930   2.354   1.117
  863WAT     H2 2832   6.955   2.193   1.107
  864WAT      O 2833   2.428   0.481   3.449
  864WAT     H1 2834   2.434   0.382   3.437
  864WAT     H2 2835   2.469   0.527   3.371
  865WAT      O 2836   3.672   7.931   6.932
  865WAT     H1 2837   3.756   7.937   6.878
  865WAT     H2 2838   3.679   7.856   6.997
  866WAT      O 2839   7.749   4.820   6.791
  866WAT     H1 2840   7.671   4.759   6.777
  866WAT     H2 2841   7.833   4.771   6.767
  867WAT      O 2842   6.366   4.755   7.477
  867WAT     H1 2843   6.398   4.849   7.486
  867WAT     H2 2844   6.272   4.749   7.512
  868WAT      O 2845   8.976   3.663   5.106
  868WAT     H1 2846   8.977   3.757   5.139
  868WAT     H2 2847   8.912   3.609   5.160
  869WAT      O 2848   4.399   8.882   5.463
  869WAT     H1 2849   4.378   8.905   5.558
  869WAT     H2 2850   4.365   8.790   5.443
  870WAT      O 2851   5.828   8.685   4.010
  870WAT     H1 2852   5.815   8.588   4.026
  870WAT     H2 2853   5.864   8.699   3.917
  871WAT      O 2854   0.421   8.215   4.308
  871WAT     H1 2855   0.440   8.261   4.394
  871WAT     H2 2856   0.362   8.272   4.251
  872WAT      O 2857   3.139   6.508   8.164
  872WAT     H1 2858   3.126   6.447   8.242
  872WAT     H2 2859   3.204   6.581   8.190
  873WAT      O 2860   2.209   3.602   7.883
  873WAT     H1 2861   2.278   3.665   7.846
  873WAT     H2 2862   2.152   3.650   7.950
  874WAT      O 2863   0.918   3.544   0.470
  874WAT     H1 2864   0.868   3.581   0.391
  874WAT     H2 2865   1.013   3.527   0.444
  875WAT      O 2866   7.004   0.791   8.801
  875WAT     H1 2867   6.936   0.804   8.873
  875WAT     H2 2868   7.032   0.695   8.798
  876WAT      O 2869   6.857   5.749   5.009
  876WAT     H1 2870   6.776   5.698   4.980
  876WAT     H2 2871   6.844   5.846   4.990
  877WAT      O 2872   6.919   1.808   6.969
  877WAT     H1 2873   6.858   1.783   7.044
  877WAT     H2 2874   6.962   1.725   6.932
  878WAT      O 2875   0.008   5.842   6.409
  878WAT     H1 2876  -0.032   5.928   6.378
  878WAT     H2 2877   0.103   5.836   6.377
  879WAT      O 2878   0.724   8.872   4.574
  879WAT     H1 2879   0.757   8.966   4.580
  879WAT     H2 2880   0.626   8.872   4.557
  880WAT      O 2881   3.051   4.044   8.318
  880WAT     H1 2882   3.146   4.070   8.300
  880WAT     H2 2883   3.044   3.944   8.319
  881WAT      O 2884   7.452   3.402   6.807
  881WAT     H1 2885   7.437   3.453   6.722
  881WAT     H2 2886   7.367   3.398   6.860
  882WAT      O 2887   1.316   1.555   8.980
  882WAT     H1 2888   1.288   1.501   8.901
  882WAT     H2 2889   1.415   1.547   8.993
  883WAT      O 2890   1.880   3.311   0.675
  883WAT     H1 2891   1.890   3.213   0.686
  883WAT     H2 2892   1.822   3.348   0.748
  884WAT      O 2893   8.320   3.475   3.409
  884WAT     H1 2894   8.308   3.524   3.323
  884WAT     H2 2895   8.305   3.377   3.394
  885WAT      O 2896   4.284   6.190   2.376
  885WAT     H1 2897   4.208   6.168   2.314
  885WAT     H2 2898   4.313   6.284   2.361
  886WAT      O 2899   2.406   5.082   3.802
  886WAT     H1 2900   2.483   5.060   3.740
  886WAT     H2 2901   2.427   5.165   3.852
  887WAT      O 2902   8.107   1.091   7.751
  887WAT     H1 2903   8.050   1.173   7.758
  887WAT     H2 2904   8.137   1.079   7.657
  888WAT      O 2905   7.007   3.555   5.742
  888WAT     H1 2906   6.927   3.579   5.798
  888WAT     H2 2907   6.980   3.555   5.646
  889WAT      O 2908   5.446   0.633   7.289
  889WAT     H1 2909   5.429   0.606   7.194
  889WAT     H2 2910   5.395   0.717   7.309
  890WAT      O 2911   9.663   5.942   5.599
  890WAT     H1 2912   9.650   5.979   5.507
  890WAT     H2 2913   9.708   5.853   5.594
  891WAT      O 2914   8.581   6.434   9.659
  891WAT     H1 2915   8.511   6.412   9.591
  891WAT     H2 2916   8.578   6.532   9.679
  892WAT      O 2917   0.896   0.710   7.822
  892WAT     H1 2918   0.945   0.796   7.833
  892WAT     H2 2919   0.803   0.719   7.857
  893WAT      O 2920   7.254   3.017   3.358
  893WAT     H1 2921   7.285   3.018   3.263
  893WAT     H2 2922   7.333   3.020   3.419
  894WAT      O 2923   1.405   9.411   5.927
  894WAT     H1 2924   1.425   9.321   5.890
  894WAT     H2 2925   1.403   9.407   6.027
  895WAT      O 2926   4.938   3.928   4.842
  895WAT     H1 2927   4.908   3.849   4.788
  895WAT     H2 2928   4.902   3.920   4.935
  896WAT      O 2929   1.968   0.769   3.494
  896WAT     H1 2930   1.913   0.708   3.437
  896WAT     H2 2931   2.065   0.752   3.477
  897WAT      O 2932   9.739   5.414   2.194
  897WAT     H1 2933   9.677   5.372   2.128
  897WAT     H2 2934   9.733   5.513   2.188
  898WAT      O 2935   0.320   0.321   5.207
  898WAT     H1 2936   0.409   0.351   5.241
  898WAT     H2 2937   0.250   0.387   5.233
  899WAT      O 2938   8.260   5.655   0.879
  899WAT     H1 2939   8.237   5.646   0.782
  899WAT     H2 2940   8.316   5.577   0.907
  900WAT      O 2941   4.752   7.450   8.040
  900WAT     H1 2942   4.732   7.540   8.078
  900WAT     H2 2943   4.790   7.461   7.948
  901WAT      O 2944   4.562   7.080   9.131
  901WAT     H1 2945   4.624   7.016   9.086
  901WAT     H2 2946   4.589   7.092   9.226
  902WAT      O 2947   6.998   1.442   4.867
  902WAT     H1 2948   6.994   1.472   4.771
  902WAT     H2 2949   6.968   1.517   4.926
  903WAT      O 2950   5.089   5.170   2.088
  903WAT     H1 2951   5.129   5.258   2.065
  903WAT     H2 2952   5.161   5.105   2.112
  904WAT      O 2953   6.129   7.384   0.531
  904WAT     H1 2954   6.086   7.308   0.483
  904WAT     H2 2955   6.105   7.380   0.628
  905WAT      O 2956   6.542   1.544   9.238
  905WAT     H1 2957   6.554   1.473   9.169
  905WAT     H2 2958   6.620   1.543   9.301
  906WAT      O 2959   7.291   3.665   7.051
  906WAT     H1 2960   7.195   3.692   7.041
  906WAT     H2 2961   7.305   3.629   7.143
  907WAT      O 2962   2.102   0.743   4.673
  907WAT     H1 2963   2.009   0.735   4.637
  907WAT     H2 2964   2.166   0.756   4.596
  908WAT      O 2965   8.193   3.583   9.080
  908WAT     H1 2966   8.144   3.591   8.993
  908WAT     H2 2967   8.291   3.594   9.064
  909WAT      O 2968   7.316   5.114   8.784
  909WAT     H1 2969   7.398   5.057   8.782
  909WAT     H2 2970   7.236   5.058   8.766
  910WAT      O 2971   1.536   2.300   6.436
  910WAT     H1 2972   1.545   2.386   6.487
  910WAT     H2 2973   1.474   2.314   6.359
  911WAT      O 2974   2.885   9.414   4.517
  911WAT     H1 2975   2.898   9.509   4.486
  911WAT     H2 2976   2.868   9.355   4.438
  912WAT      O 2977   8.973   1.517   2.216
  912WAT     H1 2978   8.954   1.498   2.120
  912WAT     H2 2979   9.024   1.603   2.223
  913WAT      O 2980   5.689   7.194   5.073
  913WAT     H1 2981   5.636   7.216   4.990
  913WAT     H2 2982   5.681   7.268   5.139
  914WAT      O 2983   6.735   4.321   7.279
  914WAT     H1 2984   6.660   4.338   7.344
  914WAT     H2 2985   6.771   4.229   7.293
  915WAT      O 2986   4.609   0.085   4.852
  915WAT     H1 2987   4.519   0.041   4.853
  915WAT     H2 2988   4.598   0.183   4.835
  916WAT      O 2989   8.235   8.375   1.519
  916WAT     H1 2990   8.175   8.444   1.558
  916WAT     H2 2991   8.275   8.410   1.434
  917WAT      O 2992   5.722   2.487   8.103
  917WAT     H1 2993   5.625   2.491   8.079
  917WAT     H2 2994   5.750   2.391   8.113
  918WAT      O 2995   9.355   1.065   8.783
  918WAT     H1 2996   9.330   0.979   8.737
  918WAT     H2 2997   9.311   1.068   8.872
  919WAT      O 2998   5.301   5.703   2.598
  919WAT     H1 2999   5.235   5.662   2.661
  919WAT     H2 3000   5.373   5.636   2.578
  920WAT      O 3001   2.210   1.044   1.104
  920WAT     H1 3002   2.129   1.054   1.163
  920WAT     H2 3003   2.283   0.998   1.155
  921WAT      O 3004   2.771   7.949   6.640
  921WAT     H1 3005   2.782   8.025   6.575
  921WAT     H2 3006   2.850   7.947   6.701
  922WAT      O 3007   2.810   2.232   9.103
  922WAT     H1 3008   2.765   2.316   9.133
  922WAT     H2 3009   2.752   2.154   9.128
  923WAT      O 3010   4.323   0.315   3.801
  923WAT     H1 3011   4.267   0.293   3.722
  923WAT     H2 3012   4.281   0.390   3.852
  924WAT      O 3013   9.439   5.558   0.471
  924WAT     H1 3014   9.532   5.596   0.464
  924WAT     H2 3015   9.400   5.547   0.380
  925WAT      O 3016   6.159   2.345   8.642
  925WAT     H1 3017   6.069   2.341   8.686
  925WAT     H2 3018   6.163   2.424   8.581
  926WAT      O 3019   8.812   9.090   5.506
  926WAT     H1 3020   8.782   9.002   5.468
  926WAT     H2 3021   8.737   9.130   5.559
  927WAT      O 3022   9.750   4.717   2.762
  927WAT     H1 3023   9.743   4.780   2.685
  927WAT     H2 3024   9.846   4.695   2.779
  928WAT      O 3025   1.170   4.150   3.894
  928WAT     H1 3026   1.231   4.230   3.899
  928WAT     H2 3027   1.225   4.067   3.883
  929WAT      O 3028   5.988   5.023   1.232
  929WAT     H1 3029   5.893   5.022   1.202
  929WAT     H2 3030   6.040   4.956   1.179
  930WAT      O 3031   9.004   3.132   1.153
  930WAT     H1 3032   8.904   3.124   1.152
  930WAT     H2 3033   9.032   3.207   1.213
  931WAT      O 3034   8.968   2.693   7.361
  931WAT     H1 3035   9.043   2.675   7.425
  931WAT     H2 3036   8.881   2.672   7.406
  932WAT      O 3037   5.648   3.010   5.718
  932WAT     H1 3038   5.676   3.076   5.788
  932WAT     H2 3039   5.559   3.038   5.681
  933WAT      O 3040   3.289   4.571   8.024
  933WAT     H1 3041   3.222   4.644   8.013
  933WAT     H2 3042   3.348   4.591   8.102
  934WAT      O 3043   5.577   7.766   8.238
  934WAT     H1 3044   5.567   7.865   8.247
  934WAT     H2 3045   5.501   7.720   8.284
  935WAT      O 3046   9.450   5.355   3.531
  935WAT     H1 3047   9.509   5.418   3.583
  935WAT     H2 3048   9.483   5.262   3.543
  936WAT      O 3049   8.649   3.939   3.052
  936WAT     H1 3050   8.734   3.891   3.074
  936WAT     H2 3051   8.580   3.873   3.023
  937WAT      O 3052   6.526   4.803   8.825
  937WAT     H1 3053   6.604   4.799   8.763
  937WAT     H2 3054   6.441   4.794   8.773
  938WAT      O 3055   0.652   8.632   5.910
  938WAT     H1 3056   0.739   8.599   5.874
  938WAT     H2 3057   0.579   8.571   5.880
  939WAT      O 3058   2.296   0.709   4.462
  939WAT     H1 3059   2.335   0.689   4.372
  939WAT     H2 3060   2.370   0.720   4.529
  940WAT      O 3061   3.778   5.516   1.770
  940WAT     H1 3062   3.803   5.544   1.862
  940WAT     H2 3063   3.699   5.454   1.774
  941WAT      O 3064   4.738   5.942   5.116
  941WAT     H1 3065   4.672   6.015   5.132
  941WAT     H2 3066   4.697   5.870   5.061
  942WAT      O 3067   4.041   6.417   7.778
  942WAT     H1 3068   4.120   6.450   7.830
  942WAT     H2 3069   4.071   6.352   7.709
  943WAT      O 3070   2.759   0.732   4.032
  943WAT     H1 3071   2.822   0.756   3.958
  943WAT     H2 3072   2.665   0.743   4.001
  944WAT      O 3073   6.075   1.286   1.187
  944WAT     H1 3074   6.053   1.275   1.284
  944WAT     H2 3075   6.145   1.357   1.176
  945WAT      O 3076   0.686   7.309   6.654
  945WAT     H1 3077   0.587   7.291   6.649
  945WAT     H2 3078   0.709   7.385   6.593
  946WAT      O 3079   6.744   4.290   3.066
  946WAT     H1 3080   6.789   4.371   3.029
  946WAT     H2 3081   6.717   4.229   2.991
  947WAT      O 3082   9.335   9.784   9.529
  947WAT     H1 3083   9.258   9.829   9.573
  947WAT     H2 3084   9.397   9.749   9.600
  948WAT      O 3085   2.868   4.087   5.770
  948WAT     H1 3086   2.957   4.133   5.772
  948WAT     H2 3087   2.801   4.143   5.819
  949WAT      O 3088   7.778   3.288   0.085
  949WAT     H1 3089   7.727   3.264   0.167
  949WAT     H2 3090   7.797   3.387   0.084
  950WAT      O 3091   7.396   4.361   2.779
  950WAT     H1 3092   7.398   4.261   2.781
  950WAT     H2 3093   7.307   4.394   2.812
  951WAT      O 3094   0.774   1.839   7.860
  951WAT     H1 3095   0.783   1.889   7.774
  951WAT     H2 3096   0.857   1.785   7.876
  952WAT      O 3097   3.223   3.694   7.398
  952WAT     H1 3098   3.298   3.704   7.463
  952WAT     H2 3099   3.249   3.627   7.328
  953WAT      O 3100   8.645   6.062   6.668
  953WAT     H1 3101   8.710   6.138   6.676
  953WAT     H2 3102   8.572   6.087   6.605
  954WAT      O 3103   4.865   0.441   8.128
  954WAT     H1 3104   4.942   0.428   8.190
  954WAT     H2 3105   4.847   0.355   8.080
  955WAT      O 3106   1.439   1.577   4.361
  955WAT     H1 3107   1.390   1.491   4.350
  955WAT     H2 3108   1.427   1.633   4.279
  956WAT      O 3109   8.076   1.692   4.059
  956WAT     H1 3110   7.983   1.687   4.022
  956WAT     H2 3111   8.142   1.681   3.984
  957WAT      O 3112   5.499   6.556   8.981
  957WAT     H1 3113   5.486   6.605   8.895
  957WAT     H2 3114   5.546   6.615   9.047
  958WAT      O 3115   0.425   7.284   9.422
  958WAT     H1 3116   0.443   7.216   9.351
  958WAT     H2 3117   0.426   7.239   9.512
  959WAT      O 3118   2.876   4.260   7.675
  959WAT     H1 3119   2.833   4.320   7.607
  959WAT     H2 3120   2.881   4.167   7.639
  960WAT      O 3121   4.943   1.720   4.418
  960WAT     H1 3122   4.981   1.804   4.457
  960WAT     H2 3123   4.921   1.735   4.322
  961WAT      O 3124   8.264   1.518   4.859
  961WAT     H1 3125   8.314   1.584   4.803
  961WAT     H2 3126   8.248   1.557   4.949
  962WAT      O 3127   5.860   1.639   5.100
  962WAT     H1 3128   5.867   1.716   5.164
  962WAT     H2 3129   5.842   1.555   5.151
  963WAT      O 3130   9.313   3.184   2.307
  963WAT     H1 3131   9.408   3.157   2.293
  963WAT     H2 3132   9.284   3.245   2.234
  964WAT      O 3133   3.098   8.031   4.425
  964WAT     H1 3134   3.186   7.995   4.397
  964WAT     H2 3135   3.049   8.065   4.345
  965WAT      O 3136   0.227   6.937   1.373
  965WAT     H1 3137   0.239   7.037   1.376
  965WAT     H2 3138   0.252   6.898   1.462
  966WAT      O 3139   2.884   6.415   8.107
  966WAT     H1 3140   2.976   6.441   8.137
  966WAT     H2 3141   2.859   6.468   8.026
  967WAT      O 3142   4.687   0.680   1.012
  967WAT     H1 3143   4.682   0.581   1.000
  967WAT     H2 3144   4.619   0.724   0.953
  968WAT      O 3145   6.534   6.543   1.549
  968WAT     H1 3146   6.460   6.518   1.610
  968WAT     H2 3147   6.521   6.498   1.461
  969WAT      O 3148   4.103   9.002   8.602
  969WAT     H1 3149   4.142   9.008   8.694
  969WAT     H2 3150   4.130   9.082   8.549
  970WAT      O 3151   3.102   4.116   6.326
  970WAT     H1 3152   3.050   4.201   6.327
  970WAT     H2 3153   3.101   4.076   6.235
  971WAT      O 3154   1.510   7.648   3.063
  971WAT     H1 3155   1.474   7.741   3.075
  971WAT     H2 3156   1.468   7.607   2.982
  972WAT      O 3157   5.840   6.767   8.517
  972WAT     H1 3158   5.815   6.689   8.574
  972WAT     H2 3159   5.929   6.803   8.546
  973WAT      O 3160   4.413   0.926   5.246
  973WAT     H1 3161   4.506   0.942   5.278
  973WAT     H2 3162   4.348   0.963   5.313
  974WAT      O 3163   6.574   1.657   6.143
  974WAT     H1 3164   6.650   1.681   6.082
  974WAT     H2 3165   6.609   1.602   6.219
  975WAT      O 3166   3.903   4.987   1.667
  975WAT     H1 3167   3.815   4.946   1.645
  975WAT     H2 3168   3.977   4.928   1.633
  976WAT      O 3169   0.738   4.886   9.559
  976WAT     H1 3170   0.797   4.960   9.528
  976WAT     H2 3171   0.649   4.893   9.514
  977WAT      O 3172   4.699   2.726   4.970
  977WAT     H1 3173   4.611   2.706   5.014
  977WAT     H2 3174   4.721   2.653   4.905
  978WAT      O 3175   7.388   0.430   6.994
  978WAT     H1 3176   7.377   0.421   6.895
  978WAT     H2 3177   7.471   0.381   7.023
  979WAT      O 3178   3.032   6.279   8.600
  979WAT     H1 3179   3.074   6.341   8.666
  979WAT     H2 3180   2.969   6.218   8.648
  980WAT      O 3181   1.613   4.554   5.952
  980WAT     H1 3182   1.602   4.641   5.904
  980WAT     H2 3183   1.557   4.484   5.907
  981WAT      O 3184   4.428   9.597   6.784
  981WAT     H1 3185   4.359   9.669   6.775
  981WAT     H2 3186   4.494   9.603   6.709
  982WAT      O 3187   4.161   5.853   4.667
  982WAT     H1 3188   4.239   5.837   4.728
  982WAT     H2 3189   4.193   5.870   4.574
  983WAT      O 3190   7.085   5.660   4.638
  983WAT     H1 3191   7.068   5.648   4.540
  983WAT     H2 3192   7.183   5.666   4.654
  984WAT      O 3193   6.844   9.801   6.404
  984WAT     H1 3194   6.890   9.733   6.347
  984WAT     H2 3195   6.889   9.890   6.392
  985WAT      O 3196   4.864   6.145   4.637
  985WAT     H1 3197   4.852   6.215   4.708
  985WAT     H2 3198   4.890   6.059   4.679
  986WAT      O 3199   9.439   4.035   4.357
  986WAT     H1 3200   9.434   3.968   4.431
  986WAT     H2 3201   9.533   4.069   4.348
  987WAT      O 3202   5.993   9.196   3.662
  987WAT     H1 3203   6.091   9.179   3.673
  987WAT     H2 3204   5.977   9.245   3.577
  988WAT      O 3205   5.765   3.654   5.836
  988WAT     H1 3206   5.813   3.688   5.917
  988WAT     H2 3207   5.669   3.682   5.840
  989WAT      O 3208   9.442   5.128   2.044
  989WAT     H1 3209   9.420   5.072   1.964
  989WAT     H2 3210   9.370   5.120   2.111
  990WAT      O 3211   3.232   5.142   9.012
  990WAT     H1 3212   3.174   5.112   8.936
  990WAT     H2 3213   3.207   5.235   9.039
  991WAT      O 3214   9.394   9.416   4.749
  991WAT     H1 3215   9.439   9.369   4.825
  991WAT     H2 3216   9.439   9.391   4.663
  992WAT      O 3217   5.330   4.661   1.107
  992WAT     H1 3218   5.400   4.729   1.130
  992WAT     H2 3219   5.285   4.629   1.190
  993WAT      O 3220   4.516   6.673   2.407
  993WAT     H1 3221   4.562   6.758   2.429
  993WAT     H2 3222   4.418   6.690   2.394
  994WAT      O 3223   2.301   7.973   7.554
  994WAT     H1 3224   2.310   7.892   7.612
  994WAT     H2 3225   2.220   8.025   7.582
  995WAT      O 3226   3.001   5.225   4.018
  995WAT     H1 3227   3.092   5.267   4.013
  995WAT     H2 3228   2.971   5.201   3.926
  996WAT      O 3229   6.888   4.339   7.694
  996WAT     H1 3230   6.892   4.260   7.633
  996WAT     H2 3231   6.829   4.318   7.772
  997WAT      O 3232   8.007   2.843   1.457
  997WAT     H1 3233   8.106   2.852   1.463
  997WAT     H2 3234   7.974   2.887   1.374
  998WAT      O 3235   5.897   0.932   7.052
  998WAT     H1 3236   5.834   0.915   7.127
  998WAT     H2 3237   5.976   0.984   7.086
  999WAT      O 3238   3.528   2.075   8.896
  999WAT     H1 3239   3.596   2.077   8.823
  999WAT     H2 3240   3.471   1.993   8.887
 1000WAT      O 3241   1.039   6.667   1.133
 1000WAT     H1 3242   1.022   6.749   1.186
 1000WAT     H2 3243   0.952   6.627   1.103
 1001WAT      O 3244   5.836   4.964   9.825
 1001WAT     H1 3245   5.749   4.939   9.782
 1001WAT     H2 3246   5.819   5.014   9.910
 1002WAT      O 3247   8.302   9.715   5.710
 1002WAT     H1 3248   8.210   9.700   5.745
 1002WAT     H2 3249   8.362   9.640   5.737
 1003WAT      O 3250   5.596   4.942   4.125
 1003WAT     H1 3251   5.522   4.883   4.094
 1003WAT     H2 3252   5.678   4.887   4.140
 1004WAT      O 3253   3.965   0.312   6.354
 1004WAT     H1 3254   3.885   0.286   6.300
 1004WAT     H2 3255   3.982   0.410   6.343
 1005WAT      O 3256   7.818   8.383   3.999
 1005WAT     H1 3257   7.765   8.407   3.918
 1005WAT     H2 3258   7.768   8.315   4.052
 1006WAT      O 3259   3.794   6.986   7.446
 1006WAT     H1 3260   3.798   7.027   7.355
 1006WAT     H2 3261   3.758   7.053   7.510
 1007WAT      O 3262   2.549   8.117   7.191
 1007WAT     H1 3263   2.462   8.143   7.148
 1007WAT     H2 3264   2.606   8.069   7.125
 1008WAT      O 3265   7.239   6.797   8.311
 1008WAT     H1 3266   7.201   6.748   8.390
 1008WAT     H2 3267   7.166   6.846   8.264
 1009WAT      O 3268   1.842   6.743   2.119
 1009WAT     H1 3269   1.766   6.744   2.055
 1009WAT     H2 3270   1.921   6.787   2.078
 1010WAT      O 3271   6.822   4.039   1.138
 1010WAT     H1 3272   6.778   4.001   1.219
 1010WAT     H2 3273   6.756   4.096   1.088
 1011WAT      O 3274   9.744   1.482   7.616
 1011WAT     H1 3275   9.825   1.524   7.658
 1011WAT     H2 3276   9.740   1.385   7.641
 1012WAT      O 3277   7.472   7.916   7.537
 1012WAT     H1 3278   7.373   7.930   7.542
 1012WAT     H2 3279   7.495   7.824   7.566
 1013WAT      O 3280   5.558   9.807   1.592
 1013WAT     H1 3281   5.565   9.895   1.546
 1013WAT     H2 3282   5.464   9.774   1.585
 1014WAT      O 3283   7.326   1.909   1.234
 1014WAT     H1 3284   7.424   1.927   1.228
 1014WAT     H2 3285   7.300   1.839   1.167
 1015WAT      O 3286   1.445   2.205   3.293
 1015WAT     H1 3287   1.359   2.193   3.243
 1015WAT     H2 3288   1.448   2.297   3.333
 1016WAT      O 3289   4.085   5.198   5.923
 1016WAT     H1 3290   4.076   5.163   6.016
 1016WAT     H2 3291   4.065   5.125   5.857
 1017WAT      O 3292   4.957   4.210   5.065
 1017WAT     H1 3293   4.861   4.184   5.060
 1017WAT     H2 3294   4.991   4.233   4.974
 1018WAT      O 3295   4.401   2.187   9.650
 1018WAT     H1 3296   4.315   2.161   9.693
 1018WAT     H2 3297   4.433   2.274   9.688
 1019WAT      O 3298   3.402   2.923   0.984
 1019WAT     H1 3299   3.441   2.942   1.074
 1019WAT     H2 3300   3.397   3.008   0.932
 1020WAT      O 3301   4.342   6.806   2.622
 1020WAT     H1 3302   4.243   6.803   2.632
 1020WAT     H2 3303   4.369   6.889   2.574
 1021WAT      O 3304   2.966   9.454   9.706
 1021WAT     H1 3305   2.900   9.502   9.763
 1021WAT     H2 3306   3.057   9.459   9.748
 1022WAT      O 3307   5.562   2.369   2.400
 1022WAT     H1 3308   5.626   2.346   2.474
 1022WAT     H2 3309   5.505   2.289   2.379
 1023WAT      O 3310   4.448   3.052   2.471
 1023WAT     H1 3311   4.426   3.034   2.567
 1023WAT     H2 3312   4.412   2.978   2.414
 1024WAT      O 3313   1.453   9.348   6.833
 1024WAT     H1 3314   1.482   9.253   6.823
 1024WAT     H2 3315   1.405   9.377   6.750
 1025WAT      O 3316   8.753   0.338   3.550
 1025WAT     H1 3317   8.794   0.248   3.540
 1025WAT     H2 3318   8.671   0.331   3.607
 1026WAT      O 3319   2.381   4.406   1.721
 1026WAT     H1 3320   2.411   4.428   1.814
 1026WAT     H2 3321   2.355   4.489   1.674
 1027WAT      O 3322   8.508   5.076   5.158
 1027WAT     H1 3323   8.425   5.068   5.214
 1027WAT     H2 3324   8.496   5.023   5.074
 1028WAT      O 3325   5.201   4.272   3.007
 1028WAT     H1 3326   5.180   4.369   2.990
 1028WAT     H2 3327   5.183   4.250   3.103
 1029WAT      O 3328   2.130   9.265   8.853
 1029WAT     H1 3329   2.139   9.360   8.881
 1029WAT     H2 3330   2.079   9.215   8.923
 1030WAT      O 3331   8.322   2.136   8.868
 1030WAT     H1 3332   8.419   2.126   8.893
 1030WAT     H2 3333   8.274   2.184   8.941
 1031WAT      O 3334   6.995   1.109   4.716
 1031WAT     H1 3335   6.936   1.185   4.690
 1031WAT     H2 3336   6.973   1.029   4.659
 1032WAT      O 3337   4.313   7.125   9.670
 1032WAT     H1 3338   4.290   7.163   9.580
 1032WAT     H2 3339   4.412   7.127   9.682
 1033WAT      O 3340   3.965   9.521   4.061
 1033WAT     H1 3341   3.983   9.589   3.990
 1033WAT     H2 3342   3.968   9.566   4.151
 1034WAT      O 3343   0.951   9.223   8.204
 1034WAT     H1 3344   1.031   9.280   8.227
 1034WAT     H2 3345   0.975   9.161   8.130
 1035WAT      O 3346   4.500   4.486   3.679
 1035WAT     H1 3347   4.453   4.432   3.749
 1035WAT     H2 3348   4.595   4.502   3.707
 1036WAT      O 3349   9.053   3.588   3.326
 1036WAT     H1 3350   9.023   3.647   3.401
 1036WAT     H2 3351   9.035   3.493   3.350
 1037WAT      O 3352   9.578   5.401   2.434
 1037WAT     H1 3353   9.514   5.471   2.403
 1037WAT     H2 3354   9.653   5.392   2.368
 1038WAT      O 3355   1.970   4.449   7.363
 1038WAT     H1 3356   1.925   4.530   7.324
 1038WAT     H2 3357   1.935   4.432   7.455
 1039WAT      O 3358   3.704   5.891   9.884
 1039WAT     H1 3359   3.786   5.949   9.884
 1039WAT     H2 3360   3.720   5.811   9.941
 1040WAT      O 3361   7.712   4.496   1.953
 1040WAT     H1 3362   7.729   4.590   1.981
 1040WAT     H2 3363   7.714   4.436   2.033
 1041WAT      O 3364   8.282   4.969   6.469
 1041WAT     H1 3365   8.207   5.020   6.427
 1041WAT     H2 3366   8.364   5.025   6.472
 1042WAT      O 3367   9.849   4.274   9.414
 1042WAT     H1 3368   9.810   4.265   9.322
 1042WAT     H2 3369   9.871   4.183   9.449
 1043WAT      O 3370   8.120   5.007   1.548
 1043WAT     H1 3371   8.152   5.102   1.544
 1043WAT     H2 3372   8.029   5.004   1.591
 1044WAT      O 3373   6.463   7.076   2.401
 1044WAT     H1 3374   6.554   7.038   2.384
 1044WAT     H2 3375   6.465   7.134   2.482
 1045WAT      O 3376   7.201   8.529   2.766
 1045WAT     H1 3377   7.225   8.432   2.767
 1045WAT     H2 3378   7.215   8.566   2.675
 1046WAT      O 3379   2.649   1.999   1.470
 1046WAT     H1 3380   2.596   2.060   1.411
 1046WAT     H2 3381   2.604   1.910   1.477
 1047WAT      O 3382   2.598   2.740   0.027
 1047WAT     H1 3383   2.673   2.705   0.082
 1047WAT     H2 3384   2.619   2.832  -0.005
 1048WAT      O 3385   7.906   5.995   9.837
 1048WAT     H1 3386   7.976   5.924   9.829
 1048WAT     H2 3387   7.843   5.989   9.761
 1049WAT      O 3388   6.709   8.985   4.704
 1049WAT     H1 3389   6.687   8.980   4.801
 1049WAT     H2 3390   6.634   9.030   4.655
 1050WAT      O 3391   2.153   6.661   2.194
 1050WAT     H1 3392   2.076   6.616   2.239
 1050WAT     H2 3393   2.129   6.679   2.098
 1051WAT      O 3394   9.001   2.933   6.201
 1051WAT     H1 3395   9.067   2.982   6.145
 1051WAT     H2 3396   9.049   2.871   6.263
 1052WAT      O 3397   2.909   6.313   9.846
 1052WAT     H1 3398   2.943   6.236   9.900
 1052WAT     H2 3399   2.819   6.292   9.808
 1053WAT      O 3400   7.986   6.640   2.192
 1053WAT     H1 3401   8.034   6.718   2.234
 1053WAT     H2 3402   8.041   6.558   2.204
 1054WAT      O 3403   9.778   1.804   2.168
 1054WAT     H1 3404   9.865   1.829   2.124
 1054WAT     H2 3405   9.703   1.814   2.103
 1055WAT      O 3406   0.047   1.258   4.748
 1055WAT     H1 3407   0.103   1.340   4.760
 1055WAT     H2 3408   0.021   1.250   4.651
 1056WAT      O 3409   7.232   8.242   8.519
 1056WAT     H1 3410   7.203   8.195   8.436
 1056WAT     H2 3411   7.207   8.188   8.599
 1057WAT      O 3412   4.907   4.677   2.267
 1057WAT     H1 3413   4.872   4.642   2.180
 1057WAT     H2 3414   4.998   4.639   2.285
 1058WAT      O 3415   2.246   1.217   0.220
 1058WAT     H1 3416   2.287   1.262   0.299
 1058WAT     H2 3417   2.302   1.234   0.138
 1059WAT      O 3418   9.707   5.331   9.277
 1059WAT     H1 3419   9.750   5.385   9.204
 1059WAT     H2 3420   9.775   5.269   9.316
 1060WAT      O 3421   6.526   0.277   0.353
 1060WAT     H1 3422   6.441   0.260   0.403
 1060WAT     H2 3423   6.505   0.309   0.261
 1061WAT      O 3424   3.590   1.280   4.377
 1061WAT     H1 3425   3.540   1.207   4.423
 1061WAT     H2 3426   3.597   1.259   4.280
 1062WAT      O 3427   3.413   2.135   2.023
 1062WAT     H1 3428   3.355   2.217   2.023
 1062WAT     H2 3429   3.498   2.155   1.975
 1063WAT      O 3430   4.894   2.226   0.950
 1063WAT     H1 3431   4.989   2.215   0.978
 1063WAT     H2 3432   4.833   2.203   1.026
 1064WAT      O 3433   3.059   8.376   0.195
 1064WAT     H1 3434   3.059   8.441   0.271
 1064WAT     H2 3435   2.964   8.352   0.173
 1065WAT      O 3436   0.956   1.859   3.342
 1065WAT     H1 3437   0.903   1.857   3.427
 1065WAT     H2 3438   0.894   1.865   3.264
 1066WAT      O 3439   0.164   3.726   0.571
 1066WAT     H1 3440   0.121   3.816   0.573
 1066WAT     H2 3441   0.228   3.721   0.494
 1067WAT      O 3442   6.110   8.658   8.756
 1067WAT     H1 3443   6.200   8.687   8.790
 1067WAT     H2 3444   6.110   8.559   8.742
 1068WAT      O 3445   4.126   1.261   3.007
 1068WAT     H1 3446   4.208   1.313   2.984
 1068WAT     H2 3447   4.102   1.202   2.929
 1069WAT      O 3448   0.737   2.845   2.403
 1069WAT     H1 3449   0.662   2.799   2.355
 1069WAT     H2 3450   0.799   2.887   2.336
 1070WAT      O 3451   2.724   7.993   7.044
 1070WAT     H1 3452   2.808   7.955   7.083
 1070WAT     H2 3453   2.747   8.065   6.979
 1071WAT      O 3454   8.631   5.985   7.718
 1071WAT     H1 3455   8.702   5.973   7.649
 1071WAT     H2 3456   8.568   6.058   7.689
 1072WAT      O 3457   3.322   6.083   6.169
 1072WAT     H1 3458   3.378   6.113   6.091
 1072WAT     H2 3459   3.367   6.006   6.214
 1073WAT      O 3460   9.335   9.325   7.068
 1073WAT     H1 3461   9.388   9.349   7.149
 1073WAT     H2 3462   9.345   9.227   7.050
 1074WAT      O 3463   6.390   2.746   0.268
 1074WAT     H1 3464   6.407   2.796   0.183
 1074WAT     H2 3465   6.308   2.689   0.257
 1075WAT      O 3466   3.916   8.280   7.939
 1075WAT     H1 3467   3.852   8.223   7.992
 1075WAT     H2 3468   3.962   8.223   7.872
 1076WAT      O 3469   2.169   7.249   5.013
 1076WAT     H1 3470   2.076   7.211   5.015
 1076WAT     H2 3471   2.175   7.316   4.939
 1077WAT      O 3472   7.348   0.172   2.808
 1077WAT     H1 3473   7.407   0.209   2.737
 1077WAT     H2 3474   7.403   0.141   2.886
 1078WAT      O 3475   7.785   5.377   4.485
 1078WAT     H1 3476   7.829   5.432   4.414
 1078WAT     H2 3477   7.724   5.310   4.443
 1079WAT      O 3478   6.769   4.443   7.050
 1079WAT     H1 3479   6.749   4.384   7.129
 1079WAT     H2 3480   6.699   4.514   7.043
 1080WAT      O 3481   5.861   2.536   9.227
 1080WAT     H1 3482   5.812   2.523   9.314
 1080WAT     H2 3483   5.957   2.509   9.239
 1081WAT      O 3484   1.380   1.214   0.715
 1081WAT     H1 3485   1.292   1.225   0.670
 1081WAT     H2 3486   1.373   1.245   0.810
 1082WAT      O 3487   9.338   1.172   5.857
 1082WAT     H1 3488   9.243   1.202   5.864
 1082WAT     H2 3489   9.385   1.227   5.787
 1083WAT      O 3490   0.027   6.728   5.073
 1083WAT     H1 3491   0.070   6.766   4.991
 1083WAT     H2 3492   0.027   6.628   5.069
 1084WAT      O 3493   3.028   6.678   5.909
 1084WAT     H1 3494   2.993   6.586   5.927
 1084WAT     H2 3495   3.075   6.713   5.990
 1085WAT      O 3496   2.693   1.139   4.379
 1085WAT     H1 3497   2.778   1.121   4.331
 1085WAT     H2 3498   2.616   1.109   4.323
 1086WAT      O 3499   8.577   2.096   8.928
 1086WAT     H1 3500   8.640   2.022   8.953
 1086WAT     H2 3501   8.538   2.136   9.011
 1087WAT      O 3502   1.248   5.974   0.729
 1087WAT     H1 3503   1.274   6.070   0.737
 1087WAT     H2 3504   1.321   5.916   0.766
 1088WAT      O 3505   2.558   0.048   3.244
 1088WAT     H1 3506   2.650   0.026   3.275
 1088WAT     H2 3507   2.492  -0.013   3.289
 1089WAT      O 3508   6.131   9.117   4.913
 1089WAT     H1 3509   6.108   9.032   4.960
 1089WAT     H2 3510   6.230   9.123   4.902
 1090WAT      O 3511   8.431   4.130   0.543
 1090WAT     H1 3512   8.413   4.055   0.479
 1090WAT     H2 3513   8.528   4.156   0.537
 1091WAT      O 3514   7.736   3.379   9.432
 1091WAT     H1 3515   7.690   3.336   9.355
 1091WAT     H2 3516   7.825   3.334   9.448
 1092WAT      O 3517   2.542   7.009   0.660
 1092WAT     H1 3518   2.526   6.935   0.593
 1092WAT     H2 3519   2.591   7.084   0.615
 1093WAT      O 3520   3.713   5.511   1.354
 1093WAT     H1 3521   3.659   5.495   1.437
 1093WAT     H2 3522   3.658   5.562   1.288
 1094WAT      O 3523   1.772   5.453   7.211
 1094WAT     H1 3524   1.866   5.421   7.222
 1094WAT     H2 3525   1.714   5.411   7.280
 1095WAT      O 3526   6.269   9.605   6.180
 1095WAT     H1 3527   6.232   9.569   6.094
 1095WAT     H2 3528   6.195   9.620   6.244
 1096WAT      O 3529   0.579   6.886   4.218
 1096WAT     H1 3530   0.664   6.862   4.172
 1096WAT     H2 3531   0.589   6.977   4.259
 1097WAT      O 3532   2.487   2.338   7.916
 1097WAT     H1 3533   2.481   2.285   8.000
 1097WAT     H2 3534   2.404   2.325   7.862
 1098WAT      O 3535   3.314   1.326   1.605
 1098WAT     H1 3536   3.307   1.425   1.603
 1098WAT     H2 3537   3.398   1.297   1.558
 1099WAT      O 3538   3.198   1.683   3.839
 1099WAT     H1 3539   3.280   1.707   3.890
 1099WAT     H2 3540   3.160   1.766   3.798
 1100WAT      O 3541   0.666   5.138   2.411
 1100WAT     H1 3542   0.648   5.236   2.421
 1100WAT     H2 3543   0.590   5.086   2.448
 1101WAT      O 3544   1.497   9.144   2.854
 1101WAT     H1 3545   1.596   9.132   2.858
 1101WAT     H2 3546   1.458   9.075   2.792
 1102WAT      O 3547   1.621   9.126   6.434
 1102WAT     H1 3548   1.602   9.029   6.448
 1102WAT     H2 3549   1.569   9.180   6.500
 1103WAT      O 3550   7.102   1.011   9.066
 1103WAT     H1 3551   7.053   1.057   8.992
 1103WAT     H2 3552   7.151   1.079   9.120
 1104WAT      O 3553   8.059   0.906   1.571
 1104WAT     H1 3554   8.059   0.997   1.530
 1104WAT     H2 3555   7.972   0.892   1.620
 1105WAT      O 3556   6.327   1.422   1.847
 1105WAT     H1 3557   6.336   1.511   1.894
 1105WAT     H2 3558   6.414   1.374   1.852
 1106WAT      O 3559   7.413   8.081   5.290
 1106WAT     H1 3560   7.354   8.002   5.272
 1106WAT     H2 3561   7.477   8.058   5.364
 1107WAT      O 3562   0.978   4.568   4.191
 1107WAT     H1 3563   0.921   4.644   4.223
 1107WAT     H2 3564   1.031   4.532   4.268
 1108WAT      O 3565   5.573   9.291   5.794
 1108WAT     H1 3566   5.620   9.222   5.739
 1108WAT     H2 3567   5.477   9.294   5.769
 1109WAT      O 3568   3.319   9.848   8.496
 1109WAT     H1 3569   3.332   9.764   8.444
 1109WAT     H2 3570   3.232   9.845   8.545
 1110WAT      O 3571   0.805   7.540   8.893
 1110WAT     H1 3572   0.819   7.638   8.888
 1110WAT     H2 3573   0.709   7.521   8.916
 1111WAT      O 3574   9.505   9.643   8.522
 1111WAT     H1 3575   9.488   9.571   8.589
 1111WAT     H2 3576   9.544   9.723   8.568
 1112WAT      O 3577   6.130   1.413   6.301
 1112WAT     H1 3578   6.220   1.375   6.325
 1112WAT     H2 3579   6.139   1.511   6.282
 1113WAT      O 3580   7.865   8.501   4.861
 1113WAT     H1 3581   7.904   8.562   4.792
 1113WAT     H2 3582   7.919   8.418   4.866
 1114WAT      O 3583   5.868   8.185   4.741
 1114WAT     H1 3584   5.833   8.278   4.741
 1114WAT     H2 3585   5.957   8.182   4.694
 1115WAT      O 3586   4.597   2.968   7.145
 1115WAT     H1 3587   4.503   2.970   7.110
 1115WAT     H2 3588   4.600   2.913   7.228
 1116WAT      O 3589   9.285   1.051   1.238
 1116WAT     H1 3590   9.314   0.976   1.177
 1116WAT     H2 3591   9.198   1.027   1.281
 1117WAT      O 3592   4.576   9.540   0.826
 1117WAT     H1 3593   4.490   9.568   0.784
 1117WAT     H2 3594   4.561   9.523   0.924
 1118WAT      O 3595   3.482   2.234   5.598
 1118WAT     H1 3596   3.572   2.189   5.604
 1118WAT     H2 3597   3.436   2.206   5.515
 1119WAT      O 3598   5.809   3.119   5.048
 1119WAT     H1 3599   5.837   3.159   5.135
 1119WAT     H2 3600   5.802   3.020   5.057
 1120WAT      O 3601   3.794   9.679   1.129
 1120WAT     H1 3602   3.759   9.627   1.050
 1120WAT     H2 3603   3.718   9.703   1.189
 1121WAT      O 3604   8.508   9.439   7.014
 1121WAT     H1 3605   8.457   9.511   6.968
 1121WAT     H2 3606   8.461   9.352   7.002
 1122WAT      O 3607   7.774   4.153   8.422
 1122WAT     H1 3608   7.831   4.228   8.388
 1122WAT     H2 3609   7.819   4.066   8.401
 1123WAT      O 3610   4.981   6.583   1.827
 1123WAT     H1 3611   4.940   6.493   1.844
 1123WAT     H2 3612   4.934   6.626   1.749
 1124WAT      O 3613   7.482   8.801   1.549
 1124WAT     H1 3614   7.412   8.852   1.498
 1124WAT     H2 3615   7.492   8.710   1.509
 1125WAT      O 3616   2.366   0.842   2.443
 1125WAT     H1 3617   2.301   0.911   2.411
 1125WAT     H2 3618   2.399   0.788   2.366
 1126WAT      O 3619   6.328   8.629   3.946
 1126WAT     H1 3620   6.257   8.647   4.014
 1126WAT     H2 3621   6.307   8.679   3.862
 1127WAT      O 3622   8.834   6.320   0.813
 1127WAT     H1 3623   8.868   6.253   0.747
 1127WAT     H2 3624   8.759   6.372   0.773
 1128WAT      O 3625   2.153   1.642   5.249
 1128WAT     H1 3626   2.085   1.580   5.209
 1128WAT     H2 3627   2.132   1.736   5.223
 1129WAT      O 3628   8.491   2.371   5.959
 1129WAT     H1 3629   8.464   2.423   6.040
 1129WAT     H2 3630   8.431   2.291   5.949
 1130WAT      O 3631   8.826   2.407   0.216
 1130WAT     H1 3632   8.744   2.461   0.200
 1130WAT     H2 3633   8.848   2.354   0.133
 1131WAT      O 3634   8.116   7.348   3.499
 1131WAT     H1 3635   8.138   7.251   3.504
 1131WAT     H2 3636   8.055   7.372   3.575
 1132WAT      O 3637   7.502   0.869   1.417
 1132WAT     H1 3638   7.600   0.890   1.417
 1132WAT     H2 3639   7.457   0.915   1.493
 1133WAT      O 3640   7.340   1.630   5.853
 1133WAT     H1 3641   7.308   1.578   5.932
 1133WAT     H2 3642   7.343   1.727   5.876
 1134WAT      O 3643   4.572   7.975   5.619
 1134WAT     H1 3644   4.624   8.011   5.696
 1134WAT     H2 3645   4.606   7.884   5.596
 1135WAT      O 3646   8.209   9.414   5.118
 1135WAT     H1 3647   8.226   9.386   5.023
 1135WAT     H2 3648   8.286   9.469   5.150
 1136WAT      O 3649   6.346   3.039   5.986
 1136WAT     H1 3650   6.414   2.965   5.985
 1136WAT     H2 3651   6.255   3.000   5.970
 1137WAT      O 3652   2.861   2.952   4.813
 1137WAT     H1 3653   2.814   2.975   4.728
 1137WAT     H2 3654   2.891   3.037   4.858
 1138WAT      O 3655   0.745   7.526   1.779
 1138WAT     H1 3656   0.835   7.570   1.776
 1138WAT     H2 3657   0.750   7.444   1.836
 1139WAT      O 3658   5.594   3.353   2.014
 1139WAT     H1 3659   5.548   3.284   2.070
 1139WAT     H2 3660   5.591   3.441   2.061
 1140WAT      O 3661   0.522   7.212   9.823
 1140WAT     H1 3662   0.561   7.237   9.912
 1140WAT     H2 3663   0.436   7.163   9.838
 1141WAT      O 3664   5.259   2.915   7.453
 1141WAT     H1 3665   5.337   2.933   7.512
 1141WAT     H2 3666   5.190   2.987   7.465
 1142WAT      O 3667   8.703   7.433   6.337
 1142WAT     H1 3668   8.710   7.474   6.246
 1142WAT     H2 3669   8.769   7.358   6.345
 1143WAT      O 3670   8.602   2.759   8.409
 1143WAT     H1 3671   8.646   2.676   8.443
 1143WAT     H2 3672   8.553   2.739   8.325
 1144WAT      O 3673   4.213   4.476   5.100
 1144WAT     H1 3674   4.270   4.556   5.081
 1144WAT     H2 3675   4.184   4.478   5.196
 1145WAT      O 3676   4.787   2.265   8.185
 1145WAT     H1 3677   4.739   2.187   8.225
 1145WAT     H2 3678   4.813   2.244   8.091
 1146WAT      O 3679   3.414   8.036   6.933
 1146WAT     H1 3680   3.509   8.020   6.907
 1146WAT     H2 3681   3.383   8.124   6.897
 1147WAT      O 3682   4.797   8.874   4.086
 1147WAT     H1 3683   4.859   8.841   4.015
 1147WAT     H2 3684   4.796   8.974   4.087
 1148WAT      O 3685   2.628   6.871   3.370
 1148WAT     H1 3686   2.701   6.843   3.432
 1148WAT     H2 3687   2.595   6.791   3.319
 1149WAT      O 3688   9.458   3.704   1.048
 1149WAT     H1 3689   9.493   3.792   1.082
 1149WAT     H2 3690   9.375   3.680   1.097
 1150WAT      O 3691   0.038   9.078   2.563
 1150WAT     H1 3692  -0.052   9.063   2.603
 1150WAT     H2 3693   0.055   9.008   2.494
 1151WAT      O 3694   9.051   1.680   1.254
 1151WAT     H1 3695   9.002   1.760   1.219
 1151WAT     H2 3696   9.094   1.631   1.177
 1152WAT      O 3697   4.242   4.530   0.555
 1152WAT     H1 3698   4.330   4.567   0.587
 1152WAT     H2 3699   4.240   4.529   0.455
 1153WAT      O 3700   4.805   3.314   5.665
 1153WAT     H1 3701   4.881   3.254   5.693
 1153WAT     H2 3702   4.841   3.390   5.611
 1154WAT      O 3703   7.031   7.210   3.808
 1154WAT     H1 3704   6.977   7.211   3.724
 1154WAT     H2 3705   7.045   7.115   3.837
 1155WAT      O 3706   3.871   0.225   5.619
 1155WAT     H1 3707   3.938   0.292   5.651
 1155WAT     H2 3708   3.837   0.252   5.528
 1156WAT      O 3709   7.476   5.139   1.011
 1156WAT     H1 3710   7.410   5.157   1.084
 1156WAT     H2 3711   7.435   5.159   0.922
 1157WAT      O 3712   7.194   1.186   1.007
 1157WAT     H1 3713   7.121   1.157   1.069
 1157WAT     H2 3714   7.197   1.127   0.927
 1158WAT      O 3715   9.412   7.720   6.098
 1158WAT     H1 3716   9.442   7.626   6.083
 1158WAT     H2 3717   9.473   7.764   6.164
 1159WAT      O 3718   4.617   3.286   7.401
 1159WAT     H1 3719   4.621   3.292   7.301
 1159WAT     H2 3720   4.671   3.360   7.441
 1160WAT      O 3721   9.690   0.445   9.623
 1160WAT     H1 3722   9.701   0.538   9.659
 1160WAT     H2 3723   9.733   0.380   9.686
 1161WAT      O 3724   9.683   6.641   6.516
 1161WAT     H1 3725   9.758   6.618   6.578
 1161WAT     H2 3726   9.622   6.562   6.507
 1162WAT      O 3727   8.812   1.150   0.522
 1162WAT     H1 3728   8.900   1.186   0.554
 1162WAT     H2 3729   8.741   1.219   0.534
 1163WAT      O 3730   2.011   7.769   5.365
 1163WAT     H1 3731   2.049   7.853   5.325
 1163WAT     H2 3732   2.086   7.705   5.382
 1164WAT      O 3733   9.492   0.487   4.492
 1164WAT     H1 3734   9.484   0.394   4.458
 1164WAT     H2 3735   9.562   0.491   4.563
 1165WAT      O 3736   3.241   3.049   9.153
 1165WAT     H1 3737   3.324   3.098   9.180
 1165WAT     H2 3738   3.225   2.974   9.217
 1166WAT      O 3739   6.468   7.444   8.328
 1166WAT     H1 3740   6.411   7.524   8.349
 1166WAT     H2 3741   6.562   7.474   8.310
 1167WAT      O 3742   3.198   8.135   8.115
 1167WAT     H1 3743   3.231   8.228   8.100
 1167WAT     H2 3744   3.110   8.123   8.068
 1168WAT      O 3745   3.854   5.108   5.490
 1168WAT     H1 3746   3.827   5.118   5.394
 1168WAT     H2 3747   3.790   5.048   5.537
 1169WAT      O 3748   5.443   2.496   1.626
 1169WAT     H1 3749   5.470   2.526   1.535
 1169WAT     H2 3750   5.374   2.559   1.663
 1170WAT      O 3751   3.183   1.812   3.381
 1170WAT     H1 3752   3.138   1.723   3.389
 1170WAT     H2 3753   3.211   1.844   3.471
 1171WAT      O 3754   6.089   5.308   2.160
 1171WAT     H1 3755   6.124   5.232   2.214
 1171WAT     H2 3756   6.047   5.376   2.222
 1172WAT      O 3757   8.350   6.947   3.397
 1172WAT     H1 3758   8.390   6.936   3.306
 1172WAT     H2 3759   8.420   6.979   3.460
 1173WAT      O 3760   4.112   0.178   3.565
 1173WAT     H1 3761   4.050   0.174   3.488
 1173WAT     H2 3762   4.204   0.200   3.533
 1174WAT      O 3763   7.566   7.730   5.715
 1174WAT     H1 3764   7.469   7.705   5.715
 1174WAT     H2 3765   7.614   7.677   5.644
 1175WAT      O 3766   1.132   7.574   8.173
 1175WAT     H1 3767   1.182   7.595   8.258
 1175WAT     H2 3768   1.125   7.657   8.118
 1176WAT      O 3769   4.189   7.874   4.659
 1176WAT     H1 3770   4.262   7.818   4.699
 1176WAT     H2 3771   4.101   7.828   4.673
 1177WAT      O 3772   8.198   4.970   6.863
 1177WAT     H1 3773   8.174   4.929   6.775
 1177WAT     H2 3774   8.161   5.063   6.867
 1178WAT      O 3775   4.478   1.448   7.312
 1178WAT     H1 3776   4.402   1.500   7.272
 1178WAT     H2 3777   4.527   1.400   7.240
 1179WAT      O 3778   9.609   1.833   8.046
 1179WAT     H1 3779   9.537   1.839   7.977
 1179WAT     H2 3780   9.652   1.923   8.058
 1180WAT      O 3781   0.042   5.589   3.377
 1180WAT     H1 3782   0.086   5.572   3.289
 1180WAT     H2 3783   0.018   5.503   3.420
 1181WAT      O 3784   1.173   2.014   3.508
 1181WAT     H1 3785   1.261   2.061   3.497
 1181WAT     H2 3786   1.153   1.961   3.426
 1182WAT      O 3787   5.878   5.190   1.640
 1182WAT     H1 3788   5.904   5.282   1.669
 1182WAT     H2 3789   5.950   5.150   1.584
 1183WAT      O 3790   3.295   7.914   5.032
 1183WAT     H1 3791   3.219   7.913   4.968
 1183WAT     H2 3792   3.281   7.843   5.101
 1184WAT      O 3793   5.291   0.923   1.456
 1184WAT     H1 3794   5.272   1.010   1.411
 1184WAT     H2 3795   5.221   0.905   1.525
 1185WAT      O 3796   6.075   2.581   6.072
 1185WAT     H1 3797   5.988   2.590   6.025
 1185WAT     H2 3798   6.131   2.511   6.027
 1186WAT      O 3799   6.229   4.845   4.055
 1186WAT     H1 3800   6.140   4.869   4.016
 1186WAT     H2 3801   6.229   4.863   4.153
 1187WAT      O 3802   8.388   0.257   6.248
 1187WAT     H1 3803   8.442   0.223   6.325
 1187WAT     H2 3804   8.357   0.180   6.192
 1188WAT      O 3805   4.790   2.901   8.803
 1188WAT     H1 3806   4.765   2.997   8.810
 1188WAT     H2 3807   4.736   2.847   8.867
 1189WAT      O 3808   4.640   0.277   8.507
 1189WAT     H1 3809   4.630   0.327   8.421
 1189WAT     H2 3810   4.592   0.326   8.580
 1190WAT      O 3811   5.695   4.746   7.272
 1190WAT     H1 3812   5.726   4.708   7.359
 1190WAT     H2 3813   5.645   4.831   7.288
 1191WAT      O 3814   5.315   0.628   2.602
 1191WAT     H1 3815   5.387   0.566   2.572
 1191WAT     H2 3816   5.234   0.616   2.544
 1192WAT      O 3817   6.605   9.761   8.520
 1192WAT     H1 3818   6.703   9.784   8.524
 1192WAT     H2 3819   6.572   9.740   8.612
 1193WAT      O 3820   8.381   0.556   9.342
 1193WAT     H1 3821   8.440   0.597   9.412
 1193WAT     H2 3822   8.300   0.516   9.386
 1194WAT      O 3823   9.393   7.122   1.538
 1194WAT     H1 3824   9.426   7.043   1.589
 1194WAT     H2 3825   9.368   7.195   1.601
 1195WAT      O 3826   3.475   1.426   2.026
 1195WAT     H1 3827   3.382   1.456   2.046
 1195WAT     H2 3828   3.540   1.480   2.080
 1196WAT      O 3829   6.974   5.316   4.375
 1196WAT     H1 3830   6.903   5.249   4.394
 1196WAT     H2 3831   6.938   5.387   4.314
 1197WAT      O 3832   9.001   9.370   9.077
 1197WAT     H1 3833   8.966   9.306   9.146
 1197WAT     H2 3834   9.039   9.318   9.000
 1198WAT      O 3835   8.239   7.672   4.821
 1198WAT     H1 3836   8.300   7.751   4.817
 1198WAT     H2 3837   8.291   7.588   4.805
 1199WAT      O 3838   9.274   6.804   0.993
 1199WAT     H1 3839   9.298   6.753   0.910
 1199WAT     H2 3840   9.228   6.744   1.058
 1200WAT      O 3841   3.698   1.064   0.320
 1200WAT     H1 3842   3.765   1.098   0.254
 1200WAT     H2 3843   3.632   1.136   0.340
 1201WAT      O 3844   7.926   6.341   1.384
 1201WAT     H1 3845   7.996   6.382   1.326
 1201WAT     H2 3846   7.841   6.392   1.375
 1202WAT      O 3847   1.689   2.702   8.897
 1202WAT     H1 3848   1.647   2.750   8.820
 1202WAT     H2 3849   1.766   2.754   8.932
 1203WAT      O 3850   9.539   5.076   7.310
 1203WAT     H1 3851   9.574   5.160   7.352
 1203WAT     H2 3852   9.616   5.017   7.284
 1204WAT      O 3853   9.731   1.780   2.866
 1204WAT     H1 3854   9.718   1.810   2.772
 1204WAT     H2 3855   9.658   1.716   2.892
 1205WAT      O 3856   1.892   8.191   9.234
 1205WAT     H1 3857   1.817   8.228   9.288
 1205WAT     H2 3858   1.864   8.182   9.139
 1206WAT      O 3859   9.626   3.374   3.389
 1206WAT     H1 3860   9.603   3.344   3.296
 1206WAT     H2 3861   9.650   3.295   3.444
 1207WAT      O 3862   5.841   6.424   3.712
 1207WAT     H1 3863   5.772   6.422   3.641
 1207WAT     H2 3864   5.920   6.370   3.684
 1208WAT      O 3865   9.658   8.410   5.506
 1208WAT     H1 3866   9.666   8.507   5.482
 1208WAT     H2 3867   9.564   8.389   5.530
 1209WAT      O 3868   3.178   7.464   9.176
 1209WAT     H1 3869   3.102   7.436   9.117
 1209WAT     H2 3870   3.167   7.423   9.266
 1210WAT      O 3871   5.322   3.750   9.764
 1210WAT     H1 3872   5.340   3.830   9.705
 1210WAT     H2 3873   5.399   3.686   9.757
 1211WAT      O 3874   8.721   2.640   5.690
 1211WAT     H1 3875   8.740   2.547   5.721
 1211WAT     H2 3876   8.647   2.679   5.744
 1212WAT      O 3877   3.040   1.738   9.530
 1212WAT     H1 3878   3.032   1.688   9.616
 1212WAT     H2 3879   2.975   1.814   9.530
 1213WAT      O 3880   1.956   6.803   8.591
 1213WAT     H1 3881   2.040   6.759   8.624
 1213WAT     H2 3882   1.977   6.892   8.553
 1214WAT      O 3883   0.861   6.620   3.201
 1214WAT     H1 3884   0.894   6.530   3.231
 1214WAT     H2 3885   0.804   6.609   3.119
 1215WAT      O 3886   7.109   2.584   8.469
 1215WAT     H1 3887   7.203   2.586   8.503
 1215WAT     H2 3888   7.103   2.529   8.386
 1216WAT      O 3889   6.296   1.577   3.631
 1216WAT     H1 3890   6.229   1.651   3.635
 1216WAT     H2 3891   6.325   1.564   3.536
 1217WAT      O 3892   1.115   9.747   2.265
 1217WAT     H1 3893   1.210   9.727   2.242
 1217WAT     H2 3894   1.071   9.664   2.299
 1218WAT      O 3895   0.397   3.368   4.586
 1218WAT     H1 3896   0.470   3.340   4.524
 1218WAT     H2 3897   0.309   3.334   4.552
 1219WAT      O 3898   3.621   6.476   9.227
 1219WAT     H1 3899   3.616   6.425   9.313
 1219WAT     H2 3900   3.551   6.547   9.226
 1220WAT      O 3901   2.161   2.290   8.114
 1220WAT     H1 3902   2.095   2.357   8.080
 1220WAT     H2 3903   2.173   2.218   8.045
 1221WAT      O 3904   3.978   3.981   6.117
 1221WAT     H1 3905   3.916   4.051   6.083
 1221WAT     H2 3906   4.027   3.939   6.040
 1222WAT      O 3907   4.430   6.445   9.418
 1222WAT     H1 3908   4.504   6.501   9.379
 1222WAT     H2 3909   4.384   6.496   9.490
 1223WAT      O 3910   9.787   5.627   1.017
 1223WAT     H1 3911   9.746   5.716   1.037
 1223WAT     H2 3912   9.816   5.584   1.102
 1224WAT      O 3913   8.455   6.363   2.588
 1224WAT     H1 3914   8.508   6.384   2.670
 1224WAT     H2 3915   8.511   6.382   2.507
 1225WAT      O 3916   2.293   6.437   1.693
 1225WAT     H1 3917   2.287   6.530   1.658
 1225WAT     H2 3918   2.209   6.387   1.671
 1226WAT      O 3919   2.712   5.019   5.794
 1226WAT     H1 3920   2.810   5.023   5.773
 1226WAT     H2 3921   2.685   5.101   5.844
 1227WAT      O 3922   6.248   5.258   7.338
 1227WAT     H1 3923   6.328   5.268   7.279
 1227WAT     H2 3924   6.253   5.326   7.412
 1228WAT      O 3925   2.005   4.548   2.828
 1228WAT     H1 3926   1.924   4.604   2.842
 1228WAT     H2 3927   2.041   4.518   2.916
 1229WAT      O 3928   2.036   1.353   5.991
 1229WAT     H1 3929   1.977   1.309   5.923
 1229WAT     H2 3930   1.979   1.403   6.057
 1230WAT      O 3931   3.942   7.364   2.975
 1230WAT     H1 3932   3.987   7.454   2.971
 1230WAT     H2 3933   3.878   7.363   3.052
 1231WAT      O 3934   1.745   9.717   6.572
 1231WAT     H1 3935   1.750   9.708   6.472
 1231WAT     H2 3936   1.669   9.777   6.597
 1232WAT      O 3937   3.319   2.693   4.695
 1232WAT     H1 3938   3.383   2.625   4.660
 1232WAT     H2 3939   3.331   2.779   4.645
 1233WAT      O 3940   7.664   5.891   2.319
 1233WAT     H1 3941   7.739   5.946   2.358
 1233WAT     H2 3942   7.584   5.897   2.377
 1234WAT      O 3943   5.141   0.108   5.082
 1234WAT     H1 3944   5.106   0.094   5.174
 1234WAT     H2 3945   5.235   0.143   5.087
 1235WAT      O 3946   4.910   0.635   2.661
 1235WAT     H1 3947   4.862   0.571   2.722
 1235WAT     H2 3948   4.860   0.721   2.658
 1236WAT      O 3949   8.330   4.469   8.760
 1236WAT     H1 3950   8.393   4.398   8.730
 1236WAT     H2 3951   8.236   4.435   8.755
 1237WAT      O 3952   2.774   8.227   2.544
 1237WAT     H1 3953   2.782   8.324   2.565
 1237WAT     H2 3954   2.720   8.182   2.615
 1238WAT      O 3955   5.994   4.975   3.988
 1238WAT     H1 3956   5.988   4.953   3.891
 1238WAT     H2 3957   5.998   5.074   3.999
 1239WAT      O 3958   2.844   9.263   9.587
 1239WAT     H1 3959   2.886   9.342   9.632
 1239WAT     H2 3960   2.805   9.291   9.499
 1240WAT      O 3961   9.235   3.334   2.084
 1240WAT     H1 3962   9.227   3.433   2.076
 1240WAT     H2 3963   9.214   3.292   1.995
 1241WAT      O 3964   7.847   0.297   7.323
 1241WAT     H1 3965   7.868   0.201   7.337
 1241WAT     H2 3966   7.919   0.354   7.363
 1242WAT      O 3967   6.982   2.295   2.521
 1242WAT     H1 3968   7.051   2.296   2.593
 1242WAT     H2 3969   6.904   2.352   2.548
 1243WAT      O 3970   3.654   5.684   2.421
 1243WAT     H1 3971   3.590   5.757   2.399
 1243WAT     H2 3972   3.735   5.692   2.363
 1244WAT      O 3973   7.701   5.515   6.963
 1244WAT     H1 3974   7.672   5.538   7.056
 1244WAT     H2 3975   7.640   5.560   6.898
 1245WAT      O 3976   2.990   7.274   4.211
 1245WAT     H1 3977   3.071   7.301   4.159
 1245WAT     H2 3978   2.932   7.354   4.227
 1246WAT      O 3979   2.787   3.028   1.601
 1246WAT     H1 3980   2.840   2.998   1.521
 1246WAT     H2 3981   2.792   3.127   1.610
 1247WAT      O 3982   9.330   4.221   1.082
 1247WAT     H1 3983   9.375   4.219   1.171
 1247WAT     H2 3984   9.263   4.147   1.077
 1248WAT      O 3985   3.251   7.086   5.877
 1248WAT     H1 3986   3.188   7.064   5.803
 1248WAT     H2 3987   3.276   7.002   5.926
 1249WAT      O 3988   0.244   2.867   9.368
 1249WAT     H1 3989   0.298   2.940   9.410
 1249WAT     H2 3990   0.231   2.793   9.433
 1250WAT      O 3991   0.791   3.244   4.713
 1250WAT     H1 3992   0.889   3.255   4.700
 1250WAT     H2 3993   0.773   3.219   4.808
 1251WAT      O 3994   7.735   0.833   7.176
 1251WAT     H1 3995   7.818   0.777   7.173
 1251WAT     H2 3996   7.655   0.773   7.185
 1252WAT      O 3997   8.998   1.018   0.117
 1252WAT     H1 3998   9.093   1.041   0.095
 1252WAT     H2 3999   8.947   1.102   0.135
 1253WAT      O 4000   3.811   4.074   7.664
 1253WAT     H1 4001   3.823   4.173   7.663
 1253WAT     H2 4002   3.890   4.030   7.623
 1254WAT      O 4003   9.624   9.156   4.739
 1254WAT     H1 4004   9.585   9.223   4.802
 1254WAT     H2 4005   9.585   9.066   4.757
 1255WAT      O 4006   9.726   0.683   8.214
 1255WAT     H1 4007   9.812   0.710   8.257
 1255WAT     H2 4008   9.694   0.756   8.155
 1256WAT      O 4009   0.977   3.130   3.501
 1256WAT     H1 4010   0.931   3.217   3.483
 1256WAT     H2 4011   1.002   3.087   3.414
 1257WAT      O 4012   3.713   6.984   6.140
 1257WAT     H1 4013   3.639   7.039   6.100
 1257WAT     H2 4014   3.740   6.912   6.076
 1258WAT      O 4015   3.605   3.380   3.876
 1258WAT     H1 4016   3.576   3.289   3.903
 1258WAT     H2 4017   3.563   3.404   3.789
 1259WAT      O 4018   9.427   1.711   5.825
 1259WAT     H1 4019   9.430   1.715   5.925
 1259WAT     H2 4020   9.474   1.791   5.787
 1260WAT      O 4021   6.063   6.483   2.400
 1260WAT     H1 4022   6.111   6.570   2.410
 1260WAT     H2 4023   6.066   6.454   2.304
 1261WAT      O 4024   5.393   6.159   3.907
 1261WAT     H1 4025   5.398   6.112   3.819
 1261WAT     H2 4026   5.362   6.095   3.977
 1262WAT      O 4027   2.541   9.223   5.151
 1262WAT     H1 4028   2.569   9.127   5.148
 1262WAT     H2 4029   2.550   9.263   5.060
 1263WAT      O 4030   0.238   5.868   2.361
 1263WAT     H1 4031   0.247   5.769   2.368
 1263WAT     H2 4032   0.227   5.894   2.265
 1264WAT      O 4033   4.876   7.602   0.337
 1264WAT     H1 4034   4.838   7.589   0.245
 1264WAT     H2 4035   4.961   7.549   0.346
 1265WAT      O 4036   0.063   0.189   2.643
 1265WAT     H1 4037   0.045   0.095   2.671
 1265WAT     H2 4038   0.161   0.202   2.632
 1266WAT      O 4039   0.258   1.520   3.104
 1266WAT     H1 4040   0.319   1.484   3.034
 1266WAT     H2 4041   0.269   1.619   3.111
 1267WAT      O 4042   1.977   3.399   8.387
 1267WAT     H1 4043   1.997   3.303   8.408
 1267WAT     H2 4044   2.054   3.456   8.413
 1268WAT      O 4045   5.862   3.535   8.474
 1268WAT     H1 4046   5.899   3.547   8.382
 1268WAT     H2 4047   5.935   3.547   8.541
 1269WAT      O 4048   4.143   2.479   2.079
 1269WAT     H1 4049   4.137   2.536   1.997
 1269WAT     H2 4050   4.077   2.510   2.147
 1270WAT      O 4051   0.790   7.331   4.763
 1270WAT     H1 4052   0.876   7.301   4.721
 1270WAT     H2 4053   0.808   7.411   4.820
 1271WAT      O 4054   9.143   3.955   0.491
 1271WAT     H1 4055   9.218   3.893   0.467
 1271WAT     H2 4056   9.157   3.988   0.584
 1272WAT      O 4057   9.263   2.471   8.305
 1272WAT     H1 4058   9.263   2.382   8.258
 1272WAT     H2 4059   9.272   2.544   8.237
 1273WAT      O 4060   2.413   4.056   0.940
 1273WAT     H1 4061   2.410   4.052   0.840
 1273WAT     H2 4062   2.506   4.039   0.972
 1274WAT      O 4063   1.442   8.339   9.538
 1274WAT     H1 4064   1.409   8.386   9.456
 1274WAT     H2 4065   1.371   8.340   9.608
 1275WAT      O 4066   8.232   3.183   2.759
 1275WAT     H1 4067   8.247   3.209   2.663
 1275WAT     H2 4068   8.172   3.250   2.802
 1276WAT      O 4069   5.905   0.120   7.118
 1276WAT     H1 4070   5.946   0.126   7.209
 1276WAT     H2 4071   5.855   0.204   7.098
 1277WAT      O 4072   3.616   4.042   1.039
 1277WAT     H1 4073   3.607   4.090   0.951
 1277WAT     H2 4074   3.526   4.038   1.083
 1278WAT      O 4075   9.089   0.617   2.382
 1278WAT     H1 4076   9.066   0.689   2.316
 1278WAT     H2 4077   9.165   0.562   2.347
 1279WAT      O 4078   9.306   5.186   8.035
 1279WAT     H1 4079   9.255   5.255   7.983
 1279WAT     H2 4080   9.404   5.201   8.023
 1280WAT      O 4081   7.254   1.940   3.204
 1280WAT     H1 4082   7.254   2.016   3.138
 1280WAT     H2 4083   7.161   1.904   3.213
 1281WAT      O 4084   4.286   9.468   7.361
 1281WAT     H1 4085   4.242   9.426   7.440
 1281WAT     H2 4086   4.216   9.505   7.299
 1282WAT      O 4087   7.053   7.608   4.932
 1282WAT     H1 4088   6.971   7.584   4.880
 1282WAT     H2 4089   7.129   7.549   4.906
 1283WAT      O 4090   4.227   3.903   5.114
 1283WAT     H1 4091   4.271   3.957   5.043
 1283WAT     H2 4092   4.286   3.826   5.139
 1284WAT      O 4093   7.702   0.092   1.429
 1284WAT     H1 4094   7.695   0.110   1.331
 1284WAT     H2 4095   7.696  -0.006   1.446
 1285WAT      O 4096   7.346   8.045   7.214
 1285WAT     H1 4097   7.332   7.949   7.237
 1285WAT     H2 4098   7.355   8.054   7.115
 1286WAT      O 4099   7.635   8.902   6.591
 1286WAT     H1 4100   7.546   8.860   6.572
 1286WAT     H2 4101   7.691   8.840   6.644
 1287WAT      O 4102   8.992   5.185   4.931
 1287WAT     H1 4103   9.019   5.234   4.849
 1287WAT     H2 4104   8.938   5.105   4.906
 1288WAT      O 4105   7.637   3.855   3.021
 1288WAT     H1 4106   7.712   3.819   3.076
 1288WAT     H2 4107   7.626   3.952   3.040
 1289WAT      O 4108   0.964   6.485   6.422
 1289WAT     H1 4109   0.937   6.531   6.337
 1289WAT     H2 4110   0.890   6.494   6.489
 1290WAT      O 4111   3.436   4.544   7.809
 1290WAT     H1 4112   3.364   4.568   7.744
 1290WAT     H2 4113   3.395   4.507   7.892
 1291WAT      O 4114   7.174   7.730   0.480
 1291WAT     H1 4115   7.189   7.812   0.425
 1291WAT     H2 4116   7.110   7.751   0.554
 1292WAT      O 4117   7.175   0.571   2.249
 1292WAT     H1 4118   7.112   0.643   2.220
 1292WAT     H2 4119   7.184   0.503   2.177
 1293WAT      O 4120   8.222   6.076   0.105
 1293WAT     H1 4121   8.247   6.083   0.009
 1293WAT     H2 4122   8.132   6.033   0.114
 1294WAT      O 4123   0.311   3.181   5.583
 1294WAT     H1 4124   0.355   3.263   5.547
 1294WAT     H2 4125   0.221   3.205   5.619
 1295WAT      O 4126   4.204   7.882   7.833
 1295WAT     H1 4127   4.158   7.965   7.863
 1295WAT     H2 4128   4.149   7.802   7.858
 1296WAT      O 4129   9.199   1.846   7.212
 1296WAT     H1 4130   9.249   1.932   7.214
 1296WAT     H2 4131   9.181   1.820   7.117
 1297WAT      O 4132   2.947   8.462   5.164
 1297WAT     H1 4133   2.963   8.370   5.200
 1297WAT     H2 4134   2.968   8.463   5.066
 1298WAT      O 4135   3.412   4.222   6.597
 1298WAT     H1 4136   3.459   4.136   6.616
 1298WAT     H2 4137   3.314   4.205   6.583
 1299WAT      O 4138   0.398   8.181   1.643
 1299WAT     H1 4139   0.427   8.248   1.712
 1299WAT     H2 4140   0.447   8.095   1.658
 1300WAT      O 4141   7.642   2.920   8.147
 1300WAT     H1 4142   7.703   2.911   8.069
 1300WAT     H2 4143   7.675   2.994   8.207
 1301WAT      O 4144   5.215   3.578   0.844
 1301WAT     H1 4145   5.313   3.566   0.826
 1301WAT     H2 4146   5.200   3.664   0.891
 1302WAT      O 4147   8.504   5.530   9.333
 1302WAT     H1 4148   8.577   5.495   9.391
 1302WAT     H2 4149   8.468   5.456   9.276
 1303WAT      O 4150   9.154   4.228   5.122
 1303WAT     H1 4151   9.191   4.137   5.141
 1303WAT     H2 4152   9.057   4.220   5.096
 1304WAT      O 4153   2.854   6.896   3.565
 1304WAT     H1 4154   2.791   6.908   3.641
 1304WAT     H2 4155   2.875   6.799   3.553
 1305WAT      O 4156   1.181   0.394   0.850
 1305WAT     H1 4157   1.236   0.350   0.921
 1305WAT     H2 4158   1.086   0.400   0.880
 1306WAT      O 4159   2.770   8.411   8.875
 1306WAT     H1 4160   2.726   8.428   8.963
 1306WAT     H2 4161   2.784   8.313   8.863
 1307WAT      O 4162   2.185   7.252   7.254
 1307WAT     H1 4163   2.150   7.288   7.341
 1307WAT     H2 4164   2.211   7.328   7.194
 1308WAT      O 4165   7.418   8.965   3.965
 1308WAT     H1 4166   7.439   8.871   3.939
 1308WAT     H2 4167   7.476   9.027   3.912
 1309WAT      O 4168   4.557   6.717   1.114
 1309WAT     H1 4169   4.500   6.712   1.195
 1309WAT     H2 4170   4.500   6.739   1.034
 1310WAT      O 4171   0.106   4.478   5.833
 1310WAT     H1 4172   0.154   4.472   5.745
 1310WAT     H2 4173   0.037   4.550   5.827
 1311WAT      O 4174   1.788   2.501   6.179
 1311WAT     H1 4175   1.742   2.536   6.097
 1311WAT     H2 4176   1.763   2.405   6.193
 1312WAT      O 4177   5.260   4.339   1.106
 1312WAT     H1 4178   5.344   4.390   1.093
 1312WAT     H2 4179   5.181   4.400   1.095
 1313WAT      O 4180   5.355   5.357   6.425
 1313WAT     H1 4181   5.261   5.385   6.405
 1313WAT     H2 4182   5.413   5.377   6.346
 1314WAT      O 4183   9.120   3.065   5.999
 1314WAT     H1 4184   9.171   3.002   5.941
 1314WAT     H2 4185   9.113   3.154   5.954
 1315WAT      O 4186   5.592   4.400   1.617
 1315WAT     H1 4187   5.681   4.355   1.622
 1315WAT     H2 4188   5.603   4.498   1.630
 1316WAT      O 4189   6.035   1.243   2.743
 1316WAT     H1 4190   6.113   1.188   2.773
 1316WAT     H2 4191   5.989   1.197   2.667
 1317WAT      O 4192   7.468   6.718   8.185
 1317WAT     H1 4193   7.500   6.795   8.130
 1317WAT     H2 4194   7.380   6.741   8.226
 1318WAT      O 4195   3.306   7.648   2.941
 1318WAT     H1 4196   3.394   7.694   2.936
 1318WAT     H2 4197   3.299   7.581   2.867
 1319WAT      O 4198   2.626   5.298   8.967
 1319WAT     H1 4199   2.621   5.248   8.880
 1319WAT     H2 4200   2.603   5.236   9.042
 1320WAT      O 4201   4.261   8.007   5.623
 1320WAT     H1 4202   4.229   8.102   5.617
 1320WAT     H2 4203   4.356   8.007   5.653
 1321WAT      O 4204   0.213   7.281   8.088
 1321WAT     H1 4205   0.230   7.326   8.175
 1321WAT     H2 4206   0.115   7.271   8.074
 1322WAT      O 4207   8.134   8.951   0.695
 1322WAT     H1 4208   8.232   8.963   0.678
 1322WAT     H2 4209   8.092   9.040   0.715
 1323WAT      O 4210   0.410   7.803   8.587
 1323WAT     H1 4211   0.322   7.815   8.632
 1323WAT     H2 4212   0.437   7.889   8.544
 1324WAT      O 4213   6.858   0.894   8.471
 1324WAT     H1 4214   6.938   0.896   8.411
 1324WAT     H2 4215   6.793   0.965   8.444
 1325WAT      O 4216   3.617   0.393   4.045
 1325WAT     H1 4217   3.708   0.375   4.007
 1325WAT     H2 4218   3.605   0.492   4.056
 1326WAT      O 4219   8.599   9.376   7.259
 1326WAT     H1 4220   8.516   9.395   7.313
 1326WAT     H2 4221   8.585   9.406   7.165
 1327WAT      O 4222   2.351   8.371   9.161
 1327WAT     H1 4223   2.416   8.434   9.204
 1327WAT     H2 4224   2.354   8.284   9.210
 1328WAT      O 4225   1.762   7.199   9.226
 1328WAT     H1 4226   1.769   7.264   9.151
 1328WAT     H2 4227   1.694   7.231   9.292
 1329WAT      O 4228   1.752   1.476   3.754
 1329WAT     H1 4229   1.712   1.397   3.708
 1329WAT     H2 4230   1.714   1.560   3.716
 1330WAT      O 4231   5.398   3.871   5.299
 1330WAT     H1 4232   5.486   3.835   5.267
 1330WAT     H2 4233   5.325   3.835   5.241
 1331WAT      O 4234   9.569   5.250   0.318
 1331WAT     H1 4235   9.545   5.160   0.355
 1331WAT     H2 4236   9.531   5.259   0.225
 1332WAT      O 4237   0.578   8.168   7.045
 1332WAT     H1 4238   0.600   8.262   7.071
 1332WAT     H2 4239   0.655   8.108   7.066
 1333WAT      O 4240   1.006   9.069   0.271
 1333WAT     H1 4241   1.053   9.017   0.343
 1333WAT     H2 4242   1.004   9.166   0.297
 1334WAT      O 4243   1.787   4.477   9.830
 1334WAT     H1 4244   1.800   4.393   9.779
 1334WAT     H2 4245   1.869   4.497   9.883
 1335WAT      O 4246   5.796   2.413   4.825
 1335WAT     H1 4247   5.795   2.466   4.910
 1335WAT     H2 4248   5.873   2.442   4.768
 1336WAT      O 4249   9.450   6.025   9.782
 1336WAT     H1 4250   9.496   6.106   9.745
 1336WAT     H2 4251   9.382   5.992   9.717
 1337WAT      O 4252   5.963   3.057   2.642
 1337WAT     H1 4253   5.988   2.991   2.713
 1337WAT     H2 4254   6.044   3.077   2.587
 1338WAT      O 4255   3.791   3.723   5.407
 1338WAT     H1 4256   3.705   3.744   5.360
 1338WAT     H2 4257   3.864   3.712   5.341
 1339WAT      O 4258   4.727   4.141   7.319
 1339WAT     H1 4259   4.815   4.103   7.346
 1339WAT     H2 4260   4.726   4.154   7.220
 1340WAT      O 4261   8.243   4.759   7.039
 1340WAT     H1 4262   8.226   4.846   6.992
 1340WAT     H2 4263   8.156   4.710   7.049
 1341WAT      O 4264   1.156   6.605   7.954
 1341WAT     H1 4265   1.142   6.703   7.967
 1341WAT     H2 4266   1.237   6.576   8.004
 1342WAT      O 4267   0.248   9.730   5.847
 1342WAT     H1 4268   0.268   9.714   5.944
 1342WAT     H2 4269   0.235   9.643   5.801
 1343WAT      O 4270   1.597   7.097   9.539
 1343WAT     H1 4271   1.518   7.038   9.550
 1343WAT     H2 4272   1.572   7.177   9.484
 1344WAT      O 4273   2.835   1.987   6.664
 1344WAT     H1 4274   2.838   2.068   6.722
 1344WAT     H2 4275   2.927   1.949   6.655
 1345WAT      O 4276   3.017   4.671   3.323
 1345WAT     H1 4277   3.007   4.690   3.421
 1345WAT     H2 4278   3.053   4.751   3.276
 1346WAT      O 4279   5.357   0.525   0.178
 1346WAT     H1 4280   5.314   0.566   0.259
 1346WAT     H2 4281   5.292   0.526   0.102
 1347WAT      O 4282   9.544   9.536   2.751
 1347WAT     H1 4283   9.625   9.542   2.693
 1347WAT     H2 4284   9.511   9.442   2.753
 1348WAT      O 4285   8.744   3.860   4.190
 1348WAT     H1 4286   8.730   3.906   4.277
 1348WAT     H2 4287   8.823   3.900   4.143
 1349WAT      O 4288   4.305   8.654   6.095
 1349WAT     H1 4289   4.232   8.615   6.151
 1349WAT     H2 4290   4.266   8.717   6.028
 1350WAT      O 4291   0.711   0.818   7.374
 1350WAT     H1 4292   0.757   0.906   7.383
 1350WAT     H2 4293   0.761   0.761   7.308
 1351WAT      O 4294   0.371   6.525   6.182
 1351WAT     H1 4295   0.323   6.493   6.263
 1351WAT     H2 4296   0.430   6.602   6.206
 1352WAT      O 4297   1.307   5.697   7.608
 1352WAT     H1 4298   1.405   5.700   7.587
 1352WAT     H2 4299   1.271   5.790   7.611
 1353WAT      O 4300   8.828   8.884   8.775
 1353WAT     H1 4301   8.751   8.903   8.714
 1353WAT     H2 4302   8.796   8.829   8.853
 1354WAT      O 4303   3.165   4.081   3.637
 1354WAT     H1 4304   3.093   4.133   3.589
 1354WAT     H2 4305   3.233   4.145   3.674
 1355WAT      O 4306   3.625   8.480   9.364
 1355WAT     H1 4307   3.577   8.463   9.277
 1355WAT     H2 4308   3.613   8.576   9.390
 1356WAT      O 4309   7.764   1.452   1.033
 1356WAT     H1 4310   7.723   1.378   1.086
 1356WAT     H2 4311   7.781   1.530   1.093
 1357WAT      O 4312   1.528   2.326   0.033
 1357WAT     H1 4313   1.602   2.286  -0.021
 1357WAT     H2 4314   1.527   2.425   0.019
 1358WAT      O 4315   5.737   1.636   3.685
 1358WAT     H1 4316   5.655   1.687   3.661
 1358WAT     H2 4317   5.788   1.685   3.756
 1359WAT      O 4318   7.026   7.335   5.151
 1359WAT     H1 4319   7.119   7.364   5.131
 1359WAT     H2 4320   7.015   7.320   5.249
 1360WAT      O 4321   4.957   7.769   4.765
 1360WAT     H1 4322   4.882   7.719   4.810
 1360WAT     H2 4323   4.924   7.808   4.679
 1361WAT      O 4324   1.427   8.155   5.626
 1361WAT     H1 4325   1.455   8.241   5.583
 1361WAT     H2 4326   1.458   8.078   5.570
 1362WAT      O 4327   8.072   8.377   9.257
 1362WAT     H1 4328   8.172   8.378   9.267
 1362WAT     H2 4329   8.037   8.470   9.265
 1363WAT      O 4330   8.917   7.809   3.792
 1363WAT     H1 4331   8.913   7.739   3.862
 1363WAT     H2 4332   8.917   7.900   3.835
 1364WAT      O 4333   4.653   6.357   6.213
 1364WAT     H1 4334   4.572   6.385   6.162
 1364WAT     H2 4335   4.629   6.345   6.309
 1365WAT      O 4336   1.722   0.221   9.445
 1365WAT     H1 4337   1.797   0.286   9.434
 1365WAT     H2 4338   1.635   0.268   9.433
 1366WAT      O 4339   0.150   9.309   6.900
 1366WAT     H1 4340   0.212   9.238   6.931
 1366WAT     H2 4341   0.151   9.385   6.965
 1367WAT      O 4342   5.876   0.413   0.302
 1367WAT     H1 4343   5.886   0.381   0.207
 1367WAT     H2 4344   5.866   0.334   0.362
 1368WAT      O 4345   7.815   0.139   2.939
 1368WAT     H1 4346   7.884   0.107   2.874
 1368WAT     H2 4347   7.762   0.213   2.898
 1369WAT      O 4348   3.726   3.466   7.763
 1369WAT     H1 4349   3.674   3.511   7.836
 1369WAT     H2 4350   3.664   3.408   7.710
 1370WAT      O 4351   5.663   1.469   8.517
 1370WAT     H1 4352   5.563   1.468   8.515
 1370WAT     H2 4353   5.698   1.441   8.428
 1371WAT      O 4354   7.373   6.551   5.025
 1371WAT     H1 4355   7.353   6.575   5.120
 1371WAT     H2 4356   7.295   6.574   4.968
 1372WAT      O 4357   5.292   9.728   1.577
 1372WAT     H1 4358   5.194   9.716   1.591
 1372WAT     H2 4359   5.314   9.714   1.480
 1373WAT      O 4360   3.282   6.210   9.697
 1373WAT     H1 4361   3.285   6.224   9.598
 1373WAT     H2 4362   3.259   6.296   9.742
 1374WAT      O 4363   4.440   6.299   2.691
 1374WAT     H1 4364   4.476   6.372   2.632
 1374WAT     H2 4365   4.424   6.335   2.783
 1375WAT      O 4366   1.622   0.801   2.690
 1375WAT     H1 4367   1.672   0.844   2.615
 1375WAT     H2 4368   1.610   0.704   2.671
 1376WAT      O 4369   2.001   1.897   7.808
 1376WAT     H1 4370   2.042   1.883   7.718
 1376WAT     H2 4371   2.064   1.864   7.878
 1377WAT      O 4372   0.481   6.474   2.199
 1377WAT     H1 4373   0.577   6.462   2.224
 1377WAT     H2 4374   0.432   6.387   2.210
 1378WAT      O 4375   9.645   0.002   6.211
 1378WAT     H1 4376   9.704   0.075   6.246
 1378WAT     H2 4377   9.563   0.043   6.169
 1379WAT      O 4378   8.306   4.720   6.356
 1379WAT     H1 4379   8.293   4.818   6.369
 1379WAT     H2 4380   8.403   4.697   6.358
 1380WAT      O 4381   1.542   9.408   7.845
 1380WAT     H1 4382   1.579   9.480   7.904
 1380WAT     H2 4383   1.445   9.395   7.864
 1381WAT      O 4384   3.665   4.114   0.191
 1381WAT     H1 4385   3.750   4.072   0.158
 1381WAT     H2 4386   3.672   4.130   0.289
 1382WAT      O 4387   5.168   2.606   8.553
 1382WAT     H1 4388   5.242   2.563   8.502
 1382WAT     H2 4389   5.153   2.556   8.639
 1383WAT      O 4390   5.809   6.674   4.624
 1383WAT     H1 4391   5.711   6.678   4.640
 1383WAT     H2 4392   5.857   6.733   4.690
 1384WAT      O 4393   8.128   5.720   0.243
 1384WAT     H1 4394   8.108   5.811   0.207
 1384WAT     H2 4395   8.044   5.665   0.243
 1385WAT      O 4396   2.655   1.040   1.641
 1385WAT     H1 4397   2.722   0.969   1.617
 1385WAT     H2 4398   2.590   1.050   1.566
 1386WAT      O 4399   5.822   1.781   4.272
 1386WAT     H1 4400   5.792   1.689   4.245
 1386WAT     H2 4401   5.767   1.850   4.224
 1387WAT      O 4402   2.580   7.973   5.597
 1387WAT     H1 4403   2.491   8.019   5.594
 1387WAT     H2 4404   2.602   7.939   5.505
 1388WAT      O 4405   4.695   1.085   9.091
 1388WAT     H1 4406   4.731   0.992   9.105
 1388WAT     H2 4407   4.596   1.085   9.104
 1389WAT      O 4408   0.248   4.962   7.300
 1389WAT     H1 4409   0.231   4.984   7.204
 1389WAT     H2 4410   0.167   4.985   7.355
 1390WAT      O 4411   0.213   2.495   7.622
 1390WAT     H1 4412   0.174   2.514   7.532
 1390WAT     H2 4413   0.257   2.578   7.658
 1391WAT      O 4414   0.478   9.356   5.252
 1391WAT     H1 4415   0.417   9.405   5.190
 1391WAT     H2 4416   0.437   9.268   5.276
 1392WAT      O 4417   7.352   2.545   5.676
 1392WAT     H1 4418   7.336   2.620   5.740
 1392WAT     H2 4419   7.400   2.471   5.723
 1393WAT      O 4420   2.406   0.969   0.336
 1393WAT     H1 4421   2.505   0.955   0.333
 1393WAT     H2 4422   2.387   1.063   0.366
 1394WAT      O 4423   6.402   0.857   8.829
 1394WAT     H1 4424   6.328   0.808   8.875
 1394WAT     H2 4425   6.488   0.842   8.878
 1395WAT      O 4426   6.423   3.136   1.828
 1395WAT     H1 4427   6.471   3.222   1.811
 1395WAT     H2 4428   6.421   3.082   1.744
 1396WAT      O 4429   1.244   5.798   7.172
 1396WAT     H1 4430   1.208   5.746   7.250
 1396WAT     H2 4431   1.260   5.737   7.095
 1397WAT      O 4432   3.583   4.830   9.163
 1397WAT     H1 4433   3.674   4.863   9.188
 1397WAT     H2 4434   3.590   4.737   9.128
 1398WAT      O 4435   0.046   2.830   2.778
 1398WAT     H1 4436   0.125   2.791   2.826
 1398WAT     H2 4437  -0.017   2.757   2.754
 1399WAT      O 4438   2.937   9.233   1.763
 1399WAT     H1 4439   2.910   9.143   1.727
 1399WAT     H2 4440   2.887   9.252   1.847
 1400WAT      O 4441   9.439   1.169   4.369
 1400WAT     H1 4442   9.451   1.268   4.375
 1400WAT     H2 4443   9.396   1.146   4.281
 1401WAT      O 4444   0.425   4.985   4.236
 1401WAT     H1 4445   0.384   5.004   4.325
 1401WAT     H2 4446   0.503   4.924   4.247
 1402WAT      O 4447   1.525   3.370   3.690
 1402WAT     H1 4448   1.480   3.370   3.601
 1402WAT     H2 4449   1.510   3.282   3.735
 1403WAT      O 4450   7.642   0.168   5.851
 1403WAT     H1 4451   7.590   0.149   5.767
 1403WAT     H2 4452   7.606   0.112   5.926
 1404WAT      O 4453   3.071   6.680   2.206
 1404WAT     H1 4454   3.128   6.760   2.185
 1404WAT     H2 4455   3.037   6.640   2.120
 1405WAT      O 4456   7.292   3.276   9.297
 1405WAT     H1 4457   7.221   3.250   9.232
 1405WAT     H2 4458   7.274   3.234   9.385
 1406WAT      O 4459   1.495   7.802   6.964
 1406WAT     H1 4460   1.493   7.824   7.061
 1406WAT     H2 4461   1.424   7.735   6.943
 1407WAT      O 4462   2.921   4.405   5.267
 1407WAT     H1 4463   2.827   4.439   5.261
 1407WAT     H2 4464   2.979   4.456   5.203
 1408WAT      O 4465   1.662   5.128   9.851
 1408WAT     H1 4466   1.688   5.124   9.755
 1408WAT     H2 4467   1.639   5.222   9.876
 1409WAT      O 4468   7.807   2.685   5.445
 1409WAT     H1 4469   7.710   2.710   5.442
 1409WAT     H2 4470   7.852   2.717   5.362
 1410WAT      O 4471   2.748   0.407   7.675
 1410WAT     H1 4472   2.841   0.444   7.675
 1410WAT     H2 4473   2.741   0.334   7.608
 1411WAT      O 4474   5.510   5.843   0.148
 1411WAT     H1 4475   5.419   5.876   0.175
 1411WAT     H2 4476   5.571   5.921   0.135
 1412WAT      O 4477   8.904   1.242   8.910
 1412WAT     H1 4478   8.887   1.313   8.979
 1412WAT     H2 4479   8.905   1.152   8.955
 1413WAT      O 4480   6.068   4.663   4.525
 1413WAT     H1 4481   5.984   4.683   4.474
 1413WAT     H2 4482   6.146   4.664   4.463
 1414WAT      O 4483   1.493   3.604   2.182
 1414WAT     H1 4484   1.517   3.524   2.127
 1414WAT     H2 4485   1.417   3.653   2.139
 1415WAT      O 4486   1.360   5.375   3.219
 1415WAT     H1 4487   1.312   5.401   3.135
 1415WAT     H2 4488   1.343   5.444   3.289
 1416WAT      O 4489   1.341   0.167   7.621
 1416WAT     H1 4490   1.415   0.216   7.575
 1416WAT     H2 4491   1.303   0.224   7.693
 1417WAT      O 4492   1.196   7.828   1.079
 1417WAT     H1 4493   1.240   7.740   1.063
 1417WAT     H2 4494   1.103   7.814   1.110
 1418WAT      O 4495   6.087   6.267   6.430
 1418WAT     H1 4496   6.183   6.293   6.417
 1418WAT     H2 4497   6.063   6.195   6.365
 1419WAT      O 4498   5.860   6.228   1.958
 1419WAT     H1 4499   5.823   6.267   2.042
 1419WAT     H2 4500   5.900   6.139   1.977
 1420WAT      O 4501   3.473   5.839   6.850
 1420WAT     H1 4502   3.478   5.756   6.793
 1420WAT     H2 4503   3.408   5.903   6.809
 1421WAT      O 4504   6.835   2.658   3.006
 1421WAT     H1 4505   6.806   2.715   3.082
 1421WAT     H2 4506   6.792   2.690   2.922
 1422WAT      O 4507   9.013   7.053   5.046
 1422WAT     H1 4508   8.970   7.046   5.136
 1422WAT     H2 4509   8.946   7.027   4.975
 1423WAT      O 4510   4.822   7.649   6.620
 1423WAT     H1 4511   4.749   7.710   6.650
 1423WAT     H2 4512   4.906   7.701   6.607
 1424WAT      O 4513   3.637   7.575   4.720
 1424WAT     H1 4514   3.711   7.600   4.783
 1424WAT     H2 4515   3.559   7.637   4.734
 1425WAT      O 4516   6.723   3.489   4.855
 1425WAT     H1 4517   6.723   3.585   4.826
 1425WAT     H2 4518   6.770   3.481   4.943
 1426WAT      O 4519   4.721   7.279   8.249
 1426WAT     H1 4520   4.705   7.340   8.171
 1426WAT     H2 4521   4.638   7.272   8.303
 1427WAT      O 4522   6.740   2.941   1.189
 1427WAT     H1 4523   6.679   2.968   1.115
 1427WAT     H2 4524   6.785   3.022   1.227
 1428WAT      O 4525   5.794   3.652   7.505
 1428WAT     H1 4526   5.876   3.612   7.545
 1428WAT     H2 4527   5.780   3.743   7.544
 1429WAT      O 4528   5.560   3.001   8.899
 1429WAT     H1 4529   5.478   2.993   8.956
 1429WAT     H2 4530   5.535   2.992   8.803
 1430WAT      O 4531   5.694   2.269   8.385
 1430WAT     H1 4532   5.638   2.256   8.467
 1430WAT     H2 4533   5.656   2.214   8.310
 1431WAT      O 4534   7.923   5.817   6.858
 1431WAT     H1 4535   7.942   5.774   6.770
 1431WAT     H2 4536   7.925   5.748   6.930
 1432WAT      O 4537   7.746   0.732   2.312
 1432WAT     H1 4538   7.803   0.674   2.253
 1432WAT     H2 4539   7.681   0.783   2.256
 1433WAT      O 4540   9.484   0.630   6.784
 1433WAT     H1 4541   9.566   0.584   6.751
 1433WAT     H2 4542   9.505   0.726   6.803
 1434WAT      O 4543   9.301   1.847   6.309
 1434WAT     H1 4544   9.356   1.794   6.374
 1434WAT     H2 4545   9.358   1.876   6.233
 1435WAT      O 4546   2.015   6.563   8.040
 1435WAT     H1 4547   2.009   6.468   8.008
 1435WAT     H2 4548   2.027   6.564   8.139
 1436WAT      O 4549   9.655   8.385   8.983
 1436WAT     H1 4550   9.734   8.349   8.935
 1436WAT     H2 4551   9.596   8.434   8.918
 1437WAT      O 4552   6.331   0.651   7.474
 1437WAT     H1 4553   6.246   0.686   7.515
 1437WAT     H2 4554   6.397   0.726   7.465
 1438WAT      O 4555   8.442   6.382   1.485
 1438WAT     H1 4556   8.453   6.481   1.476
 1438WAT     H2 4557   8.532   6.340   1.500
 1439WAT      O 4558   9.460   6.001   9.344
 1439WAT     H1 4559   9.447   6.088   9.392
 1439WAT     H2 4560   9.373   5.971   9.304
 1440WAT      O 4561   7.103   9.805   6.724
 1440WAT     H1 4562   7.025   9.743   6.729
 1440WAT     H2 4563   7.071   9.900   6.719
 1441WAT      O 4564   7.763   8.479   2.913
 1441WAT     H1 4565   7.773   8.576   2.931
 1441WAT     H2 4566   7.671   8.460   2.878
 1442WAT      O 4567   3.661   8.053   1.294
 1442WAT     H1 4568   3.698   8.060   1.387
 1442WAT     H2 4569   3.735   8.029   1.231
 1443WAT      O 4570   0.037   9.197   8.656
 1443WAT     H1 4571  -0.051   9.150   8.663
 1443WAT     H2 4572   0.098   9.146   8.595
 1444WAT      O 4573   0.576   7.503   5.891
 1444WAT     H1 4574   0.497   7.558   5.919
 1444WAT     H2 4575   0.644   7.501   5.965
 1445WAT      O 4576   8.846   4.255   4.719
 1445WAT     H1 4577   8.761   4.273   4.668
 1445WAT     H2 4578   8.900   4.187   4.669
 1446WAT      O 4579   9.452   3.938   2.065
 1446WAT     H1 4580   9.391   3.864   2.039
 1446WAT     H2 4581   9.482   3.988   1.984
 1447WAT      O 4582   9.249   5.425   6.406
 1447WAT     H1 4583   9.312   5.503   6.400
 1447WAT     H2 4584   9.161   5.450   6.366
 1448WAT      O 4585   2.410   6.818   0.950
 1448WAT     H1 4586   2.506   6.840   0.934
 1448WAT     H2 4587   2.353   6.896   0.927
 1449WAT      O 4588   8.168   0.613   4.246
 1449WAT     H1 4589   8.084   0.660   4.272
 1449WAT     H2 4590   8.222   0.670   4.185
 1450WAT      O 4591   3.390   3.437   5.415
 1450WAT     H1 4592   3.364   3.346   5.383
 1450WAT     H2 4593   3.446   3.429   5.497
 1451WAT      O 4594   3.631   7.613   8.317
 1451WAT     H1 4595   3.546   7.649   8.276
 1451WAT     H2 4596   3.630   7.633   8.416
 1452WAT      O 4597   4.369   5.058   7.341
 1452WAT     H1 4598   4.452   5.080   7.289
 1452WAT     H2 4599   4.294   5.116   7.308
 1453WAT      O 4600   0.366   1.021   7.736
 1453WAT     H1 4601   0.357   0.928   7.772
 1453WAT     H2 4602   0.342   1.087   7.807
 1454WAT      O 4603   3.644   1.509   3.328
 1454WAT     H1 4604   3.685   1.429   3.371
 1454WAT     H2 4605   3.669   1.511   3.231
 1455WAT      O 4606   6.270   7.886   7.454
 1455WAT     H1 4607   6.176   7.897   7.485
 1455WAT     H2 4608   6.289   7.951   7.381
 1456WAT      O 4609   2.685   1.145   9.401
 1456WAT     H1 4610   2.668   1.217   9.334
 1456WAT     H2 4611   2.717   1.184   9.487
 1457WAT      O 4612   7.715   8.181   4.184
 1457WAT     H1 4613   7.774   8.199   4.263
 1457WAT     H2 4614   7.730   8.088   4.151
 1458WAT      O 4615   6.116   1.237   1.820
 1458WAT     H1 4616   6.101   1.226   1.721
 1458WAT     H2 4617   6.193   1.299   1.835
 1459WAT      O 4618   0.511   5.179   0.981
 1459WAT     H1 4619   0.500   5.246   0.906
 1459WAT     H2 4620   0.593   5.201   1.033
 1460WAT      O 4621   2.914   3.515   1.527
 1460WAT     H1 4622   2.842   3.496   1.594
 1460WAT     H2 4623   2.934   3.432   1.475
 1461WAT      O 4624   3.661   7.035   3.202
 1461WAT     H1 4625   3.691   7.023   3.107
 1461WAT     H2 4626   3.602   7.115   3.208
 1462WAT      O 4627   4.206   0.583   1.799
 1462WAT     H1 4628   4.181   0.543   1.888
 1462WAT     H2 4629   4.148   0.663   1.782
 1463WAT      O 4630   9.215   4.807   2.195
 1463WAT     H1 4631   9.271   4.758   2.128
 1463WAT     H2 4632   9.146   4.745   2.232
 1464WAT      O 4633   4.193   7.733   1.726
 1464WAT     H1 4634   4.162   7.730   1.821
 1464WAT     H2 4635   4.293   7.743   1.724
 1465WAT      O 4636   1.344   2.006   0.342
 1465WAT     H1 4637   1.266   1.969   0.291
 1465WAT     H2 4638   1.342   1.971   0.435
 1466WAT      O 4639   2.216   3.410   9.065
 1466WAT     H1 4640   2.251   3.498   9.031
 1466WAT     H2 4641   2.208   3.346   8.989
 1467WAT      O 4642   8.050   1.853   4.437
 1467WAT     H1 4643   7.993   1.773   4.420
 1467WAT     H2 4644   8.108   1.870   4.358
 1468WAT      O 4645   4.138   2.147   9.158
 1468WAT     H1 4646   4.153   2.059   9.203
 1468WAT     H2 4647   4.043   2.175   9.169
 1469WAT      O 4648   0.199   4.707   9.183
 1469WAT     H1 4649   0.251   4.767   9.243
 1469WAT     H2 4650   0.211   4.735   9.088
 1470WAT      O 4651   6.568   6.662   7.584
 1470WAT     H1 4652   6.473   6.662   7.551
 1470WAT     H2 4653   6.611   6.575   7.561
 1471WAT      O 4654   7.903   6.360   6.151
 1471WAT     H1 4655   7.938   6.449   6.181
 1471WAT     H2 4656   7.812   6.345   6.189
 1472WAT      O 4657   3.829   6.004   3.918
 1472WAT     H1 4658   3.841   5.968   3.826
 1472WAT     H2 4659   3.916   6.039   3.952
 1473WAT      O 4660   2.161   5.798   7.687
 1473WAT     H1 4661   2.178   5.761   7.778
 1473WAT     H2 4662   2.099   5.737   7.637
 1474WAT      O 4663   3.334   4.076   8.594
 1474WAT     H1 4664   3.310   4.159   8.644
 1474WAT     H2 4665   3.317   4.089   8.497
 1475WAT      O 4666   7.441   4.032   6.122
 1475WAT     H1 4667   7.402   4.048   6.031
 1475WAT     H2 4668   7.507   3.956   6.116
 1476WAT      O 4669   3.182   1.758   7.941
 1476WAT     H1 4670   3.087   1.769   7.969
 1476WAT     H2 4671   3.226   1.687   7.997
 1477WAT      O 4672   8.518   4.212   1.652
 1477WAT     H1 4673   8.470   4.221   1.739
 1477WAT     H2 4674   8.611   4.180   1.669
 1478WAT      O 4675   7.669   8.267   8.298
 1478WAT     H1 4676   7.649   8.349   8.353
 1478WAT     H2 4677   7.698   8.295   8.207
 1479WAT      O 4678   0.255   6.517   7.742
 1479WAT     H1 4679   0.292   6.554   7.827
 1479WAT     H2 4680   0.256   6.417   7.746
 1480WAT      O 4681   8.754   6.446   1.422
 1480WAT     H1 4682   8.781   6.350   1.411
 1480WAT     H2 4683   8.751   6.469   1.519
 1481WAT      O 4684   7.320   8.372   4.582
 1481WAT     H1 4685   7.324   8.311   4.662
 1481WAT     H2 4686   7.343   8.465   4.609
 1482WAT      O 4687   2.108   4.921   7.182
 1482WAT     H1 4688   2.164   4.921   7.265
 1482WAT     H2 4689   2.101   5.014   7.146
 1483WAT      O 4690   9.606   1.895   4.325
 1483WAT     H1 4691   9.667   1.820   4.350
 1483WAT     H2 4692   9.656   1.982   4.327
 1484WAT      O 4693   5.788   5.407   7.779
 1484WAT     H1 4694   5.740   5.490   7.809
 1484WAT     H2 4695   5.786   5.339   7.852
 1485WAT      O 4696   9.562   4.392   5.257
 1485WAT     H1 4697   9.570   4.492   5.254
 1485WAT     H2 4698   9.468   4.366   5.278
 1486WAT      O 4699   4.452   0.955   2.824
 1486WAT     H1 4700   4.488   0.900   2.749
 1486WAT     H2 4701   4.477   1.051   2.810
 1487WAT      O 4702   9.741   0.293   6.266
 1487WAT     H1 4703   9.812   0.235   6.227
 1487WAT     H2 4704   9.694   0.342   6.193
 1488WAT      O 4705   0.657   0.904   2.802
 1488WAT     H1 4706   0.564   0.878   2.774
 1488WAT     H2 4707   0.652   0.965   2.880
 1489WAT      O 4708   9.504   3.053   3.123
 1489WAT     H1 4709   9.528   3.149   3.112
 1489WAT     H2 4710   9.554   3.015   3.200
 1490WAT      O 4711   7.536   4.467   8.706
 1490WAT     H1 4712   7.492   4.473   8.796
 1490WAT     H2 4713   7.476   4.508   8.637
 1491WAT      O 4714   0.879   2.644   5.198
 1491WAT     H1 4715   0.934   2.722   5.170
 1491WAT     H2 4716   0.806   2.675   5.259
 1492WAT      O 4717   0.108   6.709   7.606
 1492WAT     H1 4718   0.144   6.632   7.657
 1492WAT     H2 4719   0.089   6.785   7.668
 1493WAT      O 4720   0.945   2.813   2.716
 1493WAT     H1 4721   0.875   2.876   2.681
 1493WAT     H2 4722   0.917   2.719   2.697
 1494WAT      O 4723   0.278   0.145   0.459
 1494WAT     H1 4724   0.369   0.115   0.488
 1494WAT     H2 4725   0.222   0.065   0.437
 1495WAT      O 4726   3.928   0.040   3.979
 1495WAT     H1 4727   3.871  -0.028   3.933
 1495WAT     H2 4728   4.024   0.020   3.962
 1496WAT      O 4729   7.508   3.966   7.729
 1496WAT     H1 4730   7.538   3.910   7.805
 1496WAT     H2 4731   7.514   4.063   7.754
 1497WAT      O 4732   2.359   5.308   2.660
 1497WAT     H1 4733   2.347   5.378   2.589
 1497WAT     H2 4734   2.366   5.352   2.749
 1498WAT      O 4735   1.454   2.051   9.748
 1498WAT     H1 4736   1.475   2.127   9.686
 1498WAT     H2 4737   1.414   2.088   9.832
 1499WAT      O 4738   3.601   8.267   8.231
 1499WAT     H1 4739   3.544   8.330   8.178
 1499WAT     H2 4740   3.549   8.233   8.309
 1500WAT      O 4741   7.676   3.537   0.315
 1500WAT     H1 4742   7.630   3.448   0.309
 1500WAT     H2 4743   7.716   3.560   0.226
 1501WAT      O 4744   0.712   2.197   7.376
 1501WAT     H1 4745   0.738   2.177   7.471
 1501WAT     H2 4746   0.794   2.202   7.320
 1502WAT      O 4747   4.677   2.905   6.891
 1502WAT     H1 4748   4.613   2.833   6.866
 1502WAT     H2 4749   4.659   2.934   6.985
 1503WAT      O 4750   2.569   9.204   0.086
 1503WAT     H1 4751   2.601   9.214  -0.009
 1503WAT     H2 4752   2.476   9.166   0.086
 1504WAT      O 4753   7.469   4.074   3.526
 1504WAT     H1 4754   7.434   4.015   3.598
 1504WAT     H2 4755   7.476   4.023   3.440
 1505WAT      O 4756   1.416   3.835   4.590
 1505WAT     H1 4757   1.463   3.797   4.669
 1505WAT     H2 4758   1.401   3.933   4.603
 1506WAT      O 4759   0.592   4.538   8.978
 1506WAT     H1 4760   0.610   4.447   8.941
 1506WAT     H2 4761   0.667   4.565   9.038
 1507WAT      O 4762   8.814   7.415   0.026
 1507WAT     H1 4763   8.780   7.468  -0.051
 1507WAT     H2 4764   8.794   7.463   0.112
 1508WAT      O 4765   6.648   1.973   3.257
 1508WAT     H1 4766   6.648   1.905   3.183
 1508WAT     H2 4767   6.560   2.022   3.256
 1509WAT      O 4768   3.788   8.305   9.845
 1509WAT     H1 4769   3.702   8.356   9.836
 1509WAT     H2 4770   3.768   8.207   9.837
 1510WAT      O 4771   0.511   8.261   5.751
 1510WAT     H1 4772   0.514   8.361   5.742
 1510WAT     H2 4773   0.418   8.233   5.777
 1511WAT      O 4774   3.370   1.936   2.804
 1511WAT     H1 4775   3.425   1.934   2.721
 1511WAT     H2 4776   3.355   1.843   2.837
 1512WAT      O 4777   2.179   6.974   7.241
 1512WAT     H1 4778   2.178   7.074   7.251
 1512WAT     H2 4779   2.126   6.934   7.316
 1513WAT      O 4780   5.411   2.510   8.381
 1513WAT     H1 4781   5.508   2.535   8.376
 1513WAT     H2 4782   5.401   2.412   8.363
 1514WAT      O 4783   6.073   8.679   1.773
 1514WAT     H1 4784   6.074   8.754   1.839
 1514WAT     H2 4785   5.980   8.667   1.738
 1515WAT      O 4786   8.281   4.109   0.068
 1515WAT     H1 4787   8.310   4.166  -0.009
 1515WAT     H2 4788   8.188   4.133   0.094
 1516WAT      O 4789   6.834   5.608   5.589
 1516WAT     H1 4790   6.734   5.604   5.589
 1516WAT     H2 4791   6.863   5.697   5.553
 1517WAT      O 4792   7.821   5.459   7.344
 1517WAT     H1 4793   7.904   5.416   7.309
 1517WAT     H2 4794   7.798   5.419   7.433
 1518WAT      O 4795   6.701   9.666   0.320
 1518WAT     H1 4796   6.738   9.705   0.404
 1518WAT     H2 4797   6.614   9.621   0.339
 1519WAT      O 4798   8.422   2.711   1.906
 1519WAT     H1 4799   8.379   2.767   1.836
 1519WAT     H2 4800   8.485   2.767   1.960
 1520WAT      O 4801   8.573   6.463   2.854
 1520WAT     H1 4802   8.607   6.388   2.911
 1520WAT     H2 4803   8.574   6.548   2.907
 1521WAT      O 4804   1.582   1.945   4.401
 1521WAT     H1 4805   1.627   2.025   4.441
 1521WAT     H2 4806   1.650   1.890   4.352
 1522WAT      O 4807   3.776   0.099   1.895
 1522WAT     H1 4808   3.807   0.007   1.916
 1522WAT     H2 4809   3.843   0.144   1.835
 1523WAT      O 4810   5.048   0.610   4.476
 1523WAT     H1 4811   5.078   0.538   4.539
 1523WAT     H2 4812   5.123   0.633   4.414
 1524WAT      O 4813   4.177   1.083   4.347
 1524WAT     H1 4814   4.195   1.135   4.263
 1524WAT     H2 4815   4.256   1.091   4.408
 1525WAT      O 4816   5.188   3.506   1.972
 1525WAT     H1 4817   5.190   3.424   1.915
 1525WAT     H2 4818   5.140   3.486   2.057
 1526WAT      O 4819   9.142   9.789   4.431
 1526WAT     H1 4820   9.049   9.801   4.396
 1526WAT     H2 4821   9.155   9.694   4.459
 1527WAT      O 4822   3.861   1.245   7.495
 1527WAT     H1 4823   3.889   1.334   7.459
 1527WAT     H2 4824   3.796   1.258   7.570
 1528WAT      O 4825   0.445   2.459   0.803
 1528WAT     H1 4826   0.494   2.418   0.727
 1528WAT     H2 4827   0.509   2.477   0.878
 1529WAT      O 4828   4.557   7.321   9.025
 1529WAT     H1 4829   4.500   7.355   8.950
 1529WAT     H2 4830   4.526   7.229   9.051
 1530WAT      O 4831   5.473   6.524   0.681
 1530WAT     H1 4832   5.567   6.535   0.647
 1530WAT     H2 4833   5.469   6.448   0.745
 1531WAT      O 4834   1.891   6.109   9.156
 1531WAT     H1 4835   1.899   6.200   9.195
 1531WAT     H2 4836   1.980   6.064   9.158
 1532WAT      O 4837   3.035   8.989   6.634
 1532WAT     H1 4838   3.023   8.912   6.571
 1532WAT     H2 4839   3.058   9.071   6.581
 1533WAT      O 4840   1.186   2.229   1.200
 1533WAT     H1 4841   1.247   2.295   1.244
 1533WAT     H2 4842   1.226   2.199   1.113
 1534WAT      O 4843   4.689   6.637   7.121
 1534WAT     H1 4844   4.645   6.657   7.209
 1534WAT     H2 4845   4.642   6.560   7.078
 1535WAT      O 4846   8.075   5.206   6.941
 1535WAT     H1 4847   8.090   5.201   7.039
 1535WAT     H2 4848   7.983   5.238   6.922
 1536WAT      O 4849   5.033   6.876   6.537
 1536WAT     H1 4850   5.007   6.943   6.606
 1536WAT     H2 4851   5.067   6.793   6.581
 1537WAT      O 4852   4.617   4.383   2.089
 1537WAT     H1 4853   4.645   4.304   2.144
 1537WAT     H2 4854   4.557   4.441   2.143
 1538WAT      O 4855   1.122   6.042   6.381
 1538WAT     H1 4856   1.090   5.980   6.310
 1538WAT     H2 4857   1.076   6.130   6.372
 1539WAT      O 4858   5.357   5.614   7.820
 1539WAT     H1 4859   5.456   5.618   7.835
 1539WAT     H2 4860   5.318   5.543   7.878
 1540WAT      O 4861   6.535   3.594   0.308
 1540WAT     H1 4862   6.578   3.547   0.232
 1540WAT     H2 4863   6.468   3.659   0.274
 1541WAT      O 4864   3.747   7.771   2.403
 1541WAT     H1 4865   3.720   7.760   2.307
 1541WAT     H2 4866   3.696   7.846   2.444
 1542WAT      O 4867   2.779   6.556   8.481
 1542WAT     H1 4868   2.729   6.578   8.565
 1542WAT     H2 4869   2.778   6.457   8.466
 1543WAT      O 4870   5.574   3.063   3.616
 1543WAT     H1 4871   5.490   3.023   3.581
 1543WAT     H2 4872   5.648   3.048   3.552
 1544WAT      O 4873   4.349   6.464   2.889
 1544WAT     H1 4874   4.441   6.451   2.926
 1544WAT     H2 4875   4.345   6.551   2.840
 1545WAT      O 4876   8.165   3.841   4.520
 1545WAT     H1 4877   8.111   3.915   4.559
 1545WAT     H2 4878   8.105   3.763   4.499
 1546WAT      O 4879   9.363   0.839   3.217
 1546WAT     H1 4880   9.362   0.823   3.316
 1546WAT     H2 4881   9.456   0.861   3.187
 1547WAT      O 4882   7.385   5.177   0.768
 1547WAT     H1 4883   7.432   5.253   0.724
 1547WAT     H2 4884   7.335   5.124   0.700
 1548WAT      O 4885   1.258   9.788   9.754
 1548WAT     H1 4886   1.268   9.731   9.835
 1548WAT     H2 4887   1.222   9.878   9.779
 1549WAT      O 4888   9.486   0.783   8.996
 1549WAT     H1 4889   9.565   0.721   9.000
 1549WAT     H2 4890   9.438   0.769   8.910
 1550WAT      O 4891   0.317   9.477   1.077
 1550WAT     H1 4892   0.344   9.525   0.994
 1550WAT     H2 4893   0.372   9.509   1.154
 1551WAT      O 4894   1.075   6.285   6.897
 1551WAT     H1 4895   1.103   6.191   6.912
 1551WAT     H2 4896   1.024   6.318   6.976
 1552WAT      O 4897   4.982   1.492   1.494
 1552WAT     H1 4898   4.898   1.457   1.534
 1552WAT     H2 4899   5.059   1.470   1.554
 1553WAT      O 4900   2.687   1.556   9.210
 1553WAT     H1 4901   2.760   1.612   9.249
 1553WAT     H2 4902   2.612   1.616   9.179
 1554WAT      O 4903   7.673   2.484   7.797
 1554WAT     H1 4904   7.653   2.495   7.894
 1554WAT     H2 4905   7.749   2.544   7.772
 1555WAT      O 4906   1.326   8.265   5.275
 1555WAT     H1 4907   1.381   8.279   5.357
 1555WAT     H2 4908   1.249   8.204   5.297
 1556WAT      O 4909   5.262   7.537   3.294
 1556WAT     H1 4910   5.339   7.597   3.315
 1556WAT     H2 4911   5.208   7.577   3.220
 1557WAT      O 4912   7.061   4.215   5.175
 1557WAT     H1 4913   7.016   4.165   5.102
 1557WAT     H2 4914   7.160   4.210   5.163
 1558WAT      O 4915   1.750   4.306   3.931
 1558WAT     H1 4916   1.741   4.336   4.027
 1558WAT     H2 4917   1.845   4.280   3.914
 1559WAT      O 4918   7.429   3.165   2.561
 1559WAT     H1 4919   7.372   3.247   2.565
 1559WAT     H2 4920   7.420   3.123   2.471
 1560WAT      O 4921   2.677   6.695   6.541
 1560WAT     H1 4922   2.715   6.749   6.616
 1560WAT     H2 4923   2.751   6.644   6.497
 1561WAT      O 4924   5.823   0.060   2.755
 1561WAT     H1 4925   5.851  -0.032   2.779
 1561WAT     H2 4926   5.725   0.061   2.735
 1562WAT      O 4927   8.960   7.159   4.649
 1562WAT     H1 4928   8.935   7.094   4.720
 1562WAT     H2 4929   8.893   7.232   4.645
 1563WAT      O 4930   3.205   3.256   8.600
 1563WAT     H1 4931   3.268   3.179   8.598
 1563WAT     H2 4932   3.243   3.331   8.545
 1564WAT      O 4933   0.045   8.347   7.959
 1564WAT     H1 4934   0.031   8.444   7.941
 1564WAT     H2 4935   0.059   8.333   8.057
 1565WAT      O 4936   2.407   3.209   2.875
 1565WAT     H1 4937   2.503   3.186   2.891
 1565WAT     H2 4938   2.349   3.146   2.927
 1566WAT      O 4939   2.749   7.904   5.377
 1566WAT     H1 4940   2.772   7.822   5.324
 1566WAT     H2 4941   2.744   7.983   5.316
 1567WAT      O 4942   5.646   1.241   8.657
 1567WAT     H1 4943   5.726   1.184   8.677
 1567WAT     H2 4944   5.676   1.326   8.614
 1568WAT      O 4945   0.708   3.364   4.132
 1568WAT     H1 4946   0.664   3.278   4.105
 1568WAT     H2 4947   0.806   3.358   4.114
 1569WAT      O 4948   0.084   3.279   2.251
 1569WAT     H1 4949   0.098   3.369   2.210
 1569WAT     H2 4950   0.128   3.276   2.341
 1570WAT      O 4951   9.364   6.999   3.182
 1570WAT     H1 4952   9.446   7.043   3.220
 1570WAT     H2 4953   9.358   6.906   3.217
 1571WAT      O 4954   9.027   5.155   4.320
 1571WAT     H1 4955   9.099   5.119   4.379
 1571WAT     H2 4956   9.047   5.133   4.225
 1572WAT      O 4957   4.622   2.748   1.254
 1572WAT     H1 4958   4.667   2.674   1.204
 1572WAT     H2 4959   4.684   2.784   1.324
 1573WAT      O 4960   5.638   4.837   0.485
 1573WAT     H1 4961   5.585   4.757   0.511
 1573WAT     H2 4962   5.719   4.809   0.434
 1574WAT      O 4963   2.159   0.698   5.123
 1574WAT     H1 4964   2.228   0.635   5.159
 1574WAT     H2 4965   2.190   0.733   5.035
 1575WAT      O 4966   1.321   7.578   0.397
 1575WAT     H1 4967   1.286   7.624   0.479
 1575WAT     H2 4968   1.271   7.493   0.383
 1576WAT      O 4969   5.792   3.146   9.009
 1576WAT     H1 4970   5.835   3.202   8.937
 1576WAT     H2 4971   5.702   3.115   8.978
 1577WAT      O 4972   6.121   8.120   3.862
 1577WAT     H1 4973   6.090   8.215   3.864
 1577WAT     H2 4974   6.199   8.111   3.800
 1578WAT      O 4975   7.277   2.545   2.313
 1578WAT     H1 4976   7.196   2.487   2.316
 1578WAT     H2 4977   7.281   2.593   2.226
 1579WAT      O 4978   2.989   6.806   9.352
 1579WAT     H1 4979   2.931   6.827   9.430
 1579WAT     H2 4980   2.960   6.862   9.273
 1580WAT      O 4981   7.786   2.305   4.910
 1580WAT     H1 4982   7.831   2.378   4.857
 1580WAT     H2 4983   7.825   2.217   4.885
 1581WAT      O 4984   3.622   1.166   8.127
 1581WAT     H1 4985   3.561   1.169   8.048
 1581WAT     H2 4986   3.568   1.172   8.211
 1582WAT      O 4987   8.036   1.995   0.933
 1582WAT     H1 4988   8.048   2.024   0.838
 1582WAT     H2 4989   8.019   2.075   0.990
 1583WAT      O 4990   4.300   6.390   1.335
 1583WAT     H1 4991   4.221   6.338   1.301
 1583WAT     H2 4992   4.342   6.340   1.412
 1584WAT      O 4993   3.041   9.783   4.719
 1584WAT     H1 4994   3.063   9.737   4.633
 1584WAT     H2 4995   3.076   9.729   4.796
 1585WAT      O 4996   5.058   8.765   0.437
 1585WAT     H1 4997   5.117   8.842   0.461
 1585WAT     H2 4998   4.987   8.796   0.375
 1586WAT      O 4999   8.910   2.886   4.585
 1586WAT     H1 5000   8.902   2.790   4.612
 1586WAT     H2 5001   8.830   2.936   4.617
 1587WAT      O 5002   1.300   9.457   0.913
 1587WAT     H1 5003   1.242   9.378   0.931
 1587WAT     H2 5004   1.396   9.429   0.911
 1588WAT      O 5005   2.921   9.796   7.227
 1588WAT     H1 5006   2.977   9.858   7.171
 1588WAT     H2 5007   2.825   9.804   7.199
 1589WAT      O 5008   0.277   8.185   8.302
 1589WAT     H1 5009   0.184   8.170   8.270
 1589WAT     H2 5010   0.299   8.283   8.298
 1590WAT      O 5011   2.937   5.387   0.069
 1590WAT     H1 5012   2.978   5.433  -0.010
 1590WAT     H2 5013   2.840   5.409   0.073
 1591WAT      O 5014   3.054   9.283   8.525
 1591WAT     H1 5015   2.991   9.222   8.573
 1591WAT     H2 5016   3.142   9.238   8.512
 1592WAT      O 5017   4.004   6.712   0.407
 1592WAT     H1 5018   3.965   6.729   0.497
 1592WAT     H2 5019   3.984   6.617   0.379
 1593WAT      O 5020   7.078   6.046   8.873
 1593WAT     H1 5021   7.130   6.041   8.959
 1593WAT     H2 5022   7.043   6.139   8.860
 1594WAT      O 5023   2.629   0.684   4.795
 1594WAT     H1 5024   2.704   0.618   4.808
 1594WAT     H2 5025   2.545   0.647   4.835
 1595WAT      O 5026   8.531   3.336   4.349
 1595WAT     H1 5027   8.558   3.240   4.354
 1595WAT     H2 5028   8.611   3.395   4.362
 1596WAT      O 5029   9.280   2.289   8.127
 1596WAT     H1 5030   9.185   2.268   8.103
 1596WAT     H2 5031   9.330   2.316   8.045
 1597WAT      O 5032   2.399   9.478   2.703
 1597WAT     H1 5033   2.462   9.448   2.774
 1597WAT     H2 5034   2.323   9.527   2.744
 1598WAT      O 5035   8.572   8.082   8.087
 1598WAT     H1 5036   8.606   8.068   7.994
 1598WAT     H2 5037   8.630   8.033   8.151
 1599WAT      O 5038   2.825   9.156   8.653
 1599WAT     H1 5039   2.807   9.088   8.582
 1599WAT     H2 5040   2.844   9.109   8.739
 1600WAT      O 5041   4.637   7.141   9.382
 1600WAT     H1 5042   4.735   7.126   9.371
 1600WAT     H2 5043   4.615   7.147   9.479
 1601WAT      O 5044   4.177   2.289   2.975
 1601WAT     H1 5045   4.164   2.381   3.012
 1601WAT     H2 5046   4.253   2.291   2.910
 1602WAT      O 5047   4.121   8.562   3.173
 1602WAT     H1 5048   4.141   8.465   3.182
 1602WAT     H2 5049   4.207   8.613   3.159
 1603WAT      O 5050   5.084   3.709   2.271
 1603WAT     H1 5051   4.985   3.722   2.274
 1603WAT     H2 5052   5.105   3.611   2.266
 1604WAT      O 5053   2.105   6.882   2.332
 1604WAT     H1 5054   2.190   6.879   2.385
 1604WAT     H2 5055   2.102   6.804   2.270
 1605WAT      O 5056   0.994   1.452   7.083
 1605WAT     H1 5057   1.047   1.468   6.999
 1605WAT     H2 5058   0.897   1.446   7.060
 1606WAT      O 5059   0.217   0.156   1.775
 1606WAT     H1 5060   0.246   0.065   1.744
 1606WAT     H2 5061   0.295   0.204   1.814
 1607WAT      O 5062   1.716   6.483   3.765
 1607WAT     H1 5063   1.665   6.471   3.679
 1607WAT     H2 5064   1.814   6.471   3.747
 1608WAT      O 5065   0.639   5.183   2.875
 1608WAT     H1 5066   0.561   5.140   2.922
 1608WAT     H2 5067   0.650   5.277   2.908
 1609WAT      O 5068   3.470   9.284   0.171
 1609WAT     H1 5069   3.546   9.226   0.202
 1609WAT     H2 5070   3.472   9.371   0.220
 1610WAT      O 5071   8.252   6.700   1.208
 1610WAT     H1 5072   8.199   6.763   1.264
 1610WAT     H2 5073   8.311   6.751   1.146
 1611WAT      O 5074   1.667   5.899   9.175
 1611WAT     H1 5075   1.718   5.984   9.161
 1611WAT     H2 5076   1.642   5.860   9.086
 1612WAT      O 5077   4.888   6.348   8.269
 1612WAT     H1 5078   4.866   6.345   8.366
 1612WAT     H2 5079   4.816   6.398   8.220
 1613WAT      O 5080   6.472   3.904   2.784
 1613WAT     H1 5081   6.498   3.820   2.736
 1613WAT     H2 5082   6.397   3.884   2.848
 1614WAT      O 5083   0.025   3.889   3.696
 1614WAT     H1 5084  -0.043   3.849   3.634
 1614WAT     H2 5085   0.102   3.925   3.643
 1615WAT      O 5086   9.633   1.476   4.637
 1615WAT     H1 5087   9.715   1.531   4.651
 1615WAT     H2 5088   9.590   1.457   4.725
 1616WAT      O 5089   1.939   9.211   8.665
 1616WAT     H1 5090   1.900   9.120   8.674
 1616WAT     H2 5091   2.006   9.226   8.739
 1617WAT      O 5092   6.295   4.228   7.456
 1617WAT     H1 5093   6.333   4.142   7.491
 1617WAT     H2 5094   6.365   4.300   7.463
 1618WAT      O 5095   9.826   5.335   5.009
 1618WAT     H1 5096   9.849   5.405   5.077
 1618WAT     H2 5097   9.818   5.377   4.919
 1619WAT      O 5098   6.197   0.986   4.916
 1619WAT     H1 5099   6.139   0.939   4.850
 1619WAT     H2 5100   6.273   1.031   4.869
 1620WAT      O 5101   6.061   9.820   6.560
 1620WAT     H1 5102   6.034   9.749   6.495
 1620WAT     H2 5103   6.117   9.779   6.632
 1621WAT      O 5104   5.112   8.867   6.219
 1621WAT     H1 5105   5.123   8.954   6.267
 1621WAT     H2 5106   5.073   8.884   6.129
 1622WAT      O 5107   1.361   7.736   4.684
 1622WAT     H1 5108   1.284   7.724   4.747
 1622WAT     H2 5109   1.347   7.819   4.629
 1623WAT      O 5110   1.287   4.414   8.853
 1623WAT     H1 5111   1.327   4.495   8.896
 1623WAT     H2 5112   1.248   4.355   8.924
 1624WAT      O 5113   9.244   9.369   1.909
 1624WAT     H1 5114   9.326   9.426   1.911
 1624WAT     H2 5115   9.198   9.372   1.998
 1625WAT      O 5116   5.104   9.380   6.632
 1625WAT     H1 5117   5.037   9.451   6.651
 1625WAT     H2 5118   5.057   9.296   6.604
 1626WAT      O 5119   6.618   8.073   8.300
 1626WAT     H1 5120   6.534   8.127   8.298
 1626WAT     H2 5121   6.695   8.132   8.327
 1627WAT      O 5122   8.105   2.750   7.543
 1627WAT     H1 5123   8.114   2.845   7.512
 1627WAT     H2 5124   8.157   2.690   7.483
 1628WAT      O 5125   1.245   8.318   3.378
 1628WAT     H1 5126   1.342   8.303   3.397
 1628WAT     H2 5127   1.193   8.236   3.403
 1629WAT      O 5128   7.472   0.676   3.617
 1629WAT     H1 5129   7.525   0.701   3.699
 1629WAT     H2 5130   7.400   0.744   3.603
 1630WAT      O 5131   1.128   1.178   0.348
 1630WAT     H1 5132   1.127   1.210   0.443
 1630WAT     H2 5133   1.168   1.086   0.344
 1631WAT      O 5134   1.800   7.044   7.199
 1631WAT     H1 5135   1.813   6.952   7.236
 1631WAT     H2 5136   1.871   7.105   7.236
 1632WAT      O 5137   6.227   8.660   9.568
 1632WAT     H1 5138   6.213   8.653   9.667
 1632WAT     H2 5139   6.160   8.604   9.520
 1633WAT      O 5140   7.216   3.258   0.195
 1633WAT     H1 5141   7.137   3.319   0.194
 1633WAT     H2 5142   7.191   3.172   0.239
 1634WAT      O 5143   9.327   7.545   7.414
 1634WAT     H1 5144   9.335   7.628   7.469
 1634WAT     H2 5145   9.286   7.472   7.470
 1635WAT      O 5146   7.084   1.468   8.100
 1635WAT     H1 5147   7.074   1.487   8.002
 1635WAT     H2 5148   7.179   1.446   8.120
 1636WAT      O 5149   3.369   7.531   0.917
 1636WAT     H1 5150   3.397   7.619   0.955
 1636WAT     H2 5151   3.431   7.460   0.949
 1637WAT      O 5152   7.871   5.958   2.564
 1637WAT     H1 5153   7.815   5.946   2.646
 1637WAT     H2 5154   7.852   6.047   2.523
 1638WAT      O 5155   2.090   6.794   8.918
 1638WAT     H1 5156   2.074   6.889   8.944
 1638WAT     H2 5157   2.018   6.736   8.955
 1639WAT      O 5158   8.652   4.013   3.951
 1639WAT     H1 5159   8.701   3.957   4.018
 1639WAT     H2 5160   8.616   3.955   3.878
 1640WAT      O 5161   1.645   6.425   5.464
 1640WAT     H1 5162   1.548   6.419   5.442
 1640WAT     H2 5163   1.674   6.341   5.510
 1641WAT      O 5164   3.935   0.285   1.791
 1641WAT     H1 5165   4.019   0.337   1.773
 1641WAT     H2 5166   3.864   0.311   1.726
 1642WAT      O 5167   6.770   0.008   6.646
 1642WAT     H1 5168   6.778  -0.041   6.559
 1642WAT     H2 5169   6.832   0.087   6.645
 1643WAT      O 5170   0.523   7.044   8.721
 1643WAT     H1 5171   0.425   7.063   8.729
 1643WAT     H2 5172   0.557   7.080   8.634
 1644WAT      O 5173   4.797   6.716   2.994
 1644WAT     H1 5174   4.748   6.708   3.081
 1644WAT     H2 5175   4.773   6.802   2.949
 1645WAT      O 5176   1.686   1.280   2.444
 1645WAT     H1 5177   1.751   1.307   2.515
 1645WAT     H2 5178   1.631   1.359   2.418
 1646WAT      O 5179   4.729   6.492   3.920
 1646WAT     H1 5180   4.821   6.467   3.951
 1646WAT     H2 5181   4.721   6.473   3.822
 1647WAT      O 5182   9.332   7.254   2.676
 1647WAT     H1 5183   9.417   7.221   2.718
 1647WAT     H2 5184   9.341   7.251   2.576
 1648WAT      O 5185   7.668   5.992   2.739
 1648WAT     H1 5186   7.712   5.975   2.828
 1648WAT     H2 5187   7.570   5.977   2.747
 1649WAT      O 5188   6.650   0.246   1.032
 1649WAT     H1 5189   6.750   0.239   1.034
 1649WAT     H2 5190   6.619   0.262   0.939
 1650WAT      O 5191   5.290   7.742   5.750
 1650WAT     H1 5192   5.282   7.654   5.797
 1650WAT     H2 5193   5.274   7.816   5.815
 1651WAT      O 5194   5.479   0.943   3.304
 1651WAT     H1 5195   5.578   0.937   3.319
 1651WAT     H2 5196   5.438   0.853   3.313
 1652WAT      O 5197   3.011   7.169   7.195
 1652WAT     H1 5198   3.069   7.115   7.134
 1652WAT     H2 5199   2.971   7.109   7.264
 1653WAT      O 5200   9.706   9.027   0.222
 1653WAT     H1 5201   9.703   8.960   0.296
 1653WAT     H2 5202   9.705   8.979   0.134
 1654WAT      O 5203   6.587   0.815   7.499
 1654WAT     H1 5204   6.667   0.807   7.558
 1654WAT     H2 5205   6.597   0.756   7.420
 1655WAT      O 5206   3.527   7.435   3.657
 1655WAT     H1 5207   3.489   7.345   3.635
 1655WAT     H2 5208   3.506   7.499   3.583
 1656WAT      O 5209   7.387   8.441   3.920
 1656WAT     H1 5210   7.341   8.413   3.836
 1656WAT     H2 5211   7.364   8.376   3.994
 1657WAT      O 5212   4.204   6.544   7.980
 1657WAT     H1 5213   4.197   6.642   7.959
 1657WAT     H2 5214   4.292   6.509   7.947
 1658WAT      O 5215   8.599   7.038   4.267
 1658WAT     H1 5216   8.510   7.079   4.283
 1658WAT     H2 5217   8.588   6.942   4.244
 1659WAT      O 5218   3.461   5.558   9.747
 1659WAT     H1 5219   3.374   5.591   9.784
 1659WAT     H2 5220   3.500   5.490   9.809
 1660WAT      O 5221   5.744   2.919   2.483
 1660WAT     H1 5222   5.726   2.982   2.408
 1660WAT     H2 5223   5.819   2.955   2.539
 1661WAT      O 5224   9.462   8.118   0.983
 1661WAT     H1 5225   9.461   8.124   0.883
 1661WAT     H2 5226   9.401   8.045   1.013
 1662WAT      O 5227   5.114   2.718   0.149
 1662WAT     H1 5228   5.207   2.708   0.116
 1662WAT     H2 5229   5.050   2.679   0.083
 1663WAT      O 5230   6.922   3.765   3.946
 1663WAT     H1 5231   6.952   3.860   3.948
 1663WAT     H2 5232   6.882   3.744   3.857
 1664WAT      O 5233   7.104   5.736   0.245
 1664WAT     H1 5234   7.143   5.825   0.271
 1664WAT     H2 5235   7.172   5.685   0.193
 1665WAT      O 5236   9.266   5.985   3.297
 1665WAT     H1 5237   9.261   6.074   3.341
 1665WAT     H2 5238   9.174   5.946   3.289
 1666WAT      O 5239   5.105   0.480   8.571
 1666WAT     H1 5240   5.191   0.463   8.621
 1666WAT     H2 5241   5.039   0.524   8.632
 1667WAT      O 5242   0.418   9.608   0.779
 1667WAT     H1 5243   0.453   9.535   0.720
 1667WAT     H2 5244   0.495   9.661   0.815
 1668WAT      O 5245   5.300   5.745   3.714
 1668WAT     H1 5246   5.350   5.662   3.735
 1668WAT     H2 5247   5.252   5.735   3.627
 1669WAT      O 5248   0.954   8.274   5.492
 1669WAT     H1 5249   0.940   8.216   5.572
 1669WAT     H2 5250   1.025   8.342   5.513
 1670WAT      O 5251   3.964   4.156   9.697
 1670WAT     H1 5252   3.929   4.248   9.713
 1670WAT     H2 5253   3.895   4.089   9.722
 1671WAT      O 5254   9.252   8.181   2.886
 1671WAT     H1 5255   9.192   8.187   2.806
 1671WAT     H2 5256   9.329   8.122   2.865
 1672WAT      O 5257   8.980   3.080   6.480
 1672WAT     H1 5258   9.074   3.111   6.464
 1672WAT     H2 5259   8.936   3.061   6.392
 1673WAT      O 5260   7.832   5.578   3.750
 1673WAT     H1 5261   7.912   5.638   3.748
 1673WAT     H2 5262   7.772   5.600   3.672
 1674WAT      O 5263   3.201   8.076   7.616
 1674WAT     H1 5264   3.138   8.004   7.589
 1674WAT     H2 5265   3.153   8.144   7.671
 1675WAT      O 5266   1.340   4.525   3.197
 1675WAT     H1 5267   1.412   4.467   3.234
 1675WAT     H2 5268   1.289   4.474   3.127
 1676WAT      O 5269   5.842   1.000   0.105
 1676WAT     H1 5270   5.846   1.084   0.051
 1676WAT     H2 5271   5.888   0.926   0.056
 1677WAT      O 5272   8.564   1.324   1.322
 1677WAT     H1 5273   8.465   1.330   1.337
 1677WAT     H2 5274   8.612   1.348   1.407
 1678WAT      O 5275   8.044   7.845   4.911
 1678WAT     H1 5276   8.088   7.883   4.992
 1678WAT     H2 5277   8.092   7.762   4.883
 1679WAT      O 5278   5.071   1.178   0.640
 1679WAT     H1 5279   5.001   1.197   0.571
 1679WAT     H2 5280   5.086   1.079   0.646
 1680WAT      O 5281   4.878   8.673   9.430
 1680WAT     H1 5282   4.930   8.754   9.401
 1680WAT     H2 5283   4.909   8.645   9.521
 1681WAT      O 5284   5.467   0.419   1.635
 1681WAT     H1 5285   5.478   0.398   1.732
 1681WAT     H2 5286   5.523   0.355   1.581
 1682WAT      O 5287   8.325   4.860   2.097
 1682WAT     H1 5288   8.398   4.918   2.060
 1682WAT     H2 5289   8.330   4.861   2.197
 1683WAT      O 5290   6.874   5.985   9.446
 1683WAT     H1 5291   6.793   6.034   9.415
 1683WAT     H2 5292   6.877   5.985   9.546
 1684WAT      O 5293   8.727   7.656   2.386
 1684WAT     H1 5294   8.805   7.669   2.447
 1684WAT     H2 5295   8.740   7.712   2.304
 1685WAT      O 5296   4.476   5.738   0.987
 1685WAT     H1 5297   4.387   5.695   1.002
 1685WAT     H2 5298   4.533   5.727   1.069
 1686WAT      O 5299   6.387   4.552   4.787
 1686WAT     H1 5300   6.405   4.538   4.885
 1686WAT     H2 5301   6.293   4.584   4.775
 1687WAT      O 5302   6.369   1.575   3.915
 1687WAT     H1 5303   6.383   1.590   3.817
 1687WAT     H2 5304   6.452   1.600   3.964
 1688WAT      O 5305   5.330   5.225   6.070
 1688WAT     H1 5306   5.376   5.192   5.987
 1688WAT     H2 5307   5.273   5.304   6.046
 1689WAT      O 5308   9.498   5.364   7.736
 1689WAT     H1 5309   9.583   5.384   7.786
 1689WAT     H2 5310   9.466   5.272   7.759
 1690WAT      O 5311   1.462   6.573   1.070
 1690WAT     H1 5312   1.448   6.559   1.168
 1690WAT     H2 5313   1.485   6.486   1.026
 1691WAT      O 5314   5.855   7.117   2.418
 1691WAT     H1 5315   5.860   7.197   2.478
 1691WAT     H2 5316   5.883   7.035   2.468
 1692WAT      O 5317   2.038   9.458   3.036
 1692WAT     H1 5318   1.971   9.492   3.101
 1692WAT     H2 5319   2.120   9.515   3.040
 1693WAT      O 5320   0.579   3.653   5.602
 1693WAT     H1 5321   0.493   3.695   5.572
 1693WAT     H2 5322   0.599   3.680   5.696
 1694WAT      O 5323   4.403   6.030   6.964
 1694WAT     H1 5324   4.386   6.074   7.052
 1694WAT     H2 5325   4.339   6.065   6.895
 1695WAT      O 5326   4.417   1.741   5.294
 1695WAT     H1 5327   4.425   1.705   5.387
 1695WAT     H2 5328   4.330   1.789   5.284
 1696WAT      O 5329   2.975   9.760   9.729
 1696WAT     H1 5330   2.891   9.713   9.758
 1696WAT     H2 5331   3.041   9.759   9.803
 1697WAT      O 5332   9.643   9.544   6.810
 1697WAT     H1 5333   9.564   9.484   6.802
 1697WAT     H2 5334   9.674   9.546   6.905
 1698WAT      O 5335   0.289   7.440   2.879
 1698WAT     H1 5336   0.307   7.478   2.789
 1698WAT     H2 5337   0.226   7.363   2.871
 1699WAT      O 5338   9.076   5.243   7.090
 1699WAT     H1 5339   9.114   5.159   7.127
 1699WAT     H2 5340   9.039   5.225   6.999
 1700WAT      O 5341   6.058   9.387   0.892
 1700WAT     H1 5342   6.004   9.471   0.895
 1700WAT     H2 5343   6.149   9.405   0.929
 1701WAT      O 5344   4.396   5.822   7.299
 1701WAT     H1 5345   4.412   5.847   7.394
 1701WAT     H2 5346   4.482   5.798   7.255
 1702WAT      O 5347   4.972   3.988   6.906
 1702WAT     H1 5348   5.068   4.014   6.920
 1702WAT     H2 5349   4.928   4.054   6.845
 1703WAT      O 5350   6.373   5.146   8.011
 1703WAT     H1 5351   6.452   5.099   7.973
 1703WAT     H2 5352   6.316   5.182   7.937
 1704WAT      O 5353   5.802   4.275   1.328
 1704WAT     H1 5354   5.823   4.280   1.426
 1704WAT     H2 5355   5.714   4.319   1.311
 1705WAT      O 5356   1.126   7.765   3.916
 1705WAT     H1 5357   1.061   7.703   3.959
 1705WAT     H2 5358   1.169   7.822   3.986
 1706WAT      O 5359   3.638   1.607   8.436
 1706WAT     H1 5360   3.720   1.605   8.494
 1706WAT     H2 5361   3.592   1.695   8.447
 1707WAT      O 5362   5.697   4.647   7.823
 1707WAT     H1 5363   5.693   4.568   7.885
 1707WAT     H2 5364   5.780   4.642   7.767
 1708WAT      O 5365   3.783   8.589   9.020
 1708WAT     H1 5366   3.803   8.509   9.076
 1708WAT     H2 5367   3.710   8.566   8.955
 1709WAT      O 5368   2.385   1.090   3.055
 1709WAT     H1 5369   2.449   1.111   2.981
 1709WAT     H2 5370   2.392   0.994   3.079
 1710WAT      O 5371   6.471   7.673   9.696
 1710WAT     H1 5372   6.410   7.712   9.626
 1710WAT     H2 5373   6.560   7.719   9.692
 1711WAT      O 5374   0.177   7.798   2.738
 1711WAT     H1 5375   0.205   7.774   2.831
 1711WAT     H2 5376   0.110   7.732   2.705
 1712WAT      O 5377   3.666   1.401   6.824
 1712WAT     H1 5378   3.690   1.316   6.777
 1712WAT     H2 5379   3.748   1.456   6.838
 1713WAT      O 5380   5.989   5.227   8.628
 1713WAT     H1 5381   5.995   5.307   8.688
 1713WAT     H2 5382   5.968   5.146   8.683
 1714WAT      O 5383   7.756   3.019   7.686
 1714WAT     H1 5384   7.833   3.044   7.627
 1714WAT     H2 5385   7.738   3.094   7.749
 1715WAT      O 5386   6.213   2.218   9.070
 1715WAT     H1 5387   6.266   2.254   8.993
 1715WAT     H2 5388   6.184   2.124   9.050
 1716WAT      O 5389   1.643   4.222   5.171
 1716WAT     H1 5390   1.570   4.290   5.171
 1716WAT     H2 5391   1.624   4.152   5.102
 1717WAT      O 5392   3.235   9.057   9.271
 1717WAT     H1 5393   3.182   9.008   9.203
 1717WAT     H2 5394   3.173   9.107   9.332
 1718WAT      O 5395   8.602   6.442   7.670
 1718WAT     H1 5396   8.581   6.536   7.641
 1718WAT     H2 5397   8.615   6.385   7.589
 1719WAT      O 5398   5.070   0.465   8.299
 1719WAT     H1 5399   5.087   0.466   8.397
 1719WAT     H2 5400   5.135   0.526   8.253
 1720WAT      O 5401   0.493   6.989   6.430
 1720WAT     H1 5402   0.494   7.060   6.500
 1720WAT     H2 5403   0.571   7.002   6.369
 1721WAT      O 5404   8.623   0.365   2.264
 1721WAT     H1 5405   8.708   0.412   2.241
 1721WAT     H2 5406   8.593   0.309   2.187
 1722WAT      O 5407   7.365   5.325   7.824
 1722WAT     H1 5408   7.449   5.350   7.872
 1722WAT     H2 5409   7.367   5.227   7.805
 1723WAT      O 5410   5.850   9.361   1.215
 1723WAT     H1 5411   5.798   9.334   1.296
 1723WAT     H2 5412   5.931   9.412   1.243
 1724WAT      O 5413   4.223   1.316   9.283
 1724WAT     H1 5414   4.129   1.282   9.282
 1724WAT     H2 5415   4.268   1.287   9.368
 1725WAT      O 5416   7.547   6.261   1.614
 1725WAT     H1 5417   7.551   6.211   1.528
 1725WAT     H2 5418   7.590   6.206   1.686
 1726WAT      O 5419   8.346   1.026   2.157
 1726WAT     H1 5420   8.425   0.968   2.177
 1726WAT     H2 5421   8.289   1.033   2.240
 1727WAT      O 5422   7.590   6.138   6.197
 1727WAT     H1 5423   7.545   6.111   6.282
 1727WAT     H2 5424   7.622   6.232   6.204
 1728WAT      O 5425   9.731   9.497   6.032
 1728WAT     H1 5426   9.763   9.509   5.938
 1728WAT     H2 5427   9.803   9.455   6.087
 1729WAT      O 5428   7.245   1.309   4.910
 1729WAT     H1 5429   7.156   1.351   4.889
 1729WAT     H2 5430   7.254   1.300   5.009
 1730WAT      O 5431   8.980   7.672   3.568
 1730WAT     H1 5432   8.947   7.736   3.637
 1730WAT     H2 5433   8.960   7.578   3.598
 1731WAT      O 5434   8.465   0.878   4.738
 1731WAT     H1 5435   8.405   0.800   4.755
 1731WAT     H2 5436   8.538   0.880   4.806
 1732WAT      O 5437   7.111   9.395   7.343
 1732WAT     H1 5438   7.145   9.403   7.249
 1732WAT     H2 5439   7.020   9.354   7.342
 1733WAT      O 5440   7.761   8.945   4.580
 1733WAT     H1 5441   7.834   8.946   4.512
 1733WAT     H2 5442   7.724   9.037   4.590
 1734WAT      O 5443   5.702   2.087   6.766
 1734WAT     H1 5444   5.674   2.112   6.673
 1734WAT     H2 5445   5.801   2.077   6.770
 1735WAT      O 5446   8.211   6.517   2.478
 1735WAT     H1 5447   8.290   6.472   2.521
 1735WAT     H2 5448   8.197   6.607   2.520
 1736WAT      O 5449   4.374   5.825   8.676
 1736WAT     H1 5450   4.318   5.901   8.644
 1736WAT     H2 5451   4.466   5.833   8.638
 1737WAT      O 5452   1.425   5.319   7.259
 1737WAT     H1 5453   1.503   5.335   7.319
 1737WAT     H2 5454   1.364   5.251   7.301
 1738WAT      O 5455   0.971   7.801   0.760
 1738WAT     H1 5456   0.901   7.741   0.799
 1738WAT     H2 5457   0.928   7.883   0.722
 1739WAT      O 5458   4.833   2.485   1.229
 1739WAT     H1 5459   4.915   2.457   1.279
 1739WAT     H2 5460   4.754   2.433   1.263
 1740WAT      O 5461   6.502   3.000   3.741
 1740WAT     H1 5462   6.589   2.959   3.713
 1740WAT     H2 5463   6.505   3.099   3.723
 1741WAT      O 5464   6.759   1.437   5.996
 1741WAT     H1 5465   6.674   1.387   6.012
 1741WAT     H2 5466   6.830   1.403   6.058
 1742WAT      O 5467   0.508   4.816   0.799
 1742WAT     H1 5468   0.516   4.719   0.822
 1742WAT     H2 5469   0.421   4.832   0.754
 1743WAT      O 5470   8.795   1.063   5.941
 1743WAT     H1 5471   8.853   1.097   6.014
 1743WAT     H2 5472   8.773   0.966   5.958
 1744WAT      O 5473   6.323   0.986   7.323
 1744WAT     H1 5474   6.382   1.057   7.285
 1744WAT     H2 5475   6.357   0.958   7.412
 1745WAT      O 5476   3.526   9.229   8.201
 1745WAT     H1 5477   3.523   9.264   8.295
 1745WAT     H2 5478   3.435   9.233   8.161
 1746WAT      O 5479   5.893   5.048   4.378
 1746WAT     H1 5480   5.875   5.143   4.356
 1746WAT     H2 5481   5.854   4.989   4.308
 1747WAT      O 5482   5.496   7.178   8.921
 1747WAT     H1 5483   5.580   7.130   8.948
 1747WAT     H2 5484   5.417   7.123   8.948
 1748WAT      O 5485   7.288   5.511   8.562
 1748WAT     H1 5486   7.214   5.579   8.559
 1748WAT     H2 5487   7.351   5.534   8.636
 1749WAT      O 5488   9.711   0.252   3.139
 1749WAT     H1 5489   9.723   0.347   3.167
 1749WAT     H2 5490   9.625   0.242   3.089
 1750WAT      O 5491   2.354   1.070   7.302
 1750WAT     H1 5492   2.385   0.976   7.292
 1750WAT     H2 5493   2.401   1.128   7.234
 1751WAT      O 5494   8.684   7.609   6.098
 1751WAT     H1 5495   8.593   7.628   6.062
 1751WAT     H2 5496   8.745   7.685   6.077
 1752WAT      O 5497   5.754   8.816   6.969
 1752WAT     H1 5498   5.789   8.723   6.968
 1752WAT     H2 5499   5.829   8.880   6.986
 1753WAT      O 5500   3.206   1.419   8.501
 1753WAT     H1 5501   3.199   1.446   8.597
 1753WAT     H2 5502   3.190   1.320   8.492
 1754WAT      O 5503   8.619   5.283   5.837
 1754WAT     H1 5504   8.682   5.305   5.763
 1754WAT     H2 5505   8.527   5.270   5.800
 1755WAT      O 5506   9.781   2.334   4.887
 1755WAT     H1 5507   9.709   2.337   4.817
 1755WAT     H2 5508   9.870   2.328   4.844
 1756WAT      O 5509   7.201   5.964   0.575
 1756WAT     H1 5510   7.293   5.943   0.541
 1756WAT     H2 5511   7.177   5.900   0.648
 1757WAT      O 5512   1.563   8.560   9.262
 1757WAT     H1 5513   1.611   8.642   9.231
 1757WAT     H2 5514   1.560   8.493   9.188
 1758WAT      O 5515   6.228   2.335   6.669
 1758WAT     H1 5516   6.310   2.372   6.713
 1758WAT     H2 5517   6.150   2.396   6.686
 1759WAT      O 5518   2.039   1.258   9.103
 1759WAT     H1 5519   2.121   1.210   9.135
 1759WAT     H2 5520   2.066   1.345   9.062
 1760WAT      O 5521   0.343   3.369   2.096
 1760WAT     H1 5522   0.271   3.389   2.163
 1760WAT     H2 5523   0.390   3.285   2.123
 1761WAT      O 5524   1.648   4.724   9.755
 1761WAT     H1 5525   1.689   4.637   9.782
 1761WAT     H2 5526   1.598   4.713   9.669
 1762WAT      O 5527   4.540   2.617   1.867
 1762WAT     H1 5528   4.484   2.568   1.933
 1762WAT     H2 5529   4.497   2.613   1.776
 1763WAT      O 5530   9.107   3.121   7.534
 1763WAT     H1 5531   9.126   3.208   7.486
 1763WAT     H2 5532   9.044   3.067   7.480
 1764WAT      O 5533   3.736   7.848   8.603
 1764WAT     H1 5534   3.708   7.899   8.684
 1764WAT     H2 5535   3.665   7.780   8.581
 1765WAT      O 5536   7.725   3.834   5.607
 1765WAT     H1 5537   7.782   3.811   5.528
 1765WAT     H2 5538   7.773   3.808   5.691
 1766WAT      O 5539   1.004   6.605   8.876
 1766WAT     H1 5540   1.080   6.555   8.834
 1766WAT     H2 5541   1.011   6.702   8.852
 1767WAT      O 5542   1.666   0.740   8.774
 1767WAT     H1 5543   1.749   0.756   8.721
 1767WAT     H2 5544   1.680   0.660   8.833
 1768WAT      O 5545   2.714   6.917   5.580
 1768WAT     H1 5546   2.800   6.867   5.565
 1768WAT     H2 5547   2.729   7.014   5.566
 1769WAT      O 5548   1.237   4.614   6.530
 1769WAT     H1 5549   1.179   4.623   6.449
 1769WAT     H2 5550   1.333   4.611   6.503
 1770WAT      O 5551   0.620   8.086   6.183
 1770WAT     H1 5552   0.587   8.055   6.272
 1770WAT     H2 5553   0.707   8.041   6.163
 1771WAT      O 5554   0.224   1.576   5.267
 1771WAT     H1 5555   0.208   1.670   5.298
 1771WAT     H2 5556   0.146   1.545   5.212
 1772WAT      O 5557   9.181   0.425   7.486
 1772WAT     H1 5558   9.197   0.382   7.396
 1772WAT     H2 5559   9.214   0.519   7.484
 1773WAT      O 5560   5.769   3.456   6.179
 1773WAT     H1 5561   5.787   3.543   6.133
 1773WAT     H2 5562   5.845   3.435   6.241
 1774WAT      O 5563   2.631   2.668   7.287
 1774WAT     H1 5564   2.682   2.733   7.231
 1774WAT     H2 5565   2.647   2.688   7.384
 1775WAT      O 5566   5.983   1.069   2.532
 1775WAT     H1 5567   5.906   1.039   2.589
 1775WAT     H2 5568   5.977   1.025   2.442
 1776WAT      O 5569   2.001   2.622   4.537
 1776WAT     H1 5570   1.910   2.638   4.501
 1776WAT     H2 5571   1.997   2.621   4.637
 1777WAT      O 5572   1.113   3.159   4.673
 1777WAT     H1 5573   1.056   3.138   4.593
 1777WAT     H2 5574   1.208   3.170   4.644
 1778WAT      O 5575   4.192   4.853   5.799
 1778WAT     H1 5576   4.170   4.760   5.828
 1778WAT     H2 5577   4.285   4.876   5.830
 1779WAT      O 5578   9.450   4.116   9.804
 1779WAT     H1 5579   9.397   4.125   9.888
 1779WAT     H2 5580   9.406   4.171   9.732
 1780WAT      O 5581   0.882   1.090   0.891
 1780WAT     H1 5582   0.922   1.174   0.926
 1780WAT     H2 5583   0.954   1.025   0.868
 1781WAT      O 5584   8.574   3.040   7.945
 1781WAT     H1 5585   8.613   3.123   7.984
 1781WAT     H2 5586   8.604   2.961   7.999
 1782WAT      O 5587   9.710   6.591   8.658
 1782WAT     H1 5588   9.626   6.639   8.629
 1782WAT     H2 5589   9.776   6.658   8.691
 1783WAT      O 5590   3.325   0.469   6.131
 1783WAT     H1 5591   3.310   0.393   6.067
 1783WAT     H2 5592   3.359   0.433   6.218
 1784WAT      O 5593   3.803   0.989   4.529
 1784WAT     H1 5594   3.854   1.067   4.565
 1784WAT     H2 5595   3.838   0.905   4.570
 1785WAT      O 5596   0.396   8.335   5.149
 1785WAT     H1 5597   0.461   8.406   5.121
 1785WAT     H2 5598   0.345   8.366   5.229
 1786WAT      O 5599   9.562   0.511   0.745
 1786WAT     H1 5600   9.567   0.598   0.697
 1786WAT     H2 5601   9.514   0.444   0.689
 1787WAT      O 5602   6.911   6.372   7.387
 1787WAT     H1 5603   6.954   6.342   7.302
 1787WAT     H2 5604   6.898   6.294   7.447
 1788WAT      O 5605   8.179   1.068   7.497
 1788WAT     H1 5606   8.225   1.117   7.424
 1788WAT     H2 5607   8.085   1.049   7.471
 1789WAT      O 5608   0.974   9.723   4.109
 1789WAT     H1 5609   1.056   9.780   4.114
 1789WAT     H2 5610   0.894   9.778   4.132
 1790WAT      O 5611   6.244   1.550   4.249
 1790WAT     H1 5612   6.214   1.462   4.212
 1790WAT     H2 5613   6.253   1.615   4.174
 1791WAT      O 5614   0.945   2.050   8.090
 1791WAT     H1 5615   0.851   2.068   8.061
 1791WAT     H2 5616   0.990   1.989   8.025
 1792WAT      O 5617   3.066   1.372   2.003
 1792WAT     H1 5618   3.038   1.454   1.953
 1792WAT     H2 5619   3.163   1.353   1.984
 1793WAT      O 5620   8.404   8.031   0.321
 1793WAT     H1 5621   8.367   8.100   0.258
 1793WAT     H2 5622   8.497   8.007   0.293
 1794WAT      O 5623   9.383   4.500   8.534
 1794WAT     H1 5624   9.461   4.558   8.514
 1794WAT     H2 5625   9.313   4.554   8.582
 1795WAT      O 5626   9.814   0.364   7.792
 1795WAT     H1 5627   9.876   0.431   7.753
 1795WAT     H2 5628   9.821   0.366   7.892
 1796WAT      O 5629   8.506   1.743   6.331
 1796WAT     H1 5630   8.563   1.760   6.411
 1796WAT     H2 5631   8.529   1.654   6.291
 1797WAT      O 5632   7.392   9.835   7.844
 1797WAT     H1 5633   7.366   9.917   7.895
 1797WAT     H2 5634   7.411   9.761   7.908
 1798WAT      O 5635   0.344   8.441   8.229
 1798WAT     H1 5636   0.434   8.444   8.187
 1798WAT     H2 5637   0.342   8.499   8.310
 1799WAT      O 5638   0.644   3.719   8.021
 1799WAT     H1 5639   0.628   3.803   7.970
 1799WAT     H2 5640   0.633   3.736   8.119
 1800WAT      O 5641   2.416   4.139   9.433
 1800WAT     H1 5642   2.365   4.157   9.517
 1800WAT     H2 5643   2.361   4.165   9.354
 1801WAT      O 5644   2.068   7.860   0.070
 1801WAT     H1 5645   2.128   7.939   0.062
 1801WAT     H2 5646   2.122   7.776   0.062
 1802WAT      O 5647   7.543   1.575   7.768
 1802WAT     H1 5648   7.536   1.663   7.720
 1802WAT     H2 5649   7.597   1.586   7.850
 1803WAT      O 5650   0.098   0.764   3.707
 1803WAT     H1 5651   0.161   0.753   3.784
 1803WAT     H2 5652   0.097   0.860   3.678
 1804WAT      O 5653   2.587   0.781   4.541
 1804WAT     H1 5654   2.638   0.715   4.486
 1804WAT     H2 5655   2.592   0.755   4.638
 1805WAT      O 5656   7.085   8.741   3.427
 1805WAT     H1 5657   7.050   8.765   3.336
 1805WAT     H2 5658   7.185   8.736   3.424
 1806WAT      O 5659   3.819   8.740   1.581
 1806WAT     H1 5660   3.724   8.769   1.572
 1806WAT     H2 5661   3.879   8.811   1.543
 1807WAT      O 5662   5.625   7.412   5.220
 1807WAT     H1 5663   5.561   7.444   5.150
 1807WAT     H2 5664   5.698   7.480   5.231
 1808WAT      O 5665   3.067   0.413   4.904
 1808WAT     H1 5666   3.134   0.389   4.834
 1808WAT     H2 5667   3.054   0.512   4.905
 1809WAT      O 5668   0.466   6.599   5.053
 1809WAT     H1 5669   0.565   6.580   5.057
 1809WAT     H2 5670   0.420   6.550   5.128
 1810WAT      O 5671   2.228   1.335   2.853
 1810WAT     H1 5672   2.136   1.371   2.870
 1810WAT     H2 5673   2.250   1.267   2.924
 1811WAT      O 5674   5.310   3.991   9.468
 1811WAT     H1 5675   5.370   4.003   9.547
 1811WAT     H2 5676   5.356   3.934   9.399
 1812WAT      O 5677   4.279   4.448   7.623
 1812WAT     H1 5678   4.302   4.366   7.571
 1812WAT     H2 5679   4.359   4.508   7.629
 1813WAT      O 5680   8.536   2.905   8.800
 1813WAT     H1 5681   8.595   2.829   8.772
 1813WAT     H2 5682   8.445   2.893   8.760
 1814WAT      O 5683   0.660   7.413   2.063
 1814WAT     H1 5684   0.645   7.326   2.016
 1814WAT     H2 5685   0.577   7.438   2.113
 1815WAT      O 5686   3.660   2.329   8.271
 1815WAT     H1 5687   3.583   2.364   8.217
 1815WAT     H2 5688   3.686   2.396   8.340
 1816WAT      O 5689   2.417   3.491   6.817
 1816WAT     H1 5690   2.337   3.469   6.873
 1816WAT     H2 5691   2.427   3.591   6.811
 1817WAT      O 5692   9.518   7.155   4.765
 1817WAT     H1 5693   9.420   7.137   4.756
 1817WAT     H2 5694   9.544   7.149   4.861
 1818WAT      O 5695   5.698   3.642   0.880
 1818WAT     H1 5696   5.690   3.550   0.842
 1818WAT     H2 5697   5.731   3.705   0.809
 1819WAT      O 5698   1.967   1.611   4.763
 1819WAT     H1 5699   1.993   1.692   4.816
 1819WAT     H2 5700   2.048   1.572   4.719
 1820WAT      O 5701   3.457   2.411   2.387
 1820WAT     H1 5702   3.489   2.506   2.381
 1820WAT     H2 5703   3.361   2.410   2.416
 1821WAT      O 5704   2.692   6.015   9.091
 1821WAT     H1 5705   2.781   5.978   9.064
 1821WAT     H2 5706   2.646   5.951   9.152
 1822WAT      O 5707   9.798   3.699   5.756
 1822WAT     H1 5708   9.877   3.723   5.812
 1822WAT     H2 5709   9.824   3.700   5.660
 1823WAT      O 5710   3.361   0.348   4.337
 1823WAT     H1 5711   3.428   0.287   4.296
 1823WAT     H2 5712   3.299   0.382   4.267
 1824WAT      O 5713   2.997   7.411   6.184
 1824WAT     H1 5714   2.988   7.508   6.161
 1824WAT     H2 5715   2.912   7.364   6.162
 1825WAT      O 5716   4.247   9.599   4.489
 1825WAT     H1 5717   4.230   9.509   4.450
 1825WAT     H2 5718   4.163   9.633   4.532
 1826WAT      O 5719   6.200   1.795   7.535
 1826WAT     H1 5720   6.145   1.854   7.593
 1826WAT     H2 5721   6.189   1.823   7.439
 1827WAT      O 5722   9.299   0.508   1.356
 1827WAT     H1 5723   9.203   0.496   1.332
 1827WAT     H2 5724   9.310   0.590   1.412
 1828WAT      O 5725   8.151   2.455   0.946
 1828WAT     H1 5726   8.157   2.411   0.856
 1828WAT     H2 5727   8.235   2.436   0.997
 1829WAT      O 5728   3.553   8.037   3.470
 1829WAT     H1 5729   3.520   7.954   3.425
 1829WAT     H2 5730   3.476   8.099   3.487
 1830WAT      O 5731   2.583   6.978   4.282
 1830WAT     H1 5732   2.606   6.881   4.271
 1830WAT     H2 5733   2.510   6.988   4.349
 1831WAT      O 5734   7.821   4.638   4.030
 1831WAT     H1 5735   7.802   4.598   4.119
 1831WAT     H2 5736   7.850   4.734   4.042
 1832WAT      O 5737   0.440   4.623   5.673
 1832WAT     H1 5738   0.511   4.692   5.670
 1832WAT     H2 5739   0.360   4.654   5.621
 1833WAT      O 5740   1.974   2.966   0.088
 1833WAT     H1 5741   1.998   2.964  -0.009
 1833WAT     H2 5742   1.955   2.872   0.119
 1834WAT      O 5743   3.781   3.950   9.054
 1834WAT     H1 5744   3.733   3.878   9.104
 1834WAT     H2 5745   3.870   3.916   9.023
 1835WAT      O 5746   0.571   1.779   9.076
 1835WAT     H1 5747   0.526   1.833   9.005
 1835WAT     H2 5748   0.506   1.712   9.114
 1836WAT      O 5749   5.552   2.874   5.931
 1836WAT     H1 5750   5.600   2.903   5.849
 1836WAT     H2 5751   5.584   2.928   6.009
 1837WAT      O 5752   2.866   1.723   4.029
 1837WAT     H1 5753   2.925   1.724   4.109
 1837WAT     H2 5754   2.771   1.709   4.057
 1838WAT      O 5755   4.575   9.074   1.066
 1838WAT     H1 5756   4.666   9.069   1.107
 1838WAT     H2 5757   4.533   8.983   1.069
 1839WAT      O 5758   5.566   0.619   4.065
 1839WAT     H1 5759   5.481   0.640   4.017
 1839WAT     H2 5760   5.641   0.670   4.024
 1840WAT      O 5761   3.654   0.480   5.964
 1840WAT     H1 5762   3.562   0.519   5.974
 1840WAT     H2 5763   3.657   0.391   6.010
 1841WAT      O 5764   6.108   2.723   2.422
 1841WAT     H1 5765   6.096   2.804   2.363
 1841WAT     H2 5766   6.021   2.698   2.463
 1842WAT      O 5767   9.547   7.123   9.715
 1842WAT     H1 5768   9.545   7.173   9.802
 1842WAT     H2 5769   9.630   7.147   9.665
 1843WAT      O 5770   6.129   5.717   8.655
 1843WAT     H1 5771   6.160   5.796   8.709
 1843WAT     H2 5772   6.113   5.746   8.561
 1844WAT      O 5773   9.162   1.441   1.115
 1844WAT     H1 5774   9.223   1.502   1.065
 1844WAT     H2 5775   9.208   1.354   1.133
 1845WAT      O 5776   2.899   1.649   2.183
 1845WAT     H1 5777   2.869   1.607   2.097
 1845WAT     H2 5778   2.927   1.578   2.247
 1846WAT      O 5779   7.588   4.344   2.494
 1846WAT     H1 5780   7.520   4.271   2.488
 1846WAT     H2 5781   7.669   4.310   2.540
 1847WAT      O 5782   8.143   8.154   4.518
 1847WAT     H1 5783   8.235   8.116   4.507
 1847WAT     H2 5784   8.147   8.231   4.582
 1848WAT      O 5785   2.913   2.259   7.912
 1848WAT     H1 5786   2.984   2.234   7.846
 1848WAT     H2 5787   2.846   2.318   7.868
 1849WAT      O 5788   7.373   9.550   5.356
 1849WAT     H1 5789   7.460   9.598   5.345
 1849WAT     H2 5790   7.302   9.598   5.304
 1850WAT      O 5791   9.446   5.615   6.422
 1850WAT     H1 5792   9.425   5.682   6.493
 1850WAT     H2 5793   9.544   5.612   6.407
 1851WAT      O 5794   7.275   5.515   3.036
 1851WAT     H1 5795   7.285   5.432   3.091
 1851WAT     H2 5796   7.193   5.565   3.064
 1852WAT      O 5797   8.539   3.697   3.358
 1852WAT     H1 5798   8.491   3.719   3.273
 1852WAT     H2 5799   8.541   3.597   3.370
 1853WAT      O 5800   8.829   3.284   7.347
 1853WAT     H1 5801   8.862   3.291   7.252
 1853WAT     H2 5802   8.846   3.192   7.382
 1854WAT      O 5803   9.831   5.578   4.656
 1854WAT     H1 5804   9.905   5.596   4.721
 1854WAT     H2 5805   9.748   5.624   4.686
 1855WAT      O 5806   3.537   9.579   8.825
 1855WAT     H1 5807   3.589   9.549   8.905
 1855WAT     H2 5808   3.528   9.679   8.826
 1856WAT      O 5809   5.301   9.419   1.400
 1856WAT     H1 5810   5.221   9.362   1.382
 1856WAT     H2 5811   5.287   9.510   1.360
 1857WAT      O 5812   2.506   6.020   6.163
 1857WAT     H1 5813   2.480   6.010   6.067
 1857WAT     H2 5814   2.567   5.946   6.188
 1858WAT      O 5815   8.625   2.125   0.557
 1858WAT     H1 5816   8.655   2.212   0.517
 1858WAT     H2 5817   8.662   2.116   0.650
 1859WAT      O 5818   5.261   6.698   3.217
 1859WAT     H1 5819   5.207   6.765   3.166
 1859WAT     H2 5820   5.357   6.705   3.190
 1860WAT      O 5821   2.041   3.730   8.047
 1860WAT     H1 5822   2.022   3.819   8.005
 1860WAT     H2 5823   1.983   3.718   8.128
 1861WAT      O 5824   6.623   1.952   8.495
 1861WAT     H1 5825   6.526   1.954   8.470
 1861WAT     H2 5826   6.660   2.044   8.493
 1862WAT      O 5827   1.710   6.463   2.980
 1862WAT     H1 5828   1.729   6.514   2.896
 1862WAT     H2 5829   1.760   6.377   2.978
 1863WAT      O 5830   1.418   3.949   5.821
 1863WAT     H1 5831   1.396   3.900   5.905
 1863WAT     H2 5832   1.334   3.976   5.774
 1864WAT      O 5833   5.159   6.312   0.265
 1864WAT     H1 5834   5.101   6.274   0.337
 1864WAT     H2 5835   5.168   6.410   0.277
 1865WAT      O 5836   4.991   4.939   7.348
 1865WAT     H1 5837   4.921   4.962   7.416
 1865WAT     H2 5838   5.080   4.929   7.394
 1866WAT      O 5839   9.468   4.771   0.233
 1866WAT     H1 5840   9.448   4.674   0.220
 1866WAT     H2 5841   9.400   4.826   0.185
 1867WAT      O 5842   5.349   2.559   5.860
 1867WAT     H1 5843   5.265   2.521   5.899
 1867WAT     H2 5844   5.416   2.485   5.847
 1868WAT      O 5845   3.640   8.825   8.676
 1868WAT     H1 5846   3.698   8.855   8.752
 1868WAT     H2 5847   3.695   8.771   8.612
 1869WAT      O 5848   7.023   1.437   2.298
 1869WAT     H1 5849   7.117   1.407   2.285
 1869WAT     H2 5850   6.995   1.419   2.392
 1870WAT      O 5851   9.057   0.680   0.923
 1870WAT     H1 5852   8.979   0.651   0.867
 1870WAT     H2 5853   9.043   0.651   1.017
 1871WAT      O 5854   4.999   3.492   0.411
 1871WAT     H1 5855   4.958   3.442   0.487
 1871WAT     H2 5856   5.098   3.476   0.411
 1872WAT      O 5857   8.971   5.759   6.437
 1872WAT     H1 5858   8.997   5.684   6.376
 1872WAT     H2 5859   8.927   5.723   6.519
 1873WAT      O 5860   7.497   2.561   4.287
 1873WAT     H1 5861   7.513   2.533   4.382
 1873WAT     H2 5862   7.406   2.531   4.258
 1874WAT      O 5863   7.426   8.530   2.194
 1874WAT     H1 5864   7.447   8.508   2.289
 1874WAT     H2 5865   7.478   8.468   2.134
 1875WAT      O 5866   1.680   6.740   8.094
 1875WAT     H1 5867   1.771   6.743   8.054
 1875WAT     H2 5868   1.661   6.826   8.142
 1876WAT      O 5869   9.457   3.819   1.608
 1876WAT     H1 5870   9.463   3.721   1.630
 1876WAT     H2 5871   9.524   3.840   1.537
 1877WAT      O 5872   0.516   0.310   9.726
 1877WAT     H1 5873   0.519   0.365   9.642
 1877WAT     H2 5874   0.471   0.362   9.798
 1878WAT      O 5875   9.408   1.107   6.115
 1878WAT     H1 5876   9.418   1.107   6.015
 1878WAT     H2 5877   9.330   1.050   6.141
 1879WAT      O 5878   4.743   5.144   9.781
 1879WAT     H1 5879   4.659   5.106   9.743
 1879WAT     H2 5880   4.817   5.133   9.714
 1880WAT      O 5881   6.349   7.781   5.319
 1880WAT     H1 5882   6.424   7.819   5.266
 1880WAT     H2 5883   6.384   7.737   5.401
 1881WAT      O 5884   2.358   4.674   3.049
 1881WAT     H1 5885   2.391   4.695   3.141
 1881WAT     H2 5886   2.263   4.643   3.055
 1882WAT      O 5887   7.231   3.656   5.617
 1882WAT     H1 5888   7.174   3.598   5.675
 1882WAT     H2 5889   7.271   3.600   5.544
 1883WAT      O 5890   0.533   8.213   0.797
 1883WAT     H1 5891   0.466   8.165   0.740
 1883WAT     H2 5892   0.486   8.283   0.850
 1884WAT      O 5893   5.873   2.551   8.518
 1884WAT     H1 5894   5.859   2.492   8.597
 1884WAT     H2 5895   5.971   2.568   8.506
 1885WAT      O 5896   2.984   4.208   8.539
 1885WAT     H1 5897   3.060   4.264   8.572
 1885WAT     H2 5898   3.017   4.146   8.467
 1886WAT      O 5899   1.817   2.275   3.616
 1886WAT     H1 5900   1.750   2.254   3.545
 1886WAT     H2 5901   1.896   2.214   3.608
 1887WAT      O 5902   7.627   2.033   6.037
 1887WAT     H1 5903   7.698   2.089   6.079
 1887WAT     H2 5904   7.662   1.941   6.019
 1888WAT      O 5905   8.813   7.103   6.809
 1888WAT     H1 5906   8.806   7.168   6.733
 1888WAT     H2 5907   8.744   7.124   6.878
 1889WAT      O 5908   6.731   1.787   8.270
 1889WAT     H1 5909   6.704   1.836   8.353
 1889WAT     H2 5910   6.712   1.690   8.281
 1890WAT      O 5911   0.938   2.662   0.311
 1890WAT     H1 5912   0.987   2.581   0.343
 1890WAT     H2 5913   0.849   2.667   0.357
 1891WAT      O 5914   1.449   5.311   5.362
 1891WAT     H1 5915   1.483   5.403   5.378
 1891WAT     H2 5916   1.519   5.257   5.316
 1892WAT      O 5917   0.708   3.610   9.600
 1892WAT     H1 5918   0.659   3.647   9.521
 1892WAT     H2 5919   0.756   3.526   9.573
 1893WAT      O 5920   3.993   7.721   7.978
 1893WAT     H1 5921   3.936   7.671   8.044
 1893WAT     H2 5922   4.016   7.811   8.015
 1894WAT      O 5923   3.821   3.447   2.155
 1894WAT     H1 5924   3.899   3.425   2.213
 1894WAT     H2 5925   3.788   3.539   2.177
 1895WAT      O 5926   1.024   2.116   6.103
 1895WAT     H1 5927   0.993   2.055   6.030
 1895WAT     H2 5928   1.108   2.080   6.143
 1896WAT      O 5929   2.189   2.792   0.996
 1896WAT     H1 5930   2.247   2.852   0.941
 1896WAT     H2 5931   2.236   2.705   1.012
 1897WAT      O 5932   1.421   6.737   4.136
 1897WAT     H1 5933   1.322   6.740   4.117
 1897WAT     H2 5934   1.465   6.676   4.070
 1898WAT      O 5935   1.264   9.582   0.040
 1898WAT     H1 5936   1.165   9.572   0.033
 1898WAT     H2 5937   1.288   9.620   0.129
 1899WAT      O 5938   4.618   3.254   1.064
 1899WAT     H1 5939   4.620   3.172   1.122
 1899WAT     H2 5940   4.703   3.305   1.077
 1900WAT      O 5941   0.618   7.533   0.602
 1900WAT     H1 5942   0.645   7.589   0.680
 1900WAT     H2 5943   0.531   7.488   0.622
 1901WAT      O 5944   5.484   4.364   5.793
 1901WAT     H1 5945   5.396   4.410   5.803
 1901WAT     H2 5946   5.480   4.274   5.837
 1902WAT      O 5947   7.516   8.592   5.835
 1902WAT     H1 5948   7.466   8.508   5.855
 1902WAT     H2 5949   7.597   8.571   5.781
 1903WAT      O 5950   0.768   9.824   8.493
 1903WAT     H1 5951   0.843   9.848   8.555
 1903WAT     H2 5952   0.742   9.729   8.508
 1904WAT      O 5953   9.423   4.179   0.651
 1904WAT     H1 5954   9.485   4.142   0.581
 1904WAT     H2 5955   9.476   4.207   0.731
 1905WAT      O 5956   1.009   6.041   1.827
 1905WAT     H1 5957   1.065   5.959   1.817
 1905WAT     H2 5958   1.010   6.071   1.923
 1906WAT      O 5959   4.094   5.581   0.152
 1906WAT     H1 5960   4.082   5.679   0.135
 1906WAT     H2 5961   4.135   5.568   0.242
 1907WAT      O 5962   1.994   7.342   5.800
 1907WAT     H1 5963   2.092   7.353   5.817
 1907WAT     H2 5964   1.963   7.254   5.836
 1908WAT      O 5965   5.476   4.209   1.776
 1908WAT     H1 5966   5.516   4.284   1.722
 1908WAT     H2 5967   5.479   4.233   1.873
 1909WAT      O 5968   6.905   9.500   9.513
 1909WAT     H1 5969   6.868   9.412   9.486
 1909WAT     H2 5970   7.005   9.498   9.507
 1910WAT      O 5971   9.556   2.671   2.684
 1910WAT     H1 5972   9.545   2.768   2.662
 1910WAT     H2 5973   9.522   2.654   2.776
 1911WAT      O 5974   9.190   5.105   8.544
 1911WAT     H1 5975   9.266   5.042   8.530
 1911WAT     H2 5976   9.130   5.104   8.464
 1912WAT      O 5977   9.409   2.979   1.982
 1912WAT     H1 5978   9.499   2.953   1.946
 1912WAT     H2 5979   9.421   3.031   2.066
 1913WAT      O 5980   5.368   4.291   1.370
 1913WAT     H1 5981   5.318   4.275   1.285
 1913WAT     H2 5982   5.325   4.238   1.443
 1914WAT      O 5983   0.773   1.230   3.919
 1914WAT     H1 5984   0.819   1.233   4.008
 1914WAT     H2 5985   0.756   1.134   3.894
 1915WAT      O 5986   0.079   2.653   1.196
 1915WAT     H1 5987  -0.007   2.607   1.217
 1915WAT     H2 5988   0.152   2.616   1.253
 1916WAT      O 5989   0.105   4.423   3.605
 1916WAT     H1 5990   0.074   4.518   3.609
 1916WAT     H2 5991   0.071   4.373   3.684
 1917WAT      O 5992   8.900   6.672   3.020
 1917WAT     H1 5993   8.903   6.588   3.075
 1917WAT     H2 5994   8.846   6.741   3.069
 1918WAT      O 5995   6.770   1.054   5.514
 1918WAT     H1 5996   6.736   1.113   5.441
 1918WAT     H2 5997   6.782   1.108   5.598
 1919WAT      O 5998   8.352   5.442   2.315
 1919WAT     H1 5999   8.302   5.527   2.330
 1919WAT     H2 6000   8.375   5.400   2.403
 1920WAT      O 6001   2.083   1.302   6.610
 1920WAT     H1 6002   2.170   1.352   6.602
 1920WAT     H2 6003   2.059   1.293   6.707
 1921WAT      O 6004   6.288   3.619   4.638
 1921WAT     H1 6005   6.244   3.535   4.605
 1921WAT     H2 6006   6.339   3.600   4.721
 1922WAT      O 6007   6.845   8.133   0.785
 1922WAT     H1 6008   6.751   8.139   0.753
 1922WAT     H2 6009   6.907   8.159   0.710
 1923WAT      O 6010   7.524   2.987   5.618
 1923WAT     H1 6011   7.473   3.066   5.650
 1923WAT     H2 6012   7.577   2.948   5.694
 1924WAT      O 6013   5.978   5.062   5.779
 1924WAT     H1 6014   6.031   5.079   5.696
 1924WAT     H2 6015   6.018   4.984   5.828
 1925WAT      O 6016   9.536   3.051   2.215
 1925WAT     H1 6017   9.627   3.087   2.232
 1925WAT     H2 6018   9.533   2.954   2.237
 1926WAT      O 6019   6.104   3.593   3.944
 1926WAT     H1 6020   6.028   3.528   3.933
 1926WAT     H2 6021   6.068   3.686   3.946
 1927WAT      O 6022   5.959   9.340   3.433
 1927WAT     H1 6023   6.001   9.415   3.381
 1927WAT     H2 6024   5.955   9.258   3.376
 1928WAT      O 6025   5.434   3.749   0.853
 1928WAT     H1 6026   5.515   3.698   0.880
 1928WAT     H2 6027   5.375   3.763   0.933
 1929WAT      O 6028   3.543   6.539   0.581
 1929WAT     H1 6029   3.569   6.632   0.553
 1929WAT     H2 6030   3.476   6.544   0.655
 1930WAT      O 6031   7.455   8.396   1.645
 1930WAT     H1 6032   7.366   8.363   1.675
 1930WAT     H2 6033   7.511   8.419   1.725
 1931WAT      O 6034   4.042   7.664   2.485
 1931WAT     H1 6035   3.958   7.669   2.539
 1931WAT     H2 6036   4.023   7.689   2.390
 1932WAT      O 6037   5.572   4.032   0.678
 1932WAT     H1 6038   5.527   4.052   0.765
 1932WAT     H2 6039   5.589   4.117   0.629
 1933WAT      O 6040   4.396   3.723   2.239
 1933WAT     H1 6041   4.316   3.665   2.229
 1933WAT     H2 6042   4.414   3.770   2.152
 1934WAT      O 6043   7.896   6.335   5.884
 1934WAT     H1 6044   7.886   6.434   5.873
 1934WAT     H2 6045   7.898   6.313   5.981
 1935WAT      O 6046   9.030   1.173   3.778
 1935WAT     H1 6047   8.947   1.228   3.790
 1935WAT     H2 6048   9.008   1.090   3.727
 1936WAT      O 6049   1.442   8.572   0.126
 1936WAT     H1 6050   1.455   8.484   0.173
 1936WAT     H2 6051   1.357   8.569   0.073
 1937WAT      O 6052   8.743   1.765   9.714
 1937WAT     H1 6053   8.777   1.848   9.668
 1937WAT     H2 6054   8.819   1.704   9.732
 1938WAT      O 6055   7.791   0.036   9.810
 1938WAT     H1 6056   7.796  -0.061   9.831
 1938WAT     H2 6057   7.765   0.087   9.893
 1939WAT      O 6058   9.030   2.472   9.537
 1939WAT     H1 6059   8.983   2.497   9.622
 1939WAT     H2 6060   8.962   2.464   9.463
 1940WAT      O 6061   6.839   0.302   2.434
 1940WAT     H1 6062   6.909   0.283   2.503
 1940WAT     H2 6063   6.749   0.304   2.478
 1941WAT      O 6064   5.175   5.822   0.044
 1941WAT     H1 6065   5.140   5.806   0.136
 1941WAT     H2 6066   5.186   5.735  -0.003
 1942WAT      O 6067   0.941   7.795   1.153
 1942WAT     H1 6068   0.876   7.870   1.164
 1942WAT     H2 6069   0.906   7.713   1.198
 1943WAT      O 6070   2.113   3.763   2.708
 1943WAT     H1 6071   2.177   3.754   2.785
 1943WAT     H2 6072   2.020   3.753   2.741
 1944WAT      O 6073   7.947   3.369   6.091
 1944WAT     H1 6074   8.017   3.422   6.138
 1944WAT     H2 6075   7.863   3.423   6.084
 1945WAT      O 6076   4.198   5.308   0.118
 1945WAT     H1 6077   4.218   5.372   0.192
 1945WAT     H2 6078   4.129   5.347   0.058
 1946WAT      O 6079   3.521   8.618   5.094
 1946WAT     H1 6080   3.588   8.564   5.042
 1946WAT     H2 6081   3.498   8.700   5.043
 1947WAT      O 6082   6.855   0.693   6.188
 1947WAT     H1 6083   6.795   0.640   6.249
 1947WAT     H2 6084   6.943   0.647   6.182
 1948WAT      O 6085   8.006   7.743   2.918
 1948WAT     H1 6086   8.065   7.676   2.962
 1948WAT     H2 6087   7.922   7.754   2.971
 1949WAT      O 6088   2.866   5.317   4.262
 1949WAT     H1 6089   2.934   5.307   4.190
 1949WAT     H2 6090   2.814   5.402   4.247
 1950WAT      O 6091   3.057   6.439   1.359
 1950WAT     H1 6092   3.031   6.405   1.450
 1950WAT     H2 6093   2.987   6.502   1.326
 1951WAT      O 6094   3.842   8.981   2.834
 1951WAT     H1 6095   3.826   9.035   2.916
 1951WAT     H2 6096   3.764   8.919   2.820
 1952WAT      O 6097   9.698   5.768   3.417
 1952WAT     H1 6098   9.774   5.709   3.391
 1952WAT     H2 6099   9.721   5.817   3.501
 1953WAT      O 6100   2.474   6.702   8.493
 1953WAT     H1 6101   2.412   6.623   8.497
 1953WAT     H2 6102   2.531   6.703   8.575
 1954WAT      O 6103   2.158   8.310   6.907
 1954WAT     H1 6104   2.096   8.233   6.892
 1954WAT     H2 6105   2.212   8.327   6.825
 1955WAT      O 6106   8.428   6.087   6.925
 1955WAT     H1 6107   8.496   6.148   6.885
 1955WAT     H2 6108   8.440   5.995   6.889
 1956WAT      O 6109   8.137   8.748   4.831
 1956WAT     H1 6110   8.154   8.738   4.733
 1956WAT     H2 6111   8.080   8.830   4.847
 1957WAT      O 6112   6.480   1.431   0.624
 1957WAT     H1 6113   6.453   1.355   0.683
 1957WAT     H2 6114   6.412   1.504   0.631
 1958WAT      O 6115   3.214   2.374   8.427
 1958WAT     H1 6116   3.189   2.431   8.505
 1958WAT     H2 6117   3.133   2.357   8.371
 1959WAT      O 6118   7.345   7.826   3.157
 1959WAT     H1 6119   7.319   7.909   3.205
 1959WAT     H2 6120   7.438   7.836   3.122
 1960WAT      O 6121   2.608   2.051   6.977
 1960WAT     H1 6122   2.697   2.088   7.002
 1960WAT     H2 6123   2.555   2.121   6.929
 1961WAT      O 6124   1.180   8.973   4.165
 1961WAT     H1 6125   1.105   8.972   4.098
 1961WAT     H2 6126   1.147   8.933   4.251
 1962WAT      O 6127   8.185   7.309   7.527
 1962WAT     H1 6128   8.177   7.408   7.517
 1962WAT     H2 6129   8.248   7.273   7.458
 1963WAT      O 6130   1.378   1.471   6.211
 1963WAT     H1 6131   1.284   1.505   6.206
 1963WAT     H2 6132   1.434   1.538   6.260
 1964WAT      O 6133   2.378   9.204   6.277
 1964WAT     H1 6134   2.386   9.258   6.193
 1964WAT     H2 6135   2.291   9.156   6.278
 1965WAT      O 6136   0.158   9.091   2.820
 1965WAT     H1 6137   0.086   9.146   2.861
 1965WAT     H2 6138   0.150   9.095   2.720
 1966WAT      O 6139   4.779   5.250   8.623
 1966WAT     H1 6140   4.709   5.310   8.660
 1966WAT     H2 6141   4.761   5.234   8.526
 1967WAT      O 6142   8.762   7.475   9.092
 1967WAT     H1 6143   8.741   7.572   9.100
 1967WAT     H2 6144   8.736   7.443   9.001
 1968WAT      O 6145   0.142   4.038   3.905
 1968WAT     H1 6146   0.082   3.986   3.844
 1968WAT     H2 6147   0.174   3.979   3.979
 1969WAT      O 6148   6.346   8.177   0.784
 1969WAT     H1 6149   6.359   8.099   0.846
 1969WAT     H2 6150   6.262   8.226   0.809
 1970WAT      O 6151   3.265   1.001   9.086
 1970WAT     H1 6152   3.258   0.913   9.133
 1970WAT     H2 6153   3.314   0.989   9.000
 1971WAT      O 6154   4.080   1.367   0.576
 1971WAT     H1 6155   4.124   1.450   0.539
 1971WAT     H2 6156   3.994   1.351   0.528
 1972WAT      O 6157   0.304   9.758   1.689
 1972WAT     H1 6158   0.338   9.779   1.597
 1972WAT     H2 6159   0.373   9.705   1.739
 1973WAT      O 6160   5.458   7.959   5.358
 1973WAT     H1 6161   5.413   7.880   5.316
 1973WAT     H2 6162   5.393   8.035   5.365
 1974WAT      O 6163   0.071   3.876   6.086
 1974WAT     H1 6164  -0.009   3.877   6.146
 1974WAT     H2 6165   0.127   3.957   6.103
 1975WAT      O 6166   9.249   9.364   2.700
 1975WAT     H1 6167   9.242   9.284   2.759
 1975WAT     H2 6168   9.229   9.337   2.606
 1976WAT      O 6169   8.930   3.672   6.659
 1976WAT     H1 6170   8.934   3.680   6.759
 1976WAT     H2 6171   8.842   3.632   6.633
 1977WAT      O 6172   1.822   5.529   2.468
 1977WAT     H1 6173   1.831   5.473   2.385
 1977WAT     H2 6174   1.872   5.615   2.456
 1978WAT      O 6175   0.720   3.977   8.995
 1978WAT     H1 6176   0.686   4.068   9.018
 1978WAT     H2 6177   0.812   3.985   8.957
 1979WAT      O 6178   7.858   3.155   7.243
 1979WAT     H1 6179   7.849   3.056   7.234
 1979WAT     H2 6180   7.780   3.200   7.200
 1980WAT      O 6181   4.448   7.584   4.093
 1980WAT     H1 6182   4.450   7.498   4.042
 1980WAT     H2 6183   4.522   7.583   4.162
 1981WAT      O 6184   7.596   1.681   2.766
 1981WAT     H1 6185   7.503   1.646   2.762
 1981WAT     H2 6186   7.605   1.742   2.844
 1982WAT      O 6187   9.677   0.791   6.379
 1982WAT     H1 6188   9.704   0.783   6.475
 1982WAT     H2 6189   9.715   0.714   6.327
 1983WAT      O 6190   0.010   5.129   6.889
 1983WAT     H1 6191   0.052   5.098   6.803
 1983WAT     H2 6192  -0.077   5.174   6.869
 1984WAT      O 6193   6.597   7.877   0.134
 1984WAT     H1 6194   6.675   7.840   0.082
 1984WAT     H2 6195   6.514   7.828   0.109
 1985WAT      O 6196   4.427   7.575   0.887
 1985WAT     H1 6197   4.517   7.547   0.920
 1985WAT     H2 6198   4.413   7.672   0.908
 1986WAT      O 6199   2.600   4.819   4.571
 1986WAT     H1 6200   2.586   4.725   4.542
 1986WAT     H2 6201   2.513   4.860   4.598
 1987WAT      O 6202   1.475   0.004   8.831
 1987WAT     H1 6203   1.488   0.091   8.784
 1987WAT     H2 6204   1.522   0.007   8.919
 1988WAT      O 6205   7.323   5.941   6.713
 1988WAT     H1 6206   7.319   6.033   6.673
 1988WAT     H2 6207   7.336   5.949   6.812
 1989WAT      O 6208   7.233   0.850   3.556
 1989WAT     H1 6209   7.303   0.881   3.492
 1989WAT     H2 6210   7.150   0.824   3.507
 1990WAT      O 6211   9.493   8.807   7.470
 1990WAT     H1 6212   9.476   8.896   7.427
 1990WAT     H2 6213   9.462   8.734   7.409
 1991WAT      O 6214   8.396   3.399   0.262
 1991WAT     H1 6215   8.312   3.376   0.312
 1991WAT     H2 6216   8.434   3.316   0.222
 1992WAT      O 6217   5.826   5.144   8.420
 1992WAT     H1 6218   5.741   5.186   8.452
 1992WAT     H2 6219   5.903   5.179   8.472
 1993WAT      O 6220   0.535   3.321   0.786
 1993WAT     H1 6221   0.518   3.253   0.714
 1993WAT     H2 6222   0.632   3.321   0.809
 1994WAT      O 6223   3.856   1.061   4.168
 1994WAT     H1 6224   3.873   1.100   4.258
 1994WAT     H2 6225   3.811   0.972   4.178
 1995WAT      O 6226   8.189   0.815   3.234
 1995WAT     H1 6227   8.246   0.828   3.316
 1995WAT     H2 6228   8.225   0.871   3.160
 1996WAT      O 6229   0.481   3.314   9.895
 1996WAT     H1 6230   0.474   3.401   9.846
 1996WAT     H2 6231   0.542   3.252   9.845
 1997WAT      O 6232   0.115   8.830   8.706
 1997WAT     H1 6233   0.091   8.893   8.632
 1997WAT     H2 6234   0.105   8.736   8.673
 1998WAT      O 6235   9.824   3.156   5.169
 1998WAT     H1 6236   9.775   3.081   5.125
 1998WAT     H2 6237   9.922   3.133   5.174
 1999WAT      O 6238   0.323   3.110   3.673
 1999WAT     H1 6239   0.408   3.093   3.723
 1999WAT     H2 6240   0.329   3.197   3.625
 2000WAT      O 6241   3.226   1.055   0.229
 2000WAT     H1 6242   3.313   1.008   0.212
 2000WAT     H2 6243   3.234   1.110   0.312
 2001WAT      O 6244   0.435   4.001   5.831
 2001WAT     H1 6245   0.481   4.069   5.775
 2001WAT     H2 6246   0.447   4.023   5.928
 2002WAT      O 6247   6.240   4.849   9.111
 2002WAT     H1 6248   6.230   4.918   9.039
 2002WAT     H2 6249   6.288   4.769   9.075
 2003WAT      O 6250   1.564   7.246   0.591
 2003WAT     H1 6251   1.530   7.158   0.558
 2003WAT     H2 6252   1.486   7.305   0.613
 2004WAT      O 6253   4.039   1.605   4.999
 2004WAT     H1 6254   4.002   1.529   5.053
 2004WAT     H2 6255   3.989   1.689   5.021
 2005WAT      O 6256   4.230   7.965   5.360
 2005WAT     H1 6257   4.308   7.913   5.326
 2005WAT     H2 6258   4.232   7.966   5.460
 2006WAT      O 6259   0.719   2.000   3.263
 2006WAT     H1 6260   0.663   2.054   3.201
 2006WAT     H2 6261   0.764   2.060   3.330
 2007WAT      O 6262   7.619   2.118   0.192
 2007WAT     H1 6263   7.711   2.152   0.213
 2007WAT     H2 6264   7.554   2.195   0.194
 2008WAT      O 6265   4.062   6.568   6.417
 2008WAT     H1 6266   4.149   6.615   6.401
 2008WAT     H2 6267   3.990   6.636   6.433
 2009WAT      O 6268   4.781   6.332   2.164
 2009WAT     H1 6269   4.715   6.270   2.122
 2009WAT     H2 6270   4.743   6.424   2.168
 2010WAT      O 6271   1.979   9.738   9.477
 2010WAT     H1 6272   1.941   9.657   9.434
 2010WAT     H2 6273   1.983   9.813   9.410
 2011WAT      O 6274   9.656   1.049   6.261
 2011WAT     H1 6275   9.651   0.949   6.258
 2011WAT     H2 6276   9.577   1.088   6.212
 2012WAT      O 6277   9.329   1.861   5.517
 2012WAT     H1 6278   9.382   1.867   5.602
 2012WAT     H2 6279   9.372   1.919   5.447
 2013WAT      O 6280   2.363   4.286   3.547
 2013WAT     H1 6281   2.373   4.318   3.453
 2013WAT     H2 6282   2.453   4.264   3.584
 2014WAT      O 6283   8.623   8.902   4.852
 2014WAT     H1 6284   8.684   8.901   4.772
 2014WAT     H2 6285   8.546   8.963   4.834
 2015WAT      O 6286   6.526   5.145   7.675
 2015WAT     H1 6287   6.602   5.124   7.736
 2015WAT     H2 6288   6.445   5.095   7.705
 2016WAT      O 6289   7.670   1.168   3.094
 2016WAT     H1 6290   7.685   1.095   3.027
 2016WAT     H2 6291   7.660   1.255   3.046
 2017WAT      O 6292   9.473   8.415   0.300
 2017WAT     H1 6293   9.562   8.393   0.340
 2017WAT     H2 6294   9.481   8.498   0.246
 2018WAT      O 6295   3.705   5.431   2.774
 2018WAT     H1 6296   3.742   5.498   2.710
 2018WAT     H2 6297   3.682   5.477   2.860
 2019WAT      O 6298   0.529   9.394   0.634
 2019WAT     H1 6299   0.600   9.383   0.564
 2019WAT     H2 6300   0.447   9.344   0.606
 2020WAT      O 6301   3.083   2.741   5.271
 2020WAT     H1 6302   3.027   2.748   5.189
 2020WAT     H2 6303   3.171   2.786   5.254
 2021WAT      O 6304   7.422   3.693   4.989
 2021WAT     H1 6305   7.393   3.629   4.918
 2021WAT     H2 6306   7.346   3.710   5.051
 2022WAT      O 6307   7.177   2.970   4.209
 2022WAT     H1 6308   7.230   2.975   4.124
 2022WAT     H2 6309   7.105   2.901   4.199
 2023WAT      O 6310   5.020   5.311   4.639
 2023WAT     H1 6311   5.100   5.313   4.698
 2023WAT     H2 6312   5.024   5.230   4.581
 2024WAT      O 6313   5.092   7.471   9.445
 2024WAT     H1 6314   5.133   7.556   9.476
 2024WAT     H2 6315   5.113   7.398   9.510
 2025WAT      O 6316   8.927   5.713   1.338
 2025WAT     H1 6317   8.928   5.625   1.385
 2025WAT     H2 6318   8.868   5.707   1.258
 2026WAT      O 6319   4.634   1.137   6.651
 2026WAT     H1 6320   4.634   1.199   6.730
 2026WAT     H2 6321   4.600   1.186   6.571
 2027WAT      O 6322   4.596   1.528   3.054
 2027WAT     H1 6323   4.511   1.563   3.093
 2027WAT     H2 6324   4.596   1.428   3.059
 2028WAT      O 6325   0.065   7.858   5.771
 2028WAT     H1 6326   0.086   7.952   5.746
 2028WAT     H2 6327  -0.028   7.853   5.808
 2029WAT      O 6328   1.496   8.016   2.261
 2029WAT     H1 6329   1.452   8.065   2.185
 2029WAT     H2 6330   1.440   8.025   2.343
 2030WAT      O 6331   6.399   8.030   9.253
 2030WAT     H1 6332   6.457   8.020   9.334
 2030WAT     H2 6333   6.449   8.002   9.172
 2031WAT      O 6334   7.743   4.599   0.250
 2031WAT     H1 6335   7.684   4.526   0.217
 2031WAT     H2 6336   7.694   4.686   0.244
 2032WAT      O 6337   1.415   8.024   7.258
 2032WAT     H1 6338   1.500   7.972   7.267
 2032WAT     H2 6339   1.400   8.078   7.341
 2033WAT      O 6340   4.280   6.663   2.249
 2033WAT     H1 6341   4.320   6.747   2.211
 2033WAT     H2 6342   4.192   6.646   2.204
 2034WAT      O 6343   7.674   3.705   6.337
 2034WAT     H1 6344   7.675   3.758   6.253
 2034WAT     H2 6345   7.595   3.731   6.393
 2035WAT      O 6346   9.221   9.574   9.122
 2035WAT     H1 6347   9.141   9.520   9.149
 2035WAT     H2 6348   9.270   9.602   9.204
 2036WAT      O 6349   6.706   1.787   3.059
 2036WAT     H1 6350   6.607   1.795   3.048
 2036WAT     H2 6351   6.747   1.757   2.973
 2037WAT      O 6352   8.203   7.520   3.896
 2037WAT     H1 6353   8.293   7.503   3.855
 2037WAT     H2 6354   8.180   7.445   3.957
 2038WAT      O 6355   2.543   4.797   0.715
 2038WAT     H1 6356   2.594   4.799   0.629
 2038WAT     H2 6357   2.463   4.737   0.704
 2039WAT      O 6358   2.250   4.760   2.416
 2039WAT     H1 6359   2.246   4.761   2.516
 2039WAT     H2 6360   2.198   4.683   2.380
 2040WAT      O 6361   2.752   7.226   9.074
 2040WAT     H1 6362   2.759   7.194   9.168
 2040WAT     H2 6363   2.669   7.281   9.063
 2041WAT      O 6364   4.469   2.368   3.068
 2041WAT     H1 6365   4.407   2.319   3.129
 2041WAT     H2 6366   4.448   2.465   3.069
 2042WAT      O 6367   6.005   4.886   2.841
 2042WAT     H1 6368   6.049   4.885   2.931
 2042WAT     H2 6369   5.917   4.934   2.848
 2043WAT      O 6370   7.611   9.265   1.938
 2043WAT     H1 6371   7.679   9.219   1.994
 2043WAT     H2 6372   7.657   9.326   1.872
 2044WAT      O 6373   9.526   8.163   9.115
 2044WAT     H1 6374   9.441   8.182   9.164
 2044WAT     H2 6375   9.552   8.242   9.060
 2045WAT      O 6376   7.476   2.264   6.001
 2045WAT     H1 6377   7.523   2.181   6.032
 2045WAT     H2 6378   7.500   2.340   6.060
 2046WAT      O 6379   9.376   6.474   8.436
 2046WAT     H1 6380   9.393   6.555   8.493
 2046WAT     H2 6381   9.332   6.503   8.351
 2047WAT      O 6382   3.203   0.034   2.085
 2047WAT     H1 6383   3.114   0.022   2.129
 2047WAT     H2 6384   3.267   0.076   2.150
 2048WAT      O 6385   8.725   4.096   5.315
 2048WAT     H1 6386   8.746   4.093   5.412
 2048WAT     H2 6387   8.638   4.050   5.297
 2049WAT      O 6388   6.811   3.514   3.415
 2049WAT     H1 6389   6.859   3.541   3.331
 2049WAT     H2 6390   6.875   3.511   3.491
 2050WAT      O 6391   6.769   0.998   0.950
 2050WAT     H1 6392   6.771   0.898   0.944
 2050WAT     H2 6393   6.844   1.029   1.008
 2051WAT      O 6394   1.963   6.721   5.627
 2051WAT     H1 6395   1.869   6.694   5.648
 2051WAT     H2 6396   1.972   6.820   5.633
 2052WAT      O 6397   6.657   6.155   9.430
 2052WAT     H1 6398   6.651   6.121   9.336
 2052WAT     H2 6399   6.591   6.107   9.488
 2053WAT      O 6400   3.689   6.748   5.583
 2053WAT     H1 6401   3.612   6.800   5.619
 2053WAT     H2 6402   3.756   6.811   5.544
 2054WAT      O 6403   7.377   8.057   9.568
 2054WAT     H1 6404   7.298   8.054   9.629
 2054WAT     H2 6405   7.444   8.123   9.603
 2055WAT      O 6406   3.423   6.157   1.711
 2055WAT     H1 6407   3.485   6.153   1.790
 2055WAT     H2 6408   3.477   6.161   1.627
 2056WAT      O 6409   0.308   7.976   4.393
 2056WAT     H1 6410   0.211   7.999   4.404
 2056WAT     H2 6411   0.345   8.024   4.314
 2057WAT      O 6412   2.600   6.584   5.082
 2057WAT     H1 6413   2.581   6.556   5.176
 2057WAT     H2 6414   2.680   6.644   5.081
 2058WAT      O 6415   6.376   9.396   8.767
 2058WAT     H1 6416   6.362   9.483   8.718
 2058WAT     H2 6417   6.445   9.409   8.838
 2059WAT      O 6418   6.270   0.838   5.771
 2059WAT     H1 6419   6.221   0.763   5.727
 2059WAT     H2 6420   6.300   0.904   5.701
 2060WAT      O 6421   2.063   5.410   2.865
 2060WAT     H1 6422   1.986   5.409   2.929
 2060WAT     H2 6423   2.128   5.338   2.890
 2061WAT      O 6424   2.023   3.544   7.311
 2061WAT     H1 6425   2.105   3.486   7.303
 2061WAT     H2 6426   2.031   3.599   7.394
 2062WAT      O 6427   4.713   3.627   6.374
 2062WAT     H1 6428   4.685   3.564   6.446
 2062WAT     H2 6429   4.799   3.595   6.333
 2063WAT      O 6430   3.005   0.102   0.221
 2063WAT     H1 6431   2.947   0.183   0.228
 2063WAT     H2 6432   2.974   0.033   0.287
 2064WAT      O 6433   4.406   4.561   5.680
 2064WAT     H1 6434   4.493   4.606   5.702
 2064WAT     H2 6435   4.336   4.590   5.745
 2065WAT      O 6436   9.288   7.147   6.873
 2065WAT     H1 6437   9.377   7.174   6.837
 2065WAT     H2 6438   9.293   7.052   6.906
 2066WAT      O 6439   5.971   1.190   6.383
 2066WAT     H1 6440   5.871   1.200   6.383
 2066WAT     H2 6441   6.013   1.275   6.351
 2067WAT      O 6442   9.559   6.181   2.326
 2067WAT     H1 6443   9.560   6.206   2.229
 2067WAT     H2 6444   9.630   6.233   2.374
 2068WAT      O 6445   1.219   1.532   5.877
 2068WAT     H1 6446   1.239   1.469   5.952
 2068WAT     H2 6447   1.222   1.483   5.790
 2069WAT      O 6448   8.548   9.008   6.587
 2069WAT     H1 6449   8.494   8.924   6.597
 2069WAT     H2 6450   8.601   9.023   6.670
 2070WAT      O 6451   6.271   4.442   1.646
 2070WAT     H1 6452   6.204   4.421   1.575
 2070WAT     H2 6453   6.323   4.360   1.668
 2071WAT      O 6454   3.138   4.228   6.968
 2071WAT     H1 6455   3.182   4.175   6.895
 2071WAT     H2 6456   3.145   4.179   7.054
 2072WAT      O 6457   5.983   7.828   3.567
 2072WAT     H1 6458   5.933   7.871   3.642
 2072WAT     H2 6459   6.012   7.737   3.594
 2073WAT      O 6460   5.995   1.843   9.092
 2073WAT     H1 6461   6.027   1.775   9.027
 2073WAT     H2 6462   5.985   1.932   9.047
 2074WAT      O 6463   4.665   8.482   7.049
 2074WAT     H1 6464   4.587   8.544   7.046
 2074WAT     H2 6465   4.706   8.485   7.140
 2075WAT      O 6466   4.194   3.386   5.159
 2075WAT     H1 6467   4.129   3.415   5.089
 2075WAT     H2 6468   4.207   3.459   5.226
 2076WAT      O 6469   4.866   1.826   7.918
 2076WAT     H1 6470   4.892   1.795   8.009
 2076WAT     H2 6471   4.849   1.747   7.860
 2077WAT      O 6472   4.364   1.863   2.175
 2077WAT     H1 6473   4.433   1.790   2.179
 2077WAT     H2 6474   4.356   1.896   2.081
 2078WAT      O 6475   9.873   2.761   7.027
 2078WAT     H1 6476   9.865   2.663   7.042
 2078WAT     H2 6477   9.963   2.783   6.990
 2079WAT      O 6478   9.283   4.521   4.835
 2079WAT     H1 6479   9.340   4.506   4.916
 2079WAT     H2 6480   9.256   4.432   4.797
 2080WAT      O 6481   8.457   2.294   7.300
 2080WAT     H1 6482   8.540   2.239   7.297
 2080WAT     H2 6483   8.411   2.291   7.211
 2081WAT      O 6484   8.510   1.425   7.360
 2081WAT     H1 6485   8.573   1.428   7.437
 2081WAT     H2 6486   8.532   1.498   7.296
 2082WAT      O 6487   9.528   4.309   4.573
 2082WAT     H1 6488   9.547   4.223   4.621
 2082WAT     H2 6489   9.432   4.311   4.546
 2083WAT      O 6490   0.890   5.553   0.735
 2083WAT     H1 6491   0.910   5.478   0.797
 2083WAT     H2 6492   0.913   5.640   0.778
 2084WAT      O 6493   7.335   5.478   4.466
 2084WAT     H1 6494   7.421   5.432   4.445
 2084WAT     H2 6495   7.346   5.533   4.549
 2085WAT      O 6496   0.570   0.013   0.766
 2085WAT     H1 6497   0.662  -0.001   0.803
 2085WAT     H2 6498   0.534   0.100   0.798
 2086WAT      O 6499   0.026   3.515   3.072
 2086WAT     H1 6500   0.042   3.491   2.976
 2086WAT     H2 6501  -0.060   3.566   3.079
 2087WAT      O 6502   1.684   8.207   9.701
 2087WAT     H1 6503   1.665   8.109   9.698
 2087WAT     H2 6504   1.600   8.258   9.681
 2088WAT      O 6505   5.281   5.105   8.648
 2088WAT     H1 6506   5.274   5.099   8.747
 2088WAT     H2 6507   5.299   5.199   8.621
 2089WAT      O 6508   7.957   9.750   6.020
 2089WAT     H1 6509   8.008   9.723   5.938
 2089WAT     H2 6510   7.991   9.837   6.054
 2090WAT      O 6511   3.932   6.779   8.814
 2090WAT     H1 6512   3.882   6.864   8.829
 2090WAT     H2 6513   3.934   6.758   8.716
 2091WAT      O 6514   5.826   2.083   1.085
 2091WAT     H1 6515   5.883   2.153   1.042
 2091WAT     H2 6516   5.756   2.053   1.020
 2092WAT      O 6517   5.827   2.042   9.538
 2092WAT     H1 6518   5.874   2.125   9.510
 2092WAT     H2 6519   5.728   2.052   9.523
 2093WAT      O 6520   1.005   7.002   5.827
 2093WAT     H1 6521   1.041   7.029   5.917
 2093WAT     H2 6522   1.069   7.031   5.756
 2094WAT      O 6523   1.191   0.025   7.432
 2094WAT     H1 6524   1.242   0.078   7.500
 2094WAT     H2 6525   1.215  -0.072   7.440
 2095WAT      O 6526   0.603   3.906   6.287
 2095WAT     H1 6527   0.587   3.976   6.357
 2095WAT     H2 6528   0.684   3.853   6.310
 2096WAT      O 6529   1.035   8.435   6.512
 2096WAT     H1 6530   1.077   8.386   6.436
 2096WAT     H2 6531   1.004   8.525   6.482
 2097WAT      O 6532   3.141   7.985   3.999
 2097WAT     H1 6533   3.065   7.975   4.064
 2097WAT     H2 6534   3.224   8.011   4.048
 2098WAT      O 6535   0.744   3.213   1.452
 2098WAT     H1 6536   0.691   3.131   1.429
 2098WAT     H2 6537   0.683   3.291   1.462
 2099WAT      O 6538   2.006   6.389   7.433
 2099WAT     H1 6539   1.977   6.386   7.529
 2099WAT     H2 6540   2.100   6.421   7.428
 2100WAT      O 6541   9.777   2.100   4.700
 2100WAT     H1 6542   9.700   2.092   4.637
 2100WAT     H2 6543   9.744   2.133   4.788
 2101WAT      O 6544   3.668   1.051   7.236
 2101WAT     H1 6545   3.733   1.103   7.179
 2101WAT     H2 6546   3.710   1.034   7.325
 2102WAT      O 6547   8.431   4.763   4.266
 2102WAT     H1 6548   8.447   4.780   4.169
 2102WAT     H2 6549   8.501   4.700   4.301
 2103WAT      O 6550   4.720   4.454   0.828
 2103WAT     H1 6551   4.811   4.426   0.796
 2103WAT     H2 6552   4.650   4.397   0.784
 2104WAT      O 6553   1.578   6.422   3.540
 2104WAT     H1 6554   1.583   6.508   3.491
 2104WAT     H2 6555   1.516   6.360   3.492
 2105WAT      O 6556   6.186   7.100   5.825
 2105WAT     H1 6557   6.278   7.073   5.855
 2105WAT     H2 6558   6.121   7.089   5.900
 2106WAT      O 6559   2.716   1.264   0.798
 2106WAT     H1 6560   2.732   1.210   0.880
 2106WAT     H2 6561   2.766   1.223   0.721
 2107WAT      O 6562   0.286   7.231   0.304
 2107WAT     H1 6563   0.202   7.232   0.359
 2107WAT     H2 6564   0.352   7.295   0.343
 2108WAT      O 6565   5.571   1.369   4.672
 2108WAT     H1 6566   5.511   1.438   4.715
 2108WAT     H2 6567   5.577   1.289   4.731
 2109WAT      O 6568   8.275   8.903   0.101
 2109WAT     H1 6569   8.302   8.926   0.194
 2109WAT     H2 6570   8.264   8.804   0.093
 2110WAT      O 6571   6.790   4.518   0.019
 2110WAT     H1 6572   6.699   4.490  -0.012
 2110WAT     H2 6573   6.783   4.605   0.068
 2111WAT      O 6574   4.962   9.364   8.855
 2111WAT     H1 6575   4.999   9.348   8.947
 2111WAT     H2 6576   5.010   9.305   8.790
 2112WAT      O 6577   9.582   0.950   2.843
 2112WAT     H1 6578   9.639   1.029   2.866
 2112WAT     H2 6579   9.563   0.950   2.745
 2113WAT      O 6580   5.919   2.435   2.168
 2113WAT     H1 6581   5.883   2.348   2.134
 2113WAT     H2 6582   6.015   2.424   2.194
 2114WAT      O 6583   0.633   1.046   6.569
 2114WAT     H1 6584   0.684   0.968   6.607
 2114WAT     H2 6585   0.609   1.027   6.474
 2115WAT      O 6586   4.861   8.792   7.229
 2115WAT     H1 6587   4.910   8.705   7.216
 2115WAT     H2 6588   4.778   8.776   7.281
 2116WAT      O 6589   4.283   0.179   0.712
 2116WAT     H1 6590   4.250   0.123   0.789
 2116WAT     H2 6591   4.303   0.272   0.744
 2117WAT      O 6592   8.447   1.049   2.775
 2117WAT     H1 6593   8.455   1.032   2.677
 2117WAT     H2 6594   8.420   1.143   2.791
 2118WAT      O 6595   2.242   6.231   9.466
 2118WAT     H1 6596   2.193   6.286   9.533
 2118WAT     H2 6597   2.193   6.145   9.450
 2119WAT      O 6598   0.495   4.832   9.105
 2119WAT     H1 6599   0.562   4.794   9.041
 2119WAT     H2 6600   0.412   4.857   9.056
 2120WAT      O 6601   2.699   1.305   9.660
 2120WAT     H1 6602   2.781   1.320   9.605
 2120WAT     H2 6603   2.725   1.282   9.754
 2121WAT      O 6604   3.054   5.582   9.773
 2121WAT     H1 6605   3.142   5.616   9.805
 2121WAT     H2 6606   2.985   5.654   9.785
 2122WAT      O 6607   2.340   2.374   0.095
 2122WAT     H1 6608   2.344   2.274   0.106
 2122WAT     H2 6609   2.245   2.403   0.092
 2123WAT      O 6610   7.837   4.013   9.337
 2123WAT     H1 6611   7.847   3.942   9.407
 2123WAT     H2 6612   7.862   3.976   9.248
 2124WAT      O 6613   9.590   5.120   3.490
 2124WAT     H1 6614   9.496   5.085   3.495
 2124WAT     H2 6615   9.640   5.070   3.420
 2125WAT      O 6616   2.321   6.339   6.119
 2125WAT     H1 6617   2.298   6.365   6.212
 2125WAT     H2 6618   2.249   6.371   6.057
 2126WAT      O 6619   1.367   2.483   5.302
 2126WAT     H1 6620   1.287   2.424   5.308
 2126WAT     H2 6621   1.372   2.542   5.383
 2127WAT      O 6622   7.212   3.509   5.378
 2127WAT     H1 6623   7.279   3.542   5.312
 2127WAT     H2 6624   7.217   3.410   5.385
 2128WAT      O 6625   8.016   7.481   0.425
 2128WAT     H1 6626   8.091   7.417   0.412
 2128WAT     H2 6627   8.023   7.555   0.358
 2129WAT      O 6628   2.956   2.982   0.666
 2129WAT     H1 6629   2.858   2.997   0.658
 2129WAT     H2 6630   2.989   3.015   0.754
 2130WAT      O 6631   1.360   1.443   2.490
 2130WAT     H1 6632   1.275   1.478   2.453
 2130WAT     H2 6633   1.437   1.493   2.451
 2131WAT      O 6634   8.682   8.394   7.560
 2131WAT     H1 6635   8.680   8.393   7.660
 2131WAT     H2 6636   8.690   8.489   7.528
 2132WAT      O 6637   3.232   1.852   6.968
 2132WAT     H1 6638   3.153   1.907   6.995
 2132WAT     H2 6639   3.316   1.905   6.983
 2133WAT      O 6640   1.685   0.617   7.070
 2133WAT     H1 6641   1.769   0.646   7.023
 2133WAT     H2 6642   1.647   0.536   7.025
 2134WAT      O 6643   6.841   7.104   6.493
 2134WAT     H1 6644   6.850   7.196   6.456
 2134WAT     H2 6645   6.913   7.087   6.560
 2135WAT      O 6646   7.041   0.200   4.199
 2135WAT     H1 6647   7.141   0.210   4.194
 2135WAT     H2 6648   6.997   0.279   4.156
 2136WAT      O 6649   3.516   9.227   9.555
 2136WAT     H1 6650   3.424   9.189   9.566
 2136WAT     H2 6651   3.510   9.317   9.512
 2137WAT      O 6652   1.040   6.640   3.825
 2137WAT     H1 6653   0.992   6.688   3.751
 2137WAT     H2 6654   0.984   6.564   3.856
 2138WAT      O 6655   6.924   3.323   8.589
 2138WAT     H1 6656   6.968   3.321   8.499
 2138WAT     H2 6657   6.920   3.230   8.626
 2139WAT      O 6658   7.873   1.683   0.279
 2139WAT     H1 6659   7.824   1.754   0.229
 2139WAT     H2 6660   7.892   1.714   0.373
 2140WAT      O 6661   2.583   2.026   4.486
 2140WAT     H1 6662   2.578   2.044   4.585
 2140WAT     H2 6663   2.529   1.945   4.465
 2141WAT      O 6664   1.933   7.705   0.407
 2141WAT     H1 6665   1.916   7.671   0.314
 2141WAT     H2 6666   1.846   7.726   0.451
 2142WAT      O 6667   9.476   9.152   4.131
 2142WAT     H1 6668   9.485   9.230   4.193
 2142WAT     H2 6669   9.529   9.168   4.048
 2143WAT      O 6670   8.507   3.028   5.614
 2143WAT     H1 6671   8.483   2.960   5.545
 2143WAT     H2 6672   8.479   2.997   5.704
 2144WAT      O 6673   4.409   7.102   0.949
 2144WAT     H1 6674   4.350   7.183   0.949
 2144WAT     H2 6675   4.436   7.081   1.043
 2145WAT      O 6676   5.876   6.587   3.121
 2145WAT     H1 6677   5.802   6.650   3.144
 2145WAT     H2 6678   5.868   6.560   3.025
 2146WAT      O 6679   9.675   5.713   3.112
 2146WAT     H1 6680   9.669   5.745   3.207
 2146WAT     H2 6681   9.623   5.774   3.053
 2147WAT      O 6682   6.034   1.995   2.472
 2147WAT     H1 6683   5.980   2.073   2.441
 2147WAT     H2 6684   6.108   2.026   2.532
 2148WAT      O 6685   8.756   3.651   7.963
 2148WAT     H1 6686   8.820   3.715   8.007
 2148WAT     H2 6687   8.807   3.574   7.926
 2149WAT      O 6688   5.312   7.697   6.570
 2149WAT     H1 6689   5.314   7.651   6.659
 2149WAT     H2 6690   5.237   7.660   6.515
 2150WAT      O 6691   4.362   3.738   6.530
 2150WAT     H1 6692   4.369   3.717   6.432
 2150WAT     H2 6693   4.449   3.718   6.575
 2151WAT      O 6694   4.202   9.423   7.910
 2151WAT     H1 6695   4.241   9.355   7.973
 2151WAT     H2 6696   4.111   9.393   7.881
 2152WAT      O 6697   0.980   7.278   0.903
 2152WAT     H1 6698   1.065   7.269   0.955
 2152WAT     H2 6699   0.922   7.347   0.946
 2153WAT      O 6700   8.950   1.497   2.552
 2153WAT     H1 6701   8.962   1.503   2.651
 2153WAT     H2 6702   8.853   1.497   2.530
 2154WAT      O 6703   0.365   2.798   2.632
 2154WAT     H1 6704   0.314   2.759   2.555
 2154WAT     H2 6705   0.336   2.753   2.717
 2155WAT      O 6706   2.878   4.089   3.908
 2155WAT     H1 6707   2.870   4.069   3.810
 2155WAT     H2 6708   2.974   4.086   3.935
 2156WAT      O 6709   7.922   8.511   8.531
 2156WAT     H1 6710   7.956   8.431   8.580
 2156WAT     H2 6711   7.848   8.554   8.583
 2157WAT      O 6712   3.910   1.503   8.510
 2157WAT     H1 6713   3.869   1.440   8.446
 2157WAT     H2 6714   3.960   1.452   8.580
 2158WAT      O 6715   5.225   8.166   7.644
 2158WAT     H1 6716   5.290   8.213   7.585
 2158WAT     H2 6717   5.258   8.074   7.666
 2159WAT      O 6718   9.720   6.619   1.522
 2159WAT     H1 6719   9.794   6.575   1.472
 2159WAT     H2 6720   9.756   6.697   1.573
 2160WAT      O 6721   2.319   7.700   6.189
 2160WAT     H1 6722   2.220   7.701   6.180
 2160WAT     H2 6723   2.351   7.606   6.194
 2161WAT      O 6724   3.009   3.439   1.222
 2161WAT     H1 6725   3.065   3.521   1.227
 2161WAT     H2 6726   3.050   3.367   1.279
 2162WAT      O 6727   0.202   0.979   0.237
 2162WAT     H1 6728   0.296   0.989   0.203
 2162WAT     H2 6729   0.193   1.027   0.324
 2163WAT      O 6730   4.202   5.199   5.280
 2163WAT     H1 6731   4.172   5.109   5.312
 2163WAT     H2 6732   4.287   5.224   5.326
 2164WAT      O 6733   0.162   5.746   4.776
 2164WAT     H1 6734   0.236   5.761   4.710
 2164WAT     H2 6735   0.110   5.831   4.788
 2165WAT      O 6736   7.082   4.963   2.510
 2165WAT     H1 6737   7.145   5.007   2.446
 2165WAT     H2 6738   7.045   4.880   2.468
 2166WAT      O 6739   1.752   9.046   1.021
 2166WAT     H1 6740   1.810   9.101   0.961
 2166WAT     H2 6741   1.664   9.091   1.032
 2167WAT      O 6742   6.620   1.944   2.715
 2167WAT     H1 6743   6.624   2.038   2.679
 2167WAT     H2 6744   6.697   1.929   2.776
 2168WAT      O 6745   6.769   8.502   9.803
 2168WAT     H1 6746   6.809   8.573   9.861
 2168WAT     H2 6747   6.798   8.517   9.708
 2169WAT      O 6748   0.236   8.821   2.798
 2169WAT     H1 6749   0.177   8.899   2.817
 2169WAT     H2 6750   0.192   8.737   2.831
 2170WAT      O 6751   5.197   8.873   1.678
 2170WAT     H1 6752   5.109   8.915   1.658
 2170WAT     H2 6753   5.230   8.824   1.598
 2171WAT      O 6754   8.554   9.436   3.395
 2171WAT     H1 6755   8.588   9.392   3.311
 2171WAT     H2 6756   8.526   9.365   3.460
 2172WAT      O 6757   5.546   9.468   0.729
 2172WAT     H1 6758   5.505   9.415   0.803
 2172WAT     H2 6759   5.549   9.413   0.646
 2173WAT      O 6760   3.469   6.565   7.875
 2173WAT     H1 6761   3.474   6.663   7.855
 2173WAT     H2 6762   3.428   6.517   7.798
 2174WAT      O 6763   8.079   4.225   2.150
 2174WAT     H1 6764   8.068   4.231   2.249
 2174WAT     H2 6765   8.091   4.317   2.112
 2175WAT      O 6766   3.824   4.927   5.892
 2175WAT     H1 6767   3.725   4.940   5.885
 2175WAT     H2 6768   3.857   4.965   5.978
 2176WAT      O 6769   0.365   4.481   0.558
 2176WAT     H1 6770   0.459   4.455   0.580
 2176WAT     H2 6771   0.312   4.492   0.642
 2177WAT      O 6772   5.176   1.625   7.341
 2177WAT     H1 6773   5.262   1.596   7.300
 2177WAT     H2 6774   5.126   1.683   7.277
 2178WAT      O 6775   1.325   7.057   9.122
 2178WAT     H1 6776   1.423   7.040   9.137
 2178WAT     H2 6777   1.287   6.983   9.067
 2179WAT      O 6778   5.560   9.703   5.694
 2179WAT     H1 6779   5.558   9.643   5.615
 2179WAT     H2 6780   5.474   9.755   5.698
 2180WAT      O 6781   0.423   0.278   3.276
 2180WAT     H1 6782   0.333   0.246   3.307
 2180WAT     H2 6783   0.478   0.305   3.355
 2181WAT      O 6784   9.200   3.185   6.382
 2181WAT     H1 6785   9.168   3.263   6.328
 2181WAT     H2 6786   9.259   3.127   6.325
 2182WAT      O 6787   5.765   1.177   3.559
 2182WAT     H1 6788   5.775   1.273   3.583
 2182WAT     H2 6789   5.855   1.134   3.555
 2183WAT      O 6790   8.898   6.447   3.131
 2183WAT     H1 6791   8.875   6.445   3.228
 2183WAT     H2 6792   8.906   6.353   3.097
 2184WAT      O 6793   2.470   3.546   0.312
 2184WAT     H1 6794   2.418   3.473   0.357
 2184WAT     H2 6795   2.407   3.613   0.273
 2185WAT      O 6796   7.506   0.563   2.367
 2185WAT     H1 6797   7.424   0.611   2.335
 2185WAT     H2 6798   7.587   0.606   2.329
 2186WAT      O 6799   8.660   7.518   1.982
 2186WAT     H1 6800   8.648   7.611   1.945
 2186WAT     H2 6801   8.632   7.451   1.913
 2187WAT      O 6802   5.568   1.595   5.034
 2187WAT     H1 6803   5.663   1.628   5.035
 2187WAT     H2 6804   5.512   1.651   5.095
 2188WAT      O 6805   1.212   5.041   1.330
 2188WAT     H1 6806   1.115   5.051   1.307
 2188WAT     H2 6807   1.241   4.947   1.317
 2189WAT      O 6808   2.505   0.455   3.891
 2189WAT     H1 6809   2.509   0.554   3.896
 2189WAT     H2 6810   2.444   0.428   3.816
 2190WAT      O 6811   1.670   8.900   1.721
 2190WAT     H1 6812   1.667   8.839   1.800
 2190WAT     H2 6813   1.716   8.985   1.746
 2191WAT      O 6814   5.712   7.226   1.500
 2191WAT     H1 6815   5.708   7.166   1.580
 2191WAT     H2 6816   5.631   7.211   1.443
 2192WAT      O 6817   5.689   7.693   9.702
 2192WAT     H1 6818   5.788   7.686   9.716
 2192WAT     H2 6819   5.652   7.764   9.761
 2193WAT      O 6820   8.849   2.088   1.492
 2193WAT     H1 6821   8.884   2.164   1.437
 2193WAT     H2 6822   8.792   2.029   1.435
 2194WAT      O 6823   7.887   2.613   6.706
 2194WAT     H1 6824   7.953   2.650   6.772
 2194WAT     H2 6825   7.930   2.538   6.655
 2195WAT      O 6826   7.266   9.360   0.747
 2195WAT     H1 6827   7.209   9.411   0.812
 2195WAT     H2 6828   7.293   9.273   0.788
 2196WAT      O 6829   4.451   7.197   0.687
 2196WAT     H1 6830   4.421   7.150   0.770
 2196WAT     H2 6831   4.372   7.213   0.627
 2197WAT      O 6832   6.022   2.678   0.306
 2197WAT     H1 6833   5.995   2.745   0.237
 2197WAT     H2 6834   6.069   2.725   0.381
 2198WAT      O 6835   6.720   5.236   8.573
 2198WAT     H1 6836   6.682   5.193   8.490
 2198WAT     H2 6837   6.711   5.335   8.566
 2199WAT      O 6838   8.548   0.169   5.882
 2199WAT     H1 6839   8.462   0.118   5.884
 2199WAT     H2 6840   8.602   0.145   5.962
 2200WAT      O 6841   6.801   7.783   9.885
 2200WAT     H1 6842   6.843   7.693   9.893
 2200WAT     H2 6843   6.869   7.853   9.905
 2201WAT      O 6844   9.061   1.804   5.494
 2201WAT     H1 6845   9.009   1.743   5.435
 2201WAT     H2 6846   9.158   1.798   5.472
 2202WAT      O 6847   2.359   5.485   3.935
 2202WAT     H1 6848   2.429   5.415   3.947
 2202WAT     H2 6849   2.379   5.537   3.851
 2203WAT      O 6850   5.732   2.864   5.112
 2203WAT     H1 6851   5.681   2.895   5.192
 2203WAT     H2 6852   5.670   2.853   5.035
 2204WAT      O 6853   0.067   6.346   0.153
 2204WAT     H1 6854   0.145   6.331   0.214
 2204WAT     H2 6855   0.095   6.405   0.077
 2205WAT      O 6856   5.906   5.269   5.920
 2205WAT     H1 6857   5.943   5.193   5.865
 2205WAT     H2 6858   5.981   5.312   5.970
 2206WAT      O 6859   6.212   8.027   6.491
 2206WAT     H1 6860   6.142   8.098   6.491
 2206WAT     H2 6861   6.193   7.961   6.418
 2207WAT      O 6862   3.014   1.019   7.428
 2207WAT     H1 6863   2.975   1.106   7.396
 2207WAT     H2 6864   2.945   0.969   7.481
 2208WAT      O 6865   8.499   7.900   2.554
 2208WAT     H1 6866   8.487   7.828   2.486
 2208WAT     H2 6867   8.567   7.965   2.521
 2209WAT      O 6868   6.038   8.151   6.769
 2209WAT     H1 6869   6.081   8.065   6.796
 2209WAT     H2 6870   5.949   8.133   6.728
 2210WAT      O 6871   5.417   2.296   6.556
 2210WAT     H1 6872   5.380   2.370   6.611
 2210WAT     H2 6873   5.400   2.314   6.459
 2211WAT      O 6874   5.624   6.452   6.581
 2211WAT     H1 6875   5.546   6.393   6.560
 2211WAT     H2 6876   5.629   6.465   6.680
 2212WAT      O 6877   2.225   1.857   6.307
 2212WAT     H1 6878   2.259   1.771   6.269
 2212WAT     H2 6879   2.169   1.838   6.388
 2213WAT      O 6880   3.152   8.137   9.003
 2213WAT     H1 6881   3.102   8.166   9.085
 2213WAT     H2 6882   3.213   8.061   9.027
 2214WAT      O 6883   7.506   8.098   1.940
 2214WAT     H1 6884   7.422   8.152   1.936
 2214WAT     H2 6885   7.520   8.066   2.034
 2215WAT      O 6886   4.910   1.332   6.955
 2215WAT     H1 6887   4.995   1.383   6.960
 2215WAT     H2 6888   4.872   1.321   7.047
 2216WAT      O 6889   4.135   4.050   6.333
 2216WAT     H1 6890   4.081   4.049   6.416
 2216WAT     H2 6891   4.081   4.013   6.257
 2217WAT      O 6892   2.289   7.814   3.862
 2217WAT     H1 6893   2.190   7.800   3.856
 2217WAT     H2 6894   2.335   7.757   3.793
 2218WAT      O 6895   9.036   8.915   5.271
 2218WAT     H1 6896   9.084   8.918   5.183
 2218WAT     H2 6897   8.993   8.825   5.282
 2219WAT      O 6898   5.615   0.235   1.497
 2219WAT     H1 6899   5.687   0.264   1.559
 2219WAT     H2 6900   5.656   0.198   1.413
 2220WAT      O 6901   9.106   8.948   6.192
 2220WAT     H1 6902   9.189   8.899   6.165
 2220WAT     H2 6903   9.028   8.911   6.140
 2221WAT      O 6904   8.285   3.253   5.456
 2221WAT     H1 6905   8.316   3.175   5.402
 2221WAT     H2 6906   8.273   3.332   5.396
 2222WAT      O 6907   2.646   4.356   4.122
 2222WAT     H1 6908   2.638   4.452   4.149
 2222WAT     H2 6909   2.601   4.298   4.191
 2223WAT      O 6910   0.703   5.419   4.842
 2223WAT     H1 6911   0.668   5.482   4.772
 2223WAT     H2 6912   0.672   5.326   4.821
 2224WAT      O 6913   1.870   5.119   3.121
 2224WAT     H1 6914   1.906   5.079   3.037
 2224WAT     H2 6915   1.891   5.217   3.123
 2225WAT      O 6916   9.453   6.185   6.517
 2225WAT     H1 6917   9.402   6.127   6.581
 2225WAT     H2 6918   9.415   6.174   6.425
 2226WAT      O 6919   9.060   1.277   2.463
 2226WAT     H1 6920   9.033   1.266   2.367
 2226WAT     H2 6921   9.028   1.366   2.496
 2227WAT      O 6922   4.391   7.847   3.997
 2227WAT     H1 6923   4.421   7.754   4.014
 2227WAT     H2 6924   4.426   7.878   3.909
 2228WAT      O 6925   7.700   7.255   3.716
 2228WAT     H1 6926   7.608   7.289   3.736
 2228WAT     H2 6927   7.722   7.271   3.620
 2229WAT      O 6928   3.683   3.783   9.438
 2229WAT     H1 6929   3.665   3.690   9.470
 2229WAT     H2 6930   3.774   3.811   9.468
 2230WAT      O 6931   3.306   3.936   6.366
 2230WAT     H1 6932   3.232   4.003   6.357
 2230WAT     H2 6933   3.288   3.879   6.446
 2231WAT      O 6934   0.288   7.165   6.843
 2231WAT     H1 6935   0.342   7.207   6.770
 2231WAT     H2 6936   0.336   7.084   6.878
 2232WAT      O 6937   9.225   5.896   9.221
 2232WAT     H1 6938   9.207   5.843   9.138
 2232WAT     H2 6939   9.167   5.978   9.222
 2233WAT      O 6940   7.994   7.813   3.948
 2233WAT     H1 6941   8.033   7.897   3.986
 2233WAT     H2 6942   8.019   7.805   3.852
 2234WAT      O 6943   5.303   2.000   5.088
 2234WAT     H1 6944   5.304   2.034   5.182
 2234WAT     H2 6945   5.330   1.903   5.087
 2235WAT      O 6946   1.247   2.619   4.702
 2235WAT     H1 6947   1.260   2.520   4.695
 2235WAT     H2 6948   1.257   2.661   4.612
 2236WAT      O 6949   7.352   7.107   3.644
 2236WAT     H1 6950   7.314   7.019   3.673
 2236WAT     H2 6951   7.287   7.153   3.584
 2237WAT      O 6952   0.926   0.148   7.389
 2237WAT     H1 6953   1.003   0.171   7.329
 2237WAT     H2 6954   0.845   0.131   7.334
 2238WAT      O 6955   9.050   2.245   5.094
 2238WAT     H1 6956   8.977   2.177   5.084
 2238WAT     H2 6957   9.139   2.201   5.080
 2239WAT      O 6958   5.064   9.047   2.392
 2239WAT     H1 6959   5.034   9.013   2.302
 2239WAT     H2 6960   4.992   9.105   2.431
 2240WAT      O 6961   7.178   9.464   7.074
 2240WAT     H1 6962   7.195   9.562   7.086
 2240WAT     H2 6963   7.116   9.449   6.997
 2241WAT      O 6964   3.773   0.752   1.527
 2241WAT     H1 6965   3.827   0.778   1.447
 2241WAT     H2 6966   3.783   0.822   1.597
 2242WAT      O 6967   2.374   4.435   2.030
 2242WAT     H1 6968   2.331   4.399   2.112
 2242WAT     H2 6969   2.471   4.408   2.028
 2243WAT      O 6970   8.347   3.170   7.146
 2243WAT     H1 6971   8.392   3.227   7.215
 2243WAT     H2 6972   8.346   3.217   7.058
 2244WAT      O 6973   2.202   5.866   0.716
 2244WAT     H1 6974   2.134   5.913   0.772
 2244WAT     H2 6975   2.283   5.846   0.772
 2245WAT      O 6976   9.094   1.823   9.425
 2245WAT     H1 6977   9.131   1.735   9.453
 2245WAT     H2 6978   9.054   1.814   9.334
 2246WAT      O 6979   4.790   7.303   5.785
 2246WAT     H1 6980   4.885   7.277   5.803
 2246WAT     H2 6981   4.776   7.398   5.813
 2247WAT      O 6982   7.435   3.547   3.357
 2247WAT     H1 6983   7.503   3.610   3.320
 2247WAT     H2 6984   7.361   3.598   3.400
 2248WAT      O 6985   7.892   6.072   8.132
 2248WAT     H1 6986   7.835   6.154   8.134
 2248WAT     H2 6987   7.880   6.025   8.045
 2249WAT      O 6988   4.168   1.866   9.597
 2249WAT     H1 6989   4.080   1.874   9.645
 2249WAT     H2 6990   4.159   1.902   9.505
 2250WAT      O 6991   8.826   2.788   1.230
 2250WAT     H1 6992   8.926   2.792   1.222
 2250WAT     H2 6993   8.795   2.857   1.295
 2251WAT      O 6994   2.527   0.584   2.629
 2251WAT     H1 6995   2.493   0.677   2.612
 2251WAT     H2 6996   2.454   0.518   2.611
 2252WAT      O 6997   3.105   9.363   5.230
 2252WAT     H1 6998   3.147   9.334   5.144
 2252WAT     H2 6999   3.169   9.348   5.305
 2253WAT      O 7000   8.862   8.944   7.000
 2253WAT     H1 7001   8.861   8.858   6.948
 2253WAT     H2 7002   8.852   8.924   7.097
 2254WAT      O 7003   2.722   3.686   3.925
 2254WAT     H1 7004   2.695   3.637   3.843
 2254WAT     H2 7005   2.800   3.640   3.968
 2255WAT      O 7006   1.060   9.673   1.951
 2255WAT     H1 7007   1.089   9.591   1.903
 2255WAT     H2 7008   1.108   9.679   2.039
 2256WAT      O 7009   2.077   7.470   2.752
 2256WAT     H1 7010   1.996   7.519   2.722
 2256WAT     H2 7011   2.052   7.379   2.783
 2257WAT      O 7012   9.854   5.352   3.475
 2257WAT     H1 7013   9.803   5.329   3.392
 2257WAT     H2 7014   9.924   5.281   3.491
 2258WAT      O 7015   6.550   1.130   7.073
 2258WAT     H1 7016   6.494   1.205   7.037
 2258WAT     H2 7017   6.551   1.135   7.173
 2259WAT      O 7018   2.957   5.544   8.412
 2259WAT     H1 7019   3.000   5.595   8.486
 2259WAT     H2 7020   2.898   5.473   8.450
 2260WAT      O 7021   6.479   3.063   5.181
 2260WAT     H1 7022   6.548   3.029   5.118
 2260WAT     H2 7023   6.400   3.096   5.130
 2261WAT      O 7024   1.649   7.558   0.767
 2261WAT     H1 7025   1.697   7.603   0.692
 2261WAT     H2 7026   1.693   7.471   0.789
 2262WAT      O 7027   0.494   5.739   0.729
 2262WAT     H1 7028   0.524   5.645   0.712
 2262WAT     H2 7029   0.408   5.738   0.780
 2263WAT      O 7030   1.667   8.341   2.811
 2263WAT     H1 7031   1.592   8.349   2.745
 2263WAT     H2 7032   1.664   8.419   2.874
 2264WAT      O 7033   0.103   0.950   0.598
 2264WAT     H1 7034   0.010   0.954   0.635
 2264WAT     H2 7035   0.127   1.038   0.558
 2265WAT      O 7036   2.402   9.465   6.457
 2265WAT     H1 7037   2.417   9.388   6.394
 2265WAT     H2 7038   2.311   9.503   6.442
 2266WAT      O 7039   2.846   0.860   6.221
 2266WAT     H1 7040   2.908   0.926   6.178
 2266WAT     H2 7041   2.871   0.850   6.317
 2267WAT      O 7042   0.976   9.109   2.687
 2267WAT     H1 7043   0.891   9.161   2.684
 2267WAT     H2 7044   0.969   9.030   2.627
 2268WAT      O 7045   3.859   0.111   7.325
 2268WAT     H1 7046   3.783   0.136   7.265
 2268WAT     H2 7047   3.882   0.187   7.385
 2269WAT      O 7048   1.361   3.836   6.056
 2269WAT     H1 7049   1.366   3.828   6.155
 2269WAT     H2 7050   1.332   3.748   6.017
 2270WAT      O 7051   8.045   8.477   4.105
 2270WAT     H1 7052   7.961   8.436   4.069
 2270WAT     H2 7053   8.042   8.475   4.205
 2271WAT      O 7054   6.912   7.099   1.138
 2271WAT     H1 7055   6.991   7.143   1.181
 2271WAT     H2 7056   6.830   7.119   1.191
 2272WAT      O 7057   9.664   7.932   2.326
 2272WAT     H1 7058   9.715   7.858   2.281
 2272WAT     H2 7059   9.605   7.894   2.397
 2273WAT      O 7060   7.138   6.647   1.096
 2273WAT     H1 7061   7.154   6.696   1.181
 2273WAT     H2 7062   7.048   6.671   1.059
 2274WAT      O 7063   0.674   3.034   1.237
 2274WAT     H1 7064   0.625   3.025   1.150
 2274WAT     H2 7065   0.630   2.976   1.306
 2275WAT      O 7066   3.127   5.375   9.104
 2275WAT     H1 7067   3.033   5.393   9.076
 2275WAT     H2 7068   3.127   5.333   9.195
 2276WAT      O 7069   2.101   4.956   1.312
 2276WAT     H1 7070   2.163   4.885   1.278
 2276WAT     H2 7071   2.118   4.972   1.409
 2277WAT      O 7072   4.229   6.512   0.055
 2277WAT     H1 7073   4.138   6.481   0.030
 2277WAT     H2 7074   4.231   6.612   0.058
 2278WAT      O 7075   7.231   7.408   6.002
 2278WAT     H1 7076   7.241   7.459   5.916
 2278WAT     H2 7077   7.159   7.450   6.057
 2279WAT      O 7078   8.828   7.948   5.368
 2279WAT     H1 7079   8.763   7.985   5.435
 2279WAT     H2 7080   8.834   7.849   5.380
 2280WAT      O 7081   5.711   2.233   3.732
 2280WAT     H1 7082   5.705   2.137   3.705
 2280WAT     H2 7083   5.631   2.282   3.697
 2281WAT      O 7084   8.156   6.120   8.194
 2281WAT     H1 7085   8.059   6.112   8.170
 2281WAT     H2 7086   8.206   6.157   8.116
 2282WAT      O 7087   3.548   2.232   9.542
 2282WAT     H1 7088   3.591   2.162   9.598
 2282WAT     H2 7089   3.486   2.189   9.476
 2283WAT      O 7090   2.823   6.190   2.522
 2283WAT     H1 7091   2.771   6.275   2.510
 2283WAT     H2 7092   2.920   6.208   2.506
 2284WAT      O 7093   5.537   1.351   5.093
 2284WAT     H1 7094   5.632   1.348   5.123
 2284WAT     H2 7095   5.516   1.443   5.058
 2285WAT      O 7096   8.692   8.333   4.543
 2285WAT     H1 7097   8.765   8.302   4.483
 2285WAT     H2 7098   8.604   8.330   4.495
 2286WAT      O 7099   5.676   0.542   6.446
 2286WAT     H1 7100   5.666   0.618   6.382
 2286WAT     H2 7101   5.640   0.569   6.535
 2287WAT      O 7102   9.522   2.564   1.246
 2287WAT     H1 7103   9.540   2.645   1.190
 2287WAT     H2 7104   9.506   2.485   1.187
 2288WAT      O 7105   2.855   6.051   7.712
 2288WAT     H1 7106   2.856   6.087   7.805
 2288WAT     H2 7107   2.767   6.007   7.694
 2289WAT      O 7108   7.397   3.504   4.792
 2289WAT     H1 7109   7.428   3.433   4.730
 2289WAT     H2 7110   7.297   3.505   4.796
 2290WAT      O 7111   8.188   5.807   7.179
 2290WAT     H1 7112   8.206   5.793   7.081
 2290WAT     H2 7113   8.261   5.863   7.218
 2291WAT      O 7114   3.403   3.009   6.740
 2291WAT     H1 7115   3.472   3.081   6.741
 2291WAT     H2 7116   3.348   3.016   6.658
 2292WAT      O 7117   8.206   4.161   0.727
 2292WAT     H1 7118   8.285   4.147   0.667
 2292WAT     H2 7119   8.159   4.074   0.741
 2293WAT      O 7120   9.678   1.423   8.604
 2293WAT     H1 7121   9.633   1.455   8.520
 2293WAT     H2 7122   9.777   1.424   8.592
 2294WAT      O 7123   4.448   2.200   3.345
 2294WAT     H1 7124   4.353   2.184   3.318
 2294WAT     H2 7125   4.451   2.226   3.442
 2295WAT      O 7126   8.108   7.471   5.106
 2295WAT     H1 7127   8.075   7.423   5.188
 2295WAT     H2 7128   8.140   7.562   5.133
 2296WAT      O 7129   3.119   7.508   9.803
 2296WAT     H1 7130   3.212   7.522   9.838
 2296WAT     H2 7131   3.088   7.416   9.826
 2297WAT      O 7132   0.493   0.595   2.560
 2297WAT     H1 7133   0.503   0.497   2.542
 2297WAT     H2 7134   0.491   0.611   2.658
 2298WAT      O 7135   4.098   5.379   5.069
 2298WAT     H1 7136   4.001   5.403   5.077
 2298WAT     H2 7137   4.122   5.313   5.140
 2299WAT      O 7138   5.446   0.762   8.746
 2299WAT     H1 7139   5.464   0.824   8.670
 2299WAT     H2 7140   5.450   0.812   8.832
 2300WAT      O 7141   1.337   8.617   5.178
 2300WAT     H1 7142   1.284   8.533   5.169
 2300WAT     H2 7143   1.399   8.610   5.256
 2301WAT      O 7144   3.163   0.324   8.523
 2301WAT     H1 7145   3.249   0.336   8.573
 2301WAT     H2 7146   3.162   0.383   8.443
 2302WAT      O 7147   2.134   4.357   0.208
 2302WAT     H1 7148   2.227   4.321   0.209
 2302WAT     H2 7149   2.080   4.311   0.280
 2303WAT      O 7150   7.263   6.445   5.909
 2303WAT     H1 7151   7.230   6.351   5.917
 2303WAT     H2 7152   7.260   6.489   5.999
 2304WAT      O 7153   6.095   7.001   7.683
 2304WAT     H1 7154   6.181   7.039   7.651
 2304WAT     H2 7155   6.042   7.072   7.730
 2305WAT      O 7156   7.294   5.920   1.816
 2305WAT     H1 7157   7.322   5.918   1.720
 2305WAT     H2 7158   7.347   5.853   1.868
 2306WAT      O 7159   5.686   5.452   7.140
 2306WAT     H1 7160   5.600   5.456   7.191
 2306WAT     H2 7161   5.717   5.357   7.135
 2307WAT      O 7162   7.480   2.474   4.574
 2307WAT     H1 7163   7.387   2.511   4.576
 2307WAT     H2 7164   7.476   2.374   4.576
 2308WAT      O 7165   7.516   1.324   9.146
 2308WAT     H1 7166   7.490   1.406   9.196
 2308WAT     H2 7167   7.446   1.302   9.078
 2309WAT      O 7168   1.539   0.882   4.752
 2309WAT     H1 7169   1.471   0.920   4.814
 2309WAT     H2 7170   1.495   0.821   4.687
 2310WAT      O 7171   3.790   0.740   3.832
 2310WAT     H1 7172   3.839   0.814   3.879
 2310WAT     H2 7173   3.855   0.670   3.804
 2311WAT      O 7174   0.755   9.048   5.945
 2311WAT     H1 7175   0.771   9.145   5.962
 2311WAT     H2 7176   0.818   9.015   5.875
 2312WAT      O 7177   5.004   0.020   2.309
 2312WAT     H1 7178   4.947   0.095   2.274
 2312WAT     H2 7179   5.068   0.055   2.377
 2313WAT      O 7180   7.730   8.208   2.841
 2313WAT     H1 7181   7.791   8.287   2.845
 2313WAT     H2 7182   7.636   8.239   2.826
 2314WAT      O 7183   9.135   1.973   0.749
 2314WAT     H1 7184   9.185   2.020   0.677
 2314WAT     H2 7185   9.124   2.034   0.828
 2315WAT      O 7186   3.967   6.511   6.781
 2315WAT     H1 7187   3.940   6.601   6.746
 2315WAT     H2 7188   4.050   6.481   6.734
 2316WAT      O 7189   7.625   7.063   4.239
 2316WAT     H1 7190   7.560   7.039   4.167
 2316WAT     H2 7191   7.691   6.988   4.250
 2317WAT      O 7192   0.752   9.460   1.564
 2317WAT     H1 7193   0.744   9.469   1.465
 2317WAT     H2 7194   0.731   9.366   1.590
 2318WAT      O 7195   3.544   5.370   6.342
 2318WAT     H1 7196   3.478   5.300   6.370
 2318WAT     H2 7197   3.588   5.341   6.257
 2319WAT      O 7198   4.186   3.619   5.329
 2319WAT     H1 7199   4.267   3.670   5.302
 2319WAT     H2 7200   4.110   3.644   5.269
 2320WAT      O 7201   6.796   6.568   0.206
 2320WAT     H1 7202   6.750   6.556   0.118
 2320WAT     H2 7203   6.893   6.542   0.197
 2321WAT      O 7204   9.117   7.894   3.468
 2321WAT     H1 7205   9.061   7.817   3.497
 2321WAT     H2 7206   9.067   7.980   3.483
 2322WAT      O 7207   0.051   2.293   0.625
 2322WAT     H1 7208  -0.032   2.247   0.658
 2322WAT     H2 7209   0.130   2.257   0.674
 2323WAT      O 7210   0.685   4.984   5.229
 2323WAT     H1 7211   0.621   4.950   5.160
 2323WAT     H2 7212   0.690   5.084   5.224
 2324WAT      O 7213   0.564   5.911   9.883
 2324WAT     H1 7214   0.658   5.935   9.910
 2324WAT     H2 7215   0.516   5.873   9.962
 2325WAT      O 7216   2.176   9.354   1.992
 2325WAT     H1 7217   2.193   9.273   1.937
 2325WAT     H2 7218   2.078   9.374   1.993
 2326WAT      O 7219   0.699   5.793   7.036
 2326WAT     H1 7220   0.768   5.721   7.042
 2326WAT     H2 7221   0.620   5.769   7.092
 2327WAT      O 7222   8.373   9.476   1.620
 2327WAT     H1 7223   8.335   9.412   1.687
 2327WAT     H2 7224   8.465   9.503   1.648
 2328WAT      O 7225   8.134   5.219   4.742
 2328WAT     H1 7226   8.185   5.256   4.665
 2328WAT     H2 7227   8.040   5.199   4.715
 2329WAT      O 7228   0.230   6.735   1.861
 2329WAT     H1 7229   0.134   6.759   1.879
 2329WAT     H2 7230   0.236   6.683   1.776
 2330WAT      O 7231   7.997   0.785   3.030
 2330WAT     H1 7232   8.082   0.768   3.080
 2330WAT     H2 7233   7.942   0.851   3.080
 2331WAT      O 7234   1.391   3.075   7.099
 2331WAT     H1 7235   1.383   3.174   7.110
 2331WAT     H2 7236   1.311   3.030   7.137
 2332WAT      O 7237   4.416   0.532   1.279
 2332WAT     H1 7238   4.413   0.452   1.340
 2332WAT     H2 7239   4.416   0.616   1.334
 2333WAT      O 7240   0.935   6.385   0.200
 2333WAT     H1 7241   0.870   6.333   0.145
 2333WAT     H2 7242   0.924   6.483   0.181
 2334WAT      O 7243   7.610   4.705   1.812
 2334WAT     H1 7244   7.702   4.746   1.809
 2334WAT     H2 7245   7.615   4.616   1.856
 2335WAT      O 7246   6.283   3.244   5.056
 2335WAT     H1 7247   6.235   3.193   4.985
 2335WAT     H2 7248   6.217   3.280   5.121
 2336WAT      O 7249   3.326   2.799   3.925
 2336WAT     H1 7250   3.378   2.750   3.854
 2336WAT     H2 7251   3.371   2.885   3.946
 2337WAT      O 7252   9.320   6.236   5.222
 2337WAT     H1 7253   9.317   6.306   5.294
 2337WAT     H2 7254   9.346   6.148   5.261
 2338WAT      O 7255   8.813   3.103   6.692
 2338WAT     H1 7256   8.864   3.089   6.607
 2338WAT     H2 7257   8.845   3.188   6.736
 2339WAT      O 7258   6.585   8.046   6.266
 2339WAT     H1 7259   6.594   7.990   6.184
 2339WAT     H2 7260   6.549   8.136   6.242
 2340WAT      O 7261   7.249   4.253   8.058
 2340WAT     H1 7262   7.215   4.303   8.137
 2340WAT     H2 7263   7.319   4.187   8.088
 2341WAT      O 7264   1.526   2.587   6.495
 2341WAT     H1 7265   1.485   2.652   6.431
 2341WAT     H2 7266   1.497   2.610   6.589
 2342WAT      O 7267   4.559   6.424   7.056
 2342WAT     H1 7268   4.568   6.364   6.976
 2342WAT     H2 7269   4.469   6.411   7.097
 2343WAT      O 7270   1.069   4.099   5.289
 2343WAT     H1 7271   1.147   4.145   5.247
 2343WAT     H2 7272   1.090   4.002   5.301
 2344WAT      O 7273   0.210   1.426   1.375
 2344WAT     H1 7274   0.152   1.351   1.343
 2344WAT     H2 7275   0.205   1.432   1.474
 2345WAT      O 7276   6.687   7.189   5.975
 2345WAT     H1 7277   6.745   7.163   6.053
 2345WAT     H2 7278   6.624   7.262   6.003
 2346WAT      O 7279   1.393   4.800   9.393
 2346WAT     H1 7280   1.399   4.704   9.365
 2346WAT     H2 7281   1.447   4.856   9.331
 2347WAT      O 7282   3.142   1.155   1.510
 2347WAT     H1 7283   3.065   1.187   1.566
 2347WAT     H2 7284   3.222   1.212   1.528
 2348WAT      O 7285   1.318   1.345   1.792
 2348WAT     H1 7286   1.227   1.367   1.827
 2348WAT     H2 7287   1.346   1.255   1.826
 2349WAT      O 7288   1.024   8.662   9.014
 2349WAT     H1 7289   0.935   8.618   9.024
 2349WAT     H2 7290   1.094   8.591   9.000
 2350WAT      O 7291   4.848   3.450   3.005
 2350WAT     H1 7292   4.764   3.504   3.011
 2350WAT     H2 7293   4.918   3.490   3.063
 2351WAT      O 7294   3.690   9.188   6.088
 2351WAT     H1 7295   3.755   9.113   6.088
 2351WAT     H2 7296   3.620   9.172   6.158
 2352WAT      O 7297   5.681   1.468   8.012
 2352WAT     H1 7298   5.728   1.501   8.094
 2352WAT     H2 7299   5.726   1.384   7.980
 2353WAT      O 7300   6.738   3.590   1.043
 2353WAT     H1 7301   6.805   3.638   1.100
 2353WAT     H2 7302   6.724   3.641   0.958
 2354WAT      O 7303   8.210   5.355   1.927
 2354WAT     H1 7304   8.260   5.280   1.884
 2354WAT     H2 7305   8.142   5.391   1.863
 2355WAT      O 7306   2.439   8.556   0.029
 2355WAT     H1 7307   2.361   8.551  -0.033
 2355WAT     H2 7308   2.520   8.586  -0.021
 2356WAT      O 7309   0.191   5.133   0.971
 2356WAT     H1 7310   0.227   5.192   1.044
 2356WAT     H2 7311   0.244   5.049   0.966
 2357WAT      O 7312   4.537   2.180   0.808
 2357WAT     H1 7313   4.573   2.129   0.730
 2357WAT     H2 7314   4.548   2.278   0.792
 2358WAT      O 7315   2.747   3.412   1.742
 2358WAT     H1 7316   2.681   3.434   1.814
 2358WAT     H2 7317   2.816   3.349   1.778
 2359WAT      O 7318   2.668   9.173   6.672
 2359WAT     H1 7319   2.572   9.148   6.689
 2359WAT     H2 7320   2.674   9.273   6.662
 2360WAT      O 7321   8.609   4.030   7.470
 2360WAT     H1 7322   8.563   4.014   7.383
 2360WAT     H2 7323   8.574   3.966   7.539
 2361WAT      O 7324   7.889   5.477   6.619
 2361WAT     H1 7325   7.891   5.565   6.572
 2361WAT     H2 7326   7.946   5.412   6.570
 2362WAT      O 7327   7.249   7.161   6.899
 2362WAT     H1 7328   7.241   7.087   6.965
 2362WAT     H2 7329   7.261   7.248   6.948
 2363WAT      O 7330   5.849   2.883   4.009
 2363WAT     H1 7331   5.822   2.910   3.916
 2363WAT     H2 7332   5.778   2.910   4.074
 2364WAT      O 7333   3.108   0.428   3.156
 2364WAT     H1 7334   3.181   0.484   3.194
 2364WAT     H2 7335   3.021   0.451   3.201
 2365WAT      O 7336   3.856   2.388   0.462
 2365WAT     H1 7337   3.898   2.309   0.417
 2365WAT     H2 7338   3.920   2.464   0.464
 2366WAT      O 7339   1.198   7.640   2.798
 2366WAT     H1 7340   1.276   7.583   2.824
 2366WAT     H2 7341   1.211   7.732   2.836
 2367WAT      O 7342   2.196   7.648   6.503
 2367WAT     H1 7343   2.234   7.607   6.420
 2367WAT     H2 7344   2.103   7.680   6.486
 2368WAT      O 7345   8.187   5.552   9.796
 2368WAT     H1 7346   8.107   5.505   9.833
 2368WAT     H2 7347   8.248   5.577   9.871
 2369WAT      O 7348   1.421   9.547   3.153
 2369WAT     H1 7349   1.372   9.474   3.201
 2369WAT     H2 7350   1.431   9.522   3.057
 2370WAT      O 7351   2.609   8.542   5.497
 2370WAT     H1 7352   2.698   8.519   5.538
 2370WAT     H2 7353   2.624   8.582   5.406
 2371WAT      O 7354   6.719   3.310   0.714
 2371WAT     H1 7355   6.801   3.253   0.708
 2371WAT     H2 7356   6.679   3.320   0.623
 2372WAT      O 7357   2.739   3.342   3.908
 2372WAT     H1 7358   2.734   3.277   3.832
 2372WAT     H2 7359   2.830   3.338   3.949
 2373WAT      O 7360   9.446   1.890   3.021
 2373WAT     H1 7361   9.361   1.896   3.074
 2373WAT     H2 7362   9.510   1.829   3.069
 2374WAT      O 7363   3.529   8.879   0.376
 2374WAT     H1 7364   3.609   8.905   0.321
 2374WAT     H2 7365   3.456   8.945   0.362
 2375WAT      O 7366   0.215   9.259   9.209
 2375WAT     H1 7367   0.153   9.283   9.283
 2375WAT     H2 7368   0.235   9.161   9.212
 2376WAT      O 7369   7.752   1.480   6.743
 2376WAT     H1 7370   7.666   1.429   6.745
 2376WAT     H2 7371   7.772   1.515   6.835
 2377WAT      O 7372   0.257   9.532   9.693
 2377WAT     H1 7373   0.210   9.480   9.764
 2377WAT     H2 7374   0.298   9.469   9.627
 2378WAT      O 7375   5.130   3.767   4.304
 2378WAT     H1 7376   5.043   3.790   4.348
 2378WAT     H2 7377   5.123   3.782   4.205
 2379WAT      O 7378   2.767   8.631   2.132
 2379WAT     H1 7379   2.851   8.594   2.172
 2379WAT     H2 7380   2.700   8.648   2.204
 2380WAT      O 7381   2.296   0.932   3.583
 2380WAT     H1 7382   2.362   0.984   3.638
 2380WAT     H2 7383   2.243   0.996   3.526
 2381WAT      O 7384   9.487   3.295   1.744
 2381WAT     H1 7385   9.569   3.275   1.799
 2381WAT     H2 7386   9.487   3.392   1.720
 2382WAT      O 7387   3.030   6.208   4.179
 2382WAT     H1 7388   2.938   6.216   4.141
 2382WAT     H2 7389   3.068   6.118   4.159
 2383WAT      O 7390   0.046   4.293   1.448
 2383WAT     H1 7391   0.135   4.298   1.404
 2383WAT     H2 7392   0.039   4.365   1.517
 2384WAT      O 7393   5.397   3.737   4.345
 2384WAT     H1 7394   5.299   3.747   4.332
 2384WAT     H2 7395   5.416   3.660   4.406
 2385WAT      O 7396   7.401   4.368   9.644
 2385WAT     H1 7397   7.420   4.281   9.599
 2385WAT     H2 7398   7.404   4.442   9.577
 2386WAT      O 7399   0.598   1.097   5.727
 2386WAT     H1 7400   0.631   1.061   5.813
 2386WAT     H2 7401   0.650   1.057   5.651
 2387WAT      O 7402   7.612   8.763   2.386
 2387WAT     H1 7403   7.581   8.699   2.456
 2387WAT     H2 7404   7.700   8.733   2.349
 2388WAT      O 7405   2.039   9.196   3.035
 2388WAT     H1 7406   2.117   9.164   3.090
 2388WAT     H2 7407   2.030   9.295   3.046
 2389WAT      O 7408   3.190   0.898   5.069
 2389WAT     H1 7409   3.214   0.803   5.050
 2389WAT     H2 7410   3.121   0.928   5.003
 2390WAT      O 7411   5.973   6.667   9.798
 2390WAT     H1 7412   5.965   6.764   9.819
 2390WAT     H2 7413   6.049   6.652   9.734
 2391WAT      O 7414   0.806   6.455   7.968
 2391WAT     H1 7415   0.708   6.435   7.959
 2391WAT     H2 7416   0.820   6.554   7.962
 2392WAT      O 7417   2.063   5.845   7.307
 2392WAT     H1 7418   1.977   5.857   7.356
 2392WAT     H2 7419   2.139   5.847   7.373
 2393WAT      O 7420   4.395   3.602   1.829
 2393WAT     H1 7421   4.373   3.699   1.833
 2393WAT     H2 7422   4.444   3.583   1.744
 2394WAT      O 7423   5.960   5.951   4.158
 2394WAT     H1 7424   5.990   5.855   4.155
 2394WAT     H2 7425   6.002   6.001   4.083
 2395WAT      O 7426   9.643   6.008   0.265
 2395WAT     H1 7427   9.637   5.993   0.364
 2395WAT     H2 7428   9.607   5.928   0.217
 2396WAT      O 7429   5.006   3.274   7.584
 2396WAT     H1 7430   4.926   3.320   7.622
 2396WAT     H2 7431   4.986   3.176   7.574
 2397WAT      O 7432   3.686   2.132   7.718
 2397WAT     H1 7433   3.666   2.092   7.807
 2397WAT     H2 7434   3.605   2.123   7.659
 2398WAT      O 7435   6.009   1.264   8.533
 2398WAT     H1 7436   5.981   1.194   8.468
 2398WAT     H2 7437   5.958   1.253   8.619
 2399WAT      O 7438   3.741   2.870   1.391
 2399WAT     H1 7439   3.662   2.817   1.359
 2399WAT     H2 7440   3.710   2.960   1.421
 2400WAT      O 7441   2.591   4.575   7.429
 2400WAT     H1 7442   2.527   4.611   7.497
 2400WAT     H2 7443   2.671   4.537   7.474
 2401WAT      O 7444   3.333   9.416   3.932
 2401WAT     H1 7445   3.304   9.385   3.842
 2401WAT     H2 7446   3.429   9.444   3.929
 2402WAT      O 7447   2.022   3.730   4.207
 2402WAT     H1 7448   2.035   3.633   4.227
 2402WAT     H2 7449   2.052   3.785   4.285
 2403WAT      O 7450   2.636   5.820   8.091
 2403WAT     H1 7451   2.671   5.809   8.184
 2403WAT     H2 7452   2.586   5.737   8.064
 2404WAT      O 7453   3.121   5.184   9.758
 2404WAT     H1 7454   3.106   5.263   9.698
 2404WAT     H2 7455   3.186   5.208   9.829
 2405WAT      O 7456   8.918   0.004   2.182
 2405WAT     H1 7457   8.895  -0.003   2.280
 2405WAT     H2 7458   8.964   0.090   2.164
 2406WAT      O 7459   8.196   1.974   2.803
 2406WAT     H1 7460   8.220   1.889   2.850
 2406WAT     H2 7461   8.279   2.020   2.771
 2407WAT      O 7462   5.477   2.882   9.525
 2407WAT     H1 7463   5.546   2.922   9.465
 2407WAT     H2 7464   5.395   2.939   9.524
 2408WAT      O 7465   6.715   5.887   3.462
 2408WAT     H1 7466   6.664   5.801   3.459
 2408WAT     H2 7467   6.703   5.930   3.551
 2409WAT      O 7468   2.412   8.158   8.548
 2409WAT     H1 7469   2.337   8.205   8.501
 2409WAT     H2 7470   2.381   8.067   8.576
 2410WAT      O 7471   9.484   4.125   3.343
 2410WAT     H1 7472   9.451   4.058   3.409
 2410WAT     H2 7473   9.517   4.078   3.261
 2411WAT      O 7474   5.892   8.533   0.079
 2411WAT     H1 7475   5.844   8.452   0.045
 2411WAT     H2 7476   5.986   8.509   0.102
 2412WAT      O 7477   2.419   5.793   6.437
 2412WAT     H1 7478   2.443   5.698   6.456
 2412WAT     H2 7479   2.391   5.803   6.342
 2413WAT      O 7480   8.964   9.138   5.886
 2413WAT     H1 7481   8.881   9.179   5.847
 2413WAT     H2 7482   9.018   9.210   5.931
 2414WAT      O 7483   6.895   6.266   2.551
 2414WAT     H1 7484   6.837   6.255   2.470
 2414WAT     H2 7485   6.868   6.348   2.601
 2415WAT      O 7486   0.364   3.584   4.235
 2415WAT     H1 7487   0.317   3.501   4.203
 2415WAT     H2 7488   0.422   3.562   4.312
 2416WAT      O 7489   7.238   2.769   3.492
 2416WAT     H1 7490   7.240   2.861   3.453
 2416WAT     H2 7491   7.283   2.706   3.429
 2417WAT      O 7492   3.624   0.038   7.810
 2417WAT     H1 7493   3.562  -0.025   7.857
 2417WAT     H2 7494   3.593   0.051   7.716
 2418WAT      O 7495   3.589   3.065   5.798
 2418WAT     H1 7496   3.513   3.066   5.732
 2418WAT     H2 7497   3.628   3.157   5.805
 2419WAT      O 7498   3.694   3.669   3.292
 2419WAT     H1 7499   3.692   3.740   3.362
 2419WAT     H2 7500   3.789   3.650   3.265
 2420WAT      O 7501   2.162   0.513   4.793
 2420WAT     H1 7502   2.138   0.424   4.753
 2420WAT     H2 7503   2.124   0.586   4.737
 2421WAT      O 7504   2.900   6.976   7.360
 2421WAT     H1 7505   2.909   6.946   7.455
 2421WAT     H2 7506   2.902   6.897   7.300
 2422WAT      O 7507   2.385   7.906   0.167
 2422WAT     H1 7508   2.343   7.819   0.195
 2422WAT     H2 7509   2.484   7.901   0.183
 2423WAT      O 7510   1.138   3.202   4.936
 2423WAT     H1 7511   1.139   3.146   4.854
 2423WAT     H2 7512   1.162   3.145   5.015
 2424WAT      O 7513   4.881   4.478   6.845
 2424WAT     H1 7514   4.812   4.458   6.915
 2424WAT     H2 7515   4.929   4.394   6.820
 2425WAT      O 7516   7.524   5.601   6.782
 2425WAT     H1 7517   7.549   5.687   6.737
 2425WAT     H2 7518   7.425   5.598   6.796
 2426WAT      O 7519   1.619   7.713   4.039
 2426WAT     H1 7520   1.675   7.652   3.982
 2426WAT     H2 7521   1.527   7.719   4.001
 2427WAT      O 7522   0.122   9.722   2.396
 2427WAT     H1 7523   0.116   9.810   2.443
 2427WAT     H2 7524   0.129   9.737   2.297
 2428WAT      O 7525   9.180   9.821   0.594
 2428WAT     H1 7526   9.252   9.759   0.562
 2428WAT     H2 7527   9.221   9.897   0.644
 2429WAT      O 7528   7.824   4.396   3.591
 2429WAT     H1 7529   7.784   4.424   3.679
 2429WAT     H2 7530   7.778   4.445   3.517
 2430WAT      O 7531   8.811   1.369   3.800
 2430WAT     H1 7532   8.734   1.306   3.807
 2430WAT     H2 7533   8.793   1.450   3.857
 2431WAT      O 7534   7.328   6.220   9.885
 2431WAT     H1 7535   7.248   6.175   9.846
 2431WAT     H2 7536   7.301   6.273   9.965
 2432WAT      O 7537   4.325   0.425   9.268
 2432WAT     H1 7538   4.376   0.342   9.291
 2432WAT     H2 7539   4.344   0.451   9.174
 2433WAT      O 7540   1.566   2.286   6.925
 2433WAT     H1 7541   1.484   2.337   6.950
 2433WAT     H2 7542   1.605   2.326   6.842
 2434WAT      O 7543   3.032   0.558   9.050
 2434WAT     H1 7544   3.101   0.550   8.978
 2434WAT     H2 7545   2.953   0.609   9.015
 2435WAT      O 7546   2.774   5.206   2.059
 2435WAT     H1 7547   2.861   5.172   2.096
 2435WAT     H2 7548   2.751   5.155   1.976
 2436WAT      O 7549   7.813   5.278   6.885
 2436WAT     H1 7550   7.778   5.372   6.889
 2436WAT     H2 7551   7.794   5.239   6.796
 2437WAT      O 7552   2.238   4.559   7.523
 2437WAT     H1 7553   2.243   4.549   7.423
 2437WAT     H2 7554   2.147   4.593   7.547
 2438WAT      O 7555   8.591   4.398   5.439
 2438WAT     H1 7556   8.670   4.365   5.490
 2438WAT     H2 7557   8.570   4.492   5.468
 2439WAT      O 7558   1.193   9.207   4.637
 2439WAT     H1 7559   1.134   9.127   4.644
 2439WAT     H2 7560   1.170   9.259   4.556
 2440WAT      O 7561   9.574   9.018   8.415
 2440WAT     H1 7562   9.503   9.059   8.357
 2440WAT     H2 7563   9.563   8.919   8.417
 2441WAT      O 7564   2.944   5.521   4.739
 2441WAT     H1 7565   2.938   5.488   4.645
 2441WAT     H2 7566   3.038   5.547   4.759
 2442WAT      O 7567   8.020   4.015   3.248
 2442WAT     H1 7568   7.989   3.935   3.299
 2442WAT     H2 7569   8.054   4.084   3.312
 2443WAT      O 7570   0.324   6.351   6.863
 2443WAT     H1 7571   0.382   6.393   6.794
 2443WAT     H2 7572   0.378   6.288   6.919
 2444WAT      O 7573   5.049   6.843   9.397
 2444WAT     H1 7574   5.014   6.925   9.352
 2444WAT     H2 7575   5.085   6.780   9.328
 2445WAT      O 7576   3.830   3.109   1.215
 2445WAT     H1 7577   3.871   3.105   1.306
 2445WAT     H2 7578   3.901   3.100   1.145
 2446WAT      O 7579   5.682   6.832   1.572
 2446WAT     H1 7580   5.699   6.885   1.655
 2446WAT     H2 7581   5.749   6.858   1.502
 2447WAT      O 7582   0.764   5.945   2.650
 2447WAT     H1 7583   0.833   5.952   2.722
 2447WAT     H2 7584   0.726   5.852   2.650
 2448WAT      O 7585   1.793   1.156   0.488
 2448WAT     H1 7586   1.764   1.080   0.429
 2448WAT     H2 7587   1.724   1.228   0.486
 2449WAT      O 7588   6.336   4.210   9.541
 2449WAT     H1 7589   6.417   4.235   9.488
 2449WAT     H2 7590   6.255   4.254   9.502
 2450WAT      O 7591   5.657   3.312   1.044
 2450WAT     H1 7592   5.596   3.347   1.115
 2450WAT     H2 7593   5.630   3.350   0.956
 2451WAT      O 7594   3.036   3.164   4.905
 2451WAT     H1 7595   3.126   3.165   4.861
 2451WAT     H2 7596   2.985   3.245   4.878
 2452WAT      O 7597   5.268   3.456   6.171
 2452WAT     H1 7598   5.204   3.433   6.098
 2452WAT     H2 7599   5.333   3.381   6.183
 2453WAT      O 7600   0.360   2.142   8.755
 2453WAT     H1 7601   0.343   2.155   8.658
 2453WAT     H2 7602   0.457   2.161   8.775
 2454WAT      O 7603   2.740   4.628   2.009
 2454WAT     H1 7604   2.689   4.701   2.054
 2454WAT     H2 7605   2.776   4.662   1.922
 2455WAT      O 7606   4.424   1.896   4.045
 2455WAT     H1 7607   4.349   1.843   4.085
 2455WAT     H2 7608   4.400   1.993   4.046
 2456WAT      O 7609   7.086   5.975   9.820
 2456WAT     H1 7610   7.094   6.059   9.767
 2456WAT     H2 7611   7.059   5.998   9.914
 2457WAT      O 7612   4.694   7.664   4.846
 2457WAT     H1 7613   4.631   7.657   4.924
 2457WAT     H2 7614   4.674   7.591   4.781
 2458WAT      O 7615   4.735   2.959   6.123
 2458WAT     H1 7616   4.755   2.868   6.086
 2458WAT     H2 7617   4.639   2.980   6.108
 2459WAT      O 7618   5.694   8.176   3.178
 2459WAT     H1 7619   5.597   8.155   3.173
 2459WAT     H2 7620   5.746   8.093   3.198
 2460WAT      O 7621   8.708   4.705   3.943
 2460WAT     H1 7622   8.691   4.644   3.866
 2460WAT     H2 7623   8.780   4.770   3.919
 2461WAT      O 7624   8.460   3.919   8.849
 2461WAT     H1 7625   8.547   3.967   8.834
 2461WAT     H2 7626   8.417   3.953   8.932
 2462WAT      O 7627   3.015   8.233   4.240
 2462WAT     H1 7628   3.091   8.270   4.294
 2462WAT     H2 7629   3.005   8.288   4.156
 2463WAT      O 7630   6.374   4.954   5.867
 2463WAT     H1 7631   6.367   4.886   5.940
 2463WAT     H2 7632   6.397   5.043   5.907
 2464WAT      O 7633   3.824   3.166   3.983
 2464WAT     H1 7634   3.911   3.125   4.008
 2464WAT     H2 7635   3.836   3.264   3.968
 2465WAT      O 7636   0.036   9.791   7.575
 2465WAT     H1 7637   0.115   9.838   7.616
 2465WAT     H2 7638  -0.042   9.853   7.573
 2466WAT      O 7639   4.751   6.423   1.735
 2466WAT     H1 7640   4.705   6.507   1.706
 2466WAT     H2 7641   4.683   6.350   1.746
 2467WAT      O 7642   5.241   6.354   7.061
 2467WAT     H1 7643   5.195   6.266   7.051
 2467WAT     H2 7644   5.289   6.376   6.976
 2468WAT      O 7645   7.322   6.527   0.496
 2468WAT     H1 7646   7.285   6.434   0.497
 2468WAT     H2 7647   7.315   6.565   0.404
 2469WAT      O 7648   2.346   5.468   2.449
 2469WAT     H1 7649   2.356   5.559   2.489
 2469WAT     H2 7650   2.250   5.455   2.421
 2470WAT      O 7651   5.826   2.052   0.647
 2470WAT     H1 7652   5.809   1.954   0.649
 2470WAT     H2 7653   5.906   2.073   0.704
 2471WAT      O 7654   0.534   3.093   5.729
 2471WAT     H1 7655   0.517   3.001   5.765
 2471WAT     H2 7656   0.452   3.125   5.682
 2472WAT      O 7657   5.386   7.218   2.765
 2472WAT     H1 7658   5.302   7.176   2.799
 2472WAT     H2 7659   5.378   7.318   2.770
 2473WAT      O 7660   5.545   6.483   0.150
 2473WAT     H1 7661   5.553   6.402   0.208
 2473WAT     H2 7662   5.635   6.524   0.137
 2474WAT      O 7663   9.840   4.096   2.702
 2474WAT     H1 7664   9.818   4.101   2.799
 2474WAT     H2 7665   9.857   4.001   2.676
 2475WAT      O 7666   4.114   5.683   1.911
 2475WAT     H1 7667   4.132   5.756   1.977
 2475WAT     H2 7668   4.131   5.716   1.819
 2476WAT      O 7669   7.161   3.271   4.564
 2476WAT     H1 7670   7.222   3.209   4.514
 2476WAT     H2 7671   7.067   3.242   4.550
 2477WAT      O 7672   8.692   8.122   7.797
 2477WAT     H1 7673   8.792   8.118   7.800
 2477WAT     H2 7674   8.658   8.066   7.721
 2478WAT      O 7675   3.629   3.348   1.563
 2478WAT     H1 7676   3.563   3.344   1.488
 2478WAT     H2 7677   3.678   3.435   1.560
 2479WAT      O 7678   1.378   7.970   5.201
 2479WAT     H1 7679   1.391   7.967   5.102
 2479WAT     H2 7680   1.288   8.008   5.222
 2480WAT      O 7681   1.176   0.196   4.255
 2480WAT     H1 7682   1.183   0.235   4.163
 2480WAT     H2 7683   1.186   0.269   4.323
 2481WAT      O 7684   1.209   0.131   9.201
 2481WAT     H1 7685   1.187   0.111   9.105
 2481WAT     H2 7686   1.293   0.083   9.226
 2482WAT      O 7687   5.348   8.873   2.674
 2482WAT     H1 7688   5.422   8.933   2.644
 2482WAT     H2 7689   5.283   8.925   2.730
 2483WAT      O 7690   8.801   3.327   9.027
 2483WAT     H1 7691   8.740   3.344   8.950
 2483WAT     H2 7692   8.764   3.369   9.109
 2484WAT      O 7693   5.915   8.621   3.021
 2484WAT     H1 7694   5.836   8.616   3.081
 2484WAT     H2 7695   5.926   8.535   2.972
 2485WAT      O 7696   1.302   4.272   0.084
 2485WAT     H1 7697   1.378   4.327   0.048
 2485WAT     H2 7698   1.237   4.332   0.130
 2486WAT      O 7699   0.961   3.810   6.607
 2486WAT     H1 7700   1.040   3.868   6.625
 2486WAT     H2 7701   0.951   3.743   6.681
 2487WAT      O 7702   2.188   0.756   7.207
 2487WAT     H1 7703   2.258   0.765   7.278
 2487WAT     H2 7704   2.099   0.781   7.246
 2488WAT      O 7705   2.198   3.784   6.183
 2488WAT     H1 7706   2.121   3.778   6.248
 2488WAT     H2 7707   2.172   3.841   6.106
 2489WAT      O 7708   8.703   4.556   6.894
 2489WAT     H1 7709   8.610   4.590   6.907
 2489WAT     H2 7710   8.704   4.483   6.825
 2490WAT      O 7711   1.710   8.872   5.886
 2490WAT     H1 7712   1.730   8.839   5.794
 2490WAT     H2 7713   1.615   8.853   5.909
 2491WAT      O 7714   9.183   8.812   3.990
 2491WAT     H1 7715   9.161   8.873   3.913
 2491WAT     H2 7716   9.097   8.780   4.031
 2492WAT      O 7717   6.502   1.218   3.752
 2492WAT     H1 7718   6.489   1.128   3.710
 2492WAT     H2 7719   6.413   1.259   3.772
 2493WAT      O 7720   5.308   7.099   0.078
 2493WAT     H1 7721   5.391   7.053   0.109
 2493WAT     H2 7722   5.272   7.157   0.151
 2494WAT      O 7723   5.247   1.170   4.462
 2494WAT     H1 7724   5.172   1.197   4.522
 2494WAT     H2 7725   5.324   1.137   4.517
 2495WAT      O 7726   5.709   4.194   7.882
 2495WAT     H1 7727   5.624   4.171   7.929
 2495WAT     H2 7728   5.692   4.199   7.783
 2496WAT      O 7729   6.704   8.290   8.625
 2496WAT     H1 7730   6.735   8.385   8.625
 2496WAT     H2 7731   6.605   8.287   8.621
 2497WAT      O 7732   7.538   4.477   0.607
 2497WAT     H1 7733   7.479   4.433   0.539
 2497WAT     H2 7734   7.576   4.407   0.668
 2498WAT      O 7735   9.544   1.022   0.957
 2498WAT     H1 7736   9.553   0.969   1.041
 2498WAT     H2 7737   9.474   0.981   0.899
 2499WAT      O 7738   3.156   4.273   0.241
 2499WAT     H1 7739   3.233   4.252   0.302
 2499WAT     H2 7740   3.127   4.190   0.194
 2500WAT      O 7741   8.398   5.386   0.136
 2500WAT     H1 7742   8.480   5.394   0.079
 2500WAT     H2 7743   8.381   5.473   0.182
 2501WAT      O 7744   6.101   7.531   9.505
 2501WAT     H1 7745   6.015   7.568   9.469
 2501WAT     H2 7746   6.176   7.555   9.444
 2502WAT      O 7747   7.676   2.850   1.239
 2502WAT     H1 7748   7.630   2.936   1.262
 2502WAT     H2 7749   7.774   2.866   1.228
 2503WAT      O 7750   2.254   7.030   2.058
 2503WAT     H1 7751   2.333   6.972   2.082
 2503WAT     H2 7752   2.285   7.106   2.001
 2504WAT      O 7753   1.349   4.693   9.869
 2504WAT     H1 7754   1.372   4.790   9.879
 2504WAT     H2 7755   1.250   4.681   9.876
 2505WAT      O 7756   7.142   9.210   8.649
 2505WAT     H1 7757   7.219   9.274   8.643
 2505WAT     H2 7758   7.066   9.245   8.595
 2506WAT      O 7759   2.122   3.906   2.473
 2506WAT     H1 7760   2.108   3.869   2.565
 2506WAT     H2 7761   2.085   3.843   2.405
 2507WAT      O 7762   8.342   7.215   8.077
 2507WAT     H1 7763   8.422   7.234   8.136
 2507WAT     H2 7764   8.298   7.130   8.108
 2508WAT      O 7765   9.609   5.785   2.241
 2508WAT     H1 7766   9.627   5.830   2.328
 2508WAT     H2 7767   9.694   5.748   2.205
 2509WAT      O 7768   9.770   4.325   5.431
 2509WAT     H1 7769   9.701   4.357   5.365
 2509WAT     H2 7770   9.842   4.394   5.440
 2510WAT      O 7771   5.868   6.535   2.851
 2510WAT     H1 7772   5.967   6.546   2.858
 2510WAT     H2 7773   5.843   6.515   2.756
 2511WAT      O 7774   2.428   7.124   9.011
 2511WAT     H1 7775   2.487   7.150   8.934
 2511WAT     H2 7776   2.352   7.189   9.017
 2512WAT      O 7777   8.943   6.580   8.613
 2512WAT     H1 7778   8.964   6.643   8.688
 2512WAT     H2 7779   8.939   6.486   8.648
 2513WAT      O 7780   0.197   9.762   8.065
 2513WAT     H1 7781   0.296   9.756   8.075
 2513WAT     H2 7782   0.154   9.756   8.155
 2514WAT      O 7783   7.318   8.982   5.618
 2514WAT     H1 7784   7.364   9.020   5.537
 2514WAT     H2 7785   7.244   8.921   5.589
 2515WAT      O 7786   6.707   5.878   7.083
 2515WAT     H1 7787   6.787   5.820   7.091
 2515WAT     H2 7788   6.635   5.846   7.145
 2516WAT      O 7789   9.561   9.718   5.930
 2516WAT     H1 7790   9.493   9.777   5.974
 2516WAT     H2 7791   9.625   9.685   5.999
 2517WAT      O 7792   1.487   7.913   5.513
 2517WAT     H1 7793   1.476   7.933   5.416
 2517WAT     H2 7794   1.580   7.880   5.530
 2518WAT      O 7795   1.823   9.562   8.407
 2518WAT     H1 7796   1.807   9.661   8.417
 2518WAT     H2 7797   1.830   9.521   8.498
 2519WAT      O 7798   7.450   2.494   7.169
 2519WAT     H1 7799   7.500   2.577   7.194
 2519WAT     H2 7800   7.391   2.513   7.091
 2520WAT      O 7801   1.194   5.726   8.984
 2520WAT     H1 7802   1.208   5.665   9.062
 2520WAT     H2 7803   1.269   5.716   8.920
 2521WAT      O 7804   3.548   7.788   2.904
 2521WAT     H1 7805   3.636   7.741   2.906
 2521WAT     H2 7806   3.550   7.859   2.834
 2522WAT      O 7807   2.301   3.274   9.835
 2522WAT     H1 7808   2.237   3.316   9.900
 2522WAT     H2 7809   2.271   3.292   9.742
 2523WAT      O 7810   3.705   8.238   4.336
 2523WAT     H1 7811   3.779   8.243   4.268
 2523WAT     H2 7812   3.648   8.158   4.317
 2524WAT      O 7813   2.412   1.324   6.006
 2524WAT     H1 7814   2.372   1.264   5.937
 2524WAT     H2 7815   2.375   1.416   5.995
 2525WAT      O 7816   6.360   4.138   9.808
 2525WAT     H1 7817   6.369   4.179   9.717
 2525WAT     H2 7818   6.424   4.062   9.816
 2526WAT      O 7819   6.255   2.826   4.490
 2526WAT     H1 7820   6.218   2.903   4.542
 2526WAT     H2 7821   6.290   2.859   4.402
 2527WAT      O 7822   4.726   0.842   3.070
 2527WAT     H1 7823   4.635   0.876   3.047
 2527WAT     H2 7824   4.789   0.863   2.995
 2528WAT      O 7825   0.948   8.189   0.182
 2528WAT     H1 7826   1.014   8.163   0.112
 2528WAT     H2 7827   0.895   8.109   0.209
 2529WAT      O 7828   0.052   9.626   5.010
 2529WAT     H1 7829   0.092   9.549   5.060
 2529WAT     H2 7830   0.077   9.620   4.913
 2530WAT      O 7831   4.182   9.838   3.959
 2530WAT     H1 7832   4.250   9.815   3.890
 2530WAT     H2 7833   4.226   9.889   4.034
 2531WAT      O 7834   3.358   6.243   6.577
 2531WAT     H1 7835   3.429   6.234   6.507
 2531WAT     H2 7836   3.392   6.207   6.664
 2532WAT      O 7837   6.248   8.087   8.534
 2532WAT     H1 7838   6.178   8.049   8.594
 2532WAT     H2 7839   6.218   8.079   8.439
 2533WAT      O 7840   3.755   1.143   6.812
 2533WAT     H1 7841   3.785   1.147   6.908
 2533WAT     H2 7842   3.833   1.162   6.752
 2534WAT      O 7843   1.421   0.852   9.154
 2534WAT     H1 7844   1.384   0.880   9.242
 2534WAT     H2 7845   1.347   0.843   9.088
 2535WAT      O 7846   3.300   1.642   0.273
 2535WAT     H1 7847   3.337   1.735   0.276
 2535WAT     H2 7848   3.351   1.587   0.207
 2536WAT      O 7849   4.897   4.022   6.221
 2536WAT     H1 7850   4.873   3.998   6.127
 2536WAT     H2 7851   4.816   4.013   6.279
 2537WAT      O 7852   7.291   7.822   5.729
 2537WAT     H1 7853   7.283   7.871   5.642
 2537WAT     H2 7854   7.215   7.848   5.789
 2538WAT      O 7855   2.925   7.532   1.072
 2538WAT     H1 7856   2.984   7.530   1.153
 2538WAT     H2 7857   2.980   7.515   0.991
 2539WAT      O 7858   0.026   1.915   8.416
 2539WAT     H1 7859   0.078   1.905   8.331
 2539WAT     H2 7860  -0.067   1.947   8.394
 2540WAT      O 7861   6.437   0.934   2.851
 2540WAT     H1 7862   6.381   0.986   2.786
 2540WAT     H2 7863   6.463   0.993   2.927
 2541WAT      O 7864   8.610   2.167   1.010
 2541WAT     H1 7865   8.616   2.068   1.022
 2541WAT     H2 7866   8.522   2.191   0.968
 2542WAT      O 7867   9.717   1.756   1.390
 2542WAT     H1 7868   9.631   1.808   1.401
 2542WAT     H2 7869   9.794   1.820   1.385
 2543WAT      O 7870   3.564   3.502   5.199
 2543WAT     H1 7871   3.500   3.480   5.273
 2543WAT     H2 7872   3.517   3.496   5.111
 2544WAT      O 7873   6.134   2.936   6.299
 2544WAT     H1 7874   6.231   2.938   6.325
 2544WAT     H2 7875   6.085   3.008   6.350
 2545WAT      O 7876   8.664   3.593   8.776
 2545WAT     H1 7877   8.724   3.535   8.722
 2545WAT     H2 7878   8.596   3.636   8.716
 2546WAT      O 7879   3.294   9.658   6.810
 2546WAT     H1 7880   3.249   9.594   6.873
 2546WAT     H2 7881   3.324   9.739   6.861
 2547WAT      O 7882   8.232   7.131   3.762
 2547WAT     H1 7883   8.224   7.125   3.662
 2547WAT     H2 7884   8.159   7.077   3.804
 2548WAT      O 7885   2.663   3.973   8.328
 2548WAT     H1 7886   2.716   4.058   8.325
 2548WAT     H2 7887   2.714   3.903   8.378
 2549WAT      O 7888   8.490   2.118   1.292
 2549WAT     H1 7889   8.494   2.202   1.346
 2549WAT     H2 7890   8.432   2.132   1.212
 2550WAT      O 7891   6.587   8.135   7.413
 2550WAT     H1 7892   6.653   8.095   7.476
 2550WAT     H2 7893   6.635   8.172   7.333
 2551WAT      O 7894   2.105   6.543   2.937
 2551WAT     H1 7895   2.028   6.585   2.890
 2551WAT     H2 7896   2.161   6.614   2.981
 2552WAT      O 7897   0.319   2.619   6.056
 2552WAT     H1 7898   0.228   2.579   6.068
 2552WAT     H2 7899   0.312   2.719   6.058
 2553WAT      O 7900   2.450   3.589   4.379
 2553WAT     H1 7901   2.491   3.609   4.468
 2553WAT     H2 7902   2.352   3.569   4.392
 2554WAT      O 7903   3.832   4.407   9.024
 2554WAT     H1 7904   3.834   4.314   9.061
 2554WAT     H2 7905   3.811   4.404   8.926
 2555WAT      O 7906   2.642   2.354   5.313
 2555WAT     H1 7907   2.727   2.403   5.333
 2555WAT     H2 7908   2.660   2.255   5.312
 2556WAT      O 7909   4.350   7.042   4.630
 2556WAT     H1 7910   4.309   7.052   4.721
 2556WAT     H2 7911   4.431   6.983   4.635
 2557WAT      O 7912   9.838   7.296   8.219
 2557WAT     H1 7913   9.741   7.280   8.204
 2557WAT     H2 7914   9.850   7.345   8.305
 2558WAT      O 7915   3.321   7.949   8.267
 2558WAT     H1 7916   3.268   8.013   8.211
 2558WAT     H2 7917   3.279   7.942   8.358
 2559WAT      O 7918   6.745   3.742   6.100
 2559WAT     H1 7919   6.660   3.742   6.048
 2559WAT     H2 7920   6.773   3.836   6.120
 2560WAT      O 7921   1.965   4.480   5.379
 2560WAT     H1 7922   1.987   4.539   5.457
 2560WAT     H2 7923   1.994   4.386   5.398
 2561WAT      O 7924   4.618   6.554   8.448
 2561WAT     H1 7925   4.576   6.642   8.471
 2561WAT     H2 7926   4.577   6.482   8.502
 2562WAT      O 7927   6.701   2.428   9.489
 2562WAT     H1 7928   6.798   2.427   9.465
 2562WAT     H2 7929   6.690   2.433   9.588
 2563WAT      O 7930   3.672   9.361   2.032
 2563WAT     H1 7931   3.624   9.411   1.960
 2563WAT     H2 7932   3.688   9.423   2.110
 2564WAT      O 7933   6.483   7.759   3.052
 2564WAT     H1 7934   6.420   7.737   3.127
 2564WAT     H2 7935   6.496   7.678   2.994
 2565WAT      O 7936   4.756   1.498   2.212
 2565WAT     H1 7937   4.826   1.463   2.274
 2565WAT     H2 7938   4.794   1.506   2.120
 2566WAT      O 7939   4.737   5.979   1.520
 2566WAT     H1 7940   4.721   5.883   1.499
 2566WAT     H2 7941   4.653   6.031   1.505
 2567WAT      O 7942   1.409   6.020   4.476
 2567WAT     H1 7943   1.328   6.071   4.504
 2567WAT     H2 7944   1.487   6.047   4.533
 2568WAT      O 7945   5.580   7.351   3.008
 2568WAT     H1 7946   5.578   7.253   3.027
 2568WAT     H2 7947   5.615   7.400   3.088
 2569WAT      O 7948   3.300   4.201   2.033
 2569WAT     H1 7949   3.324   4.284   1.983
 2569WAT     H2 7950   3.350   4.198   2.120
 2570WAT      O 7951   6.864   1.961   8.659
 2570WAT     H1 7952   6.771   1.943   8.626
 2570WAT     H2 7953   6.860   1.987   8.755
 2571WAT      O 7954   1.032   1.887   7.662
 2571WAT     H1 7955   1.063   1.814   7.723
 2571WAT     H2 7956   1.086   1.969   7.678
 2572WAT      O 7957   0.906   9.448   5.054
 2572WAT     H1 7958   0.949   9.359   5.064
 2572WAT     H2 7959   0.957   9.503   4.988
 2573WAT      O 7960   2.791   7.737   8.663
 2573WAT     H1 7961   2.737   7.804   8.714
 2573WAT     H2 7962   2.731   7.675   8.614
 2574WAT      O 7963   0.053   5.817   8.981
 2574WAT     H1 7964   0.127   5.799   9.045
 2574WAT     H2 7965  -0.022   5.753   8.997
 2575WAT      O 7966   7.548   4.069   5.246
 2575WAT     H1 7967   7.643   4.052   5.219
 2575WAT     H2 7968   7.518   3.997   5.308
 2576WAT      O 7969   8.995   8.001   1.333
 2576WAT     H1 7970   9.006   8.033   1.239
 2576WAT     H2 7971   8.963   7.906   1.333
 2577WAT      O 7972   1.785   5.664   3.023
 2577WAT     H1 7973   1.716   5.678   2.951
 2577WAT     H2 7974   1.749   5.698   3.110
 2578WAT      O 7975   6.230   0.231   6.558
 2578WAT     H1 7976   6.155   0.219   6.493
 2578WAT     H2 7977   6.298   0.160   6.543
 2579WAT      O 7978   9.269   9.586   2.872
 2579WAT     H1 7979   9.359   9.597   2.913
 2579WAT     H2 7980   9.277   9.536   2.786
 2580WAT      O 7981   1.792   3.979   4.741
 2580WAT     H1 7982   1.807   4.038   4.820
 2580WAT     H2 7983   1.766   4.035   4.662
 2581WAT      O 7984   4.247   7.209   9.425
 2581WAT     H1 7985   4.204   7.135   9.373
 2581WAT     H2 7986   4.312   7.258   9.366
 2582WAT      O 7987   7.767   5.712   7.460
 2582WAT     H1 7988   7.796   5.647   7.389
 2582WAT     H2 7989   7.751   5.801   7.417
 2583WAT      O 7990   4.826   3.296   4.877
 2583WAT     H1 7991   4.760   3.299   4.802
 2583WAT     H2 7992   4.918   3.283   4.840
 2584WAT      O 7993   0.212   2.901   3.541
 2584WAT     H1 7994   0.129   2.862   3.580
 2584WAT     H2 7995   0.246   2.972   3.602
 2585WAT      O 7996   4.711   2.164   3.233
 2585WAT     H1 7997   4.618   2.182   3.265
 2585WAT     H2 7998   4.715   2.072   3.195
 2586WAT      O 7999   7.773   9.794   6.390
 2586WAT     H1 8000   7.780   9.714   6.449
 2586WAT     H2 8001   7.726   9.868   6.438
 2587WAT      O 8002   0.640   1.661   0.740
 2587WAT     H1 8003   0.624   1.661   0.839
 2587WAT     H2 8004   0.725   1.709   0.720
 2588WAT      O 8005   0.951   3.763   7.710
 2588WAT     H1 8006   0.929   3.668   7.731
 2588WAT     H2 8007   1.029   3.766   7.647
 2589WAT      O 8008   0.397   0.844   6.454
 2589WAT     H1 8009   0.430   0.904   6.381
 2589WAT     H2 8010   0.337   0.895   6.515
 2590WAT      O 8011   2.689   8.372   2.015
 2590WAT     H1 8012   2.723   8.464   2.034
 2590WAT     H2 8013   2.700   8.315   2.097
 2591WAT      O 8014   1.201   4.665   7.789
 2591WAT     H1 8015   1.138   4.618   7.728
 2591WAT     H2 8016   1.152   4.694   7.872
 2592WAT      O 8017   9.222   4.024   0.765
 2592WAT     H1 8018   9.179   4.046   0.852
 2592WAT     H2 8019   9.291   4.092   0.743
 2593WAT      O 8020   5.622   9.004   2.696
 2593WAT     H1 8021   5.708   9.011   2.646
 2593WAT     H2 8022   5.619   8.916   2.745
 2594WAT      O 8023   4.563   9.255   7.827
 2594WAT     H1 8024   4.496   9.234   7.898
 2594WAT     H2 8025   4.524   9.323   7.764
 2595WAT      O 8026   5.954   6.003   8.775
 2595WAT     H1 8027   5.893   5.962   8.843
 2595WAT     H2 8028   6.049   5.990   8.803
 2596WAT      O 8029   2.704   6.936   8.683
 2596WAT     H1 8030   2.795   6.949   8.644
 2596WAT     H2 8031   2.680   6.839   8.681
 2597WAT      O 8032   9.649   0.951   3.771
 2597WAT     H1 8033   9.549   0.949   3.782
 2597WAT     H2 8034   9.673   1.011   3.695
 2598WAT      O 8035   6.984   5.683   2.019
 2598WAT     H1 8036   6.964   5.766   2.072
 2598WAT     H2 8037   7.064   5.637   2.059
 2599WAT      O 8038   8.456   3.135   1.179
 2599WAT     H1 8039   8.387   3.206   1.189
 2599WAT     H2 8040   8.546   3.171   1.203
 2600WAT      O 8041   2.057   5.671   4.431
 2600WAT     H1 8042   2.016   5.681   4.522
 2600WAT     H2 8043   2.135   5.733   4.422
 2601WAT      O 8044   2.922   7.822   5.143
 2601WAT     H1 8045   2.959   7.747   5.087
 2601WAT     H2 8046   2.953   7.811   5.237
 2602WAT      O 8047   2.559   3.634   5.326
 2602WAT     H1 8048   2.550   3.727   5.362
 2602WAT     H2 8049   2.596   3.638   5.234
 2603WAT      O 8050   0.586   6.413   8.610
 2603WAT     H1 8051   0.637   6.485   8.658
 2603WAT     H2 8052   0.491   6.442   8.597
 2604WAT      O 8053   2.703   0.524   2.307
 2604WAT     H1 8054   2.658   0.437   2.325
 2604WAT     H2 8055   2.745   0.557   2.392
 2605WAT      O 8056   7.766   1.561   8.251
 2605WAT     H1 8057   7.765   1.580   8.349
 2605WAT     H2 8058   7.860   1.543   8.221
 2606WAT      O 8059   3.233   1.115   6.448
 2606WAT     H1 8060   3.292   1.137   6.370
 2606WAT     H2 8061   3.274   1.150   6.532
 2607WAT      O 8062   2.762   2.627   4.266
 2607WAT     H1 8063   2.705   2.704   4.293
 2607WAT     H2 8064   2.829   2.608   4.339
 2608WAT      O 8065   8.161   5.114   4.084
 2608WAT     H1 8066   8.243   5.104   4.028
 2608WAT     H2 8067   8.186   5.151   4.174
 2609WAT      O 8068   2.040   6.643   1.441
 2609WAT     H1 8069   2.097   6.702   1.499
 2609WAT     H2 8070   1.950   6.631   1.484
 2610WAT      O 8071   2.567   6.479   4.577
 2610WAT     H1 8072   2.520   6.418   4.640
 2610WAT     H2 8073   2.593   6.429   4.494
 2611WAT      O 8074   5.276   3.337   3.150
 2611WAT     H1 8075   5.263   3.239   3.162
 2611WAT     H2 8076   5.222   3.369   3.072
 2612WAT      O 8077   0.483   7.580   3.778
 2612WAT     H1 8078   0.454   7.669   3.743
 2612WAT     H2 8079   0.546   7.537   3.714
 2613WAT      O 8080   3.794   3.994   8.263
 2613WAT     H1 8081   3.778   3.940   8.345
 2613WAT     H2 8082   3.818   3.934   8.187
 2614WAT      O 8083   6.876   0.216   4.730
 2614WAT     H1 8084   6.875   0.157   4.649
 2614WAT     H2 8085   6.829   0.170   4.805
 2615WAT      O 8086   6.787   8.024   1.348
 2615WAT     H1 8087   6.862   8.042   1.410
 2615WAT     H2 8088   6.756   8.110   1.307
 2616WAT      O 8089   1.599   7.024   1.491
 2616WAT     H1 8090   1.606   6.967   1.573
 2616WAT     H2 8091   1.561   6.971   1.416
 2617WAT      O 8092   9.320   0.374   5.957
 2617WAT     H1 8093   9.289   0.291   5.910
 2617WAT     H2 8094   9.241   0.430   5.981
 2618WAT      O 8095   9.290   8.547   3.941
 2618WAT     H1 8096   9.248   8.637   3.950
 2618WAT     H2 8097   9.273   8.511   3.850
 2619WAT      O 8098   5.307   1.208   5.131
 2619WAT     H1 8099   5.395   1.253   5.115
 2619WAT     H2 8100   5.322   1.113   5.160
 2620WAT      O 8101   4.584   9.521   3.439
 2620WAT     H1 8102   4.530   9.449   3.484
 2620WAT     H2 8103   4.545   9.539   3.348
 2621WAT      O 8104   4.895   4.417   2.472
 2621WAT     H1 8105   4.813   4.410   2.529
 2621WAT     H2 8106   4.934   4.509   2.482
 2622WAT      O 8107   9.628   0.382   0.290
 2622WAT     H1 8108   9.682   0.432   0.223
 2622WAT     H2 8109   9.540   0.426   0.303
 2623WAT      O 8110   9.258   6.239   0.745
 2623WAT     H1 8111   9.306   6.218   0.830
 2623WAT     H2 8112   9.306   6.198   0.668
 2624WAT      O 8113   7.314   6.661   9.555
 2624WAT     H1 8114   7.225   6.662   9.509
 2624WAT     H2 8115   7.347   6.567   9.563
 2625WAT      O 8116   5.440   8.350   0.936
 2625WAT     H1 8117   5.477   8.364   0.844
 2625WAT     H2 8118   5.514   8.328   0.999
 2626WAT      O 8119   5.490   3.850   6.683
 2626WAT     H1 8120   5.468   3.881   6.590
 2626WAT     H2 8121   5.414   3.873   6.744
 2627WAT      O 8122   3.155   7.532   5.597
 2627WAT     H1 8123   3.104   7.586   5.664
 2627WAT     H2 8124   3.092   7.474   5.547
 2628WAT      O 8125   8.349   1.209   6.715
 2628WAT     H1 8126   8.287   1.287   6.718
 2628WAT     H2 8127   8.366   1.177   6.809
 2629WAT      O 8128   0.012   5.725   4.401
 2629WAT     H1 8129   0.108   5.718   4.373
 2629WAT     H2 8130   0.003   5.700   4.497
 2630WAT      O 8131   0.005   1.835   6.996
 2630WAT     H1 8132   0.083   1.875   6.948
 2630WAT     H2 8133  -0.015   1.745   6.958
 2631WAT      O 8134   2.156   2.306   7.437
 2631WAT     H1 8135   2.161   2.384   7.499
 2631WAT     H2 8136   2.148   2.221   7.490
 2632WAT      O 8137   0.460   4.891   5.407
 2632WAT     H1 8138   0.508   4.968   5.363
 2632WAT     H2 8139   0.526   4.820   5.430
 2633WAT      O 8140   7.308   5.567   7.973
 2633WAT     H1 8141   7.322   5.480   7.927
 2633WAT     H2 8142   7.236   5.557   8.042
 2634WAT      O 8143   5.576   6.848   5.542
 2634WAT     H1 8144   5.672   6.863   5.520
 2634WAT     H2 8145   5.533   6.795   5.469
 2635WAT      O 8146   6.879   4.122   4.984
 2635WAT     H1 8147   6.856   4.025   4.992
 2635WAT     H2 8148   6.924   4.140   4.897
 2636WAT      O 8149   5.538   5.218   2.357
 2636WAT     H1 8150   5.495   5.155   2.422
 2636WAT     H2 8151   5.474   5.292   2.335
 2637WAT      O 8152   5.168   4.981   0.402
 2637WAT     H1 8153   5.263   4.972   0.372
 2637WAT     H2 8154   5.165   5.012   0.497
 2638WAT      O 8155   4.094   8.881   1.345
 2638WAT     H1 8156   4.123   8.894   1.250
 2638WAT     H2 8157   4.136   8.798   1.382
 2639WAT      O 8158   8.335   9.834   9.824
 2639WAT     H1 8159   8.391   9.773   9.880
 2639WAT     H2 8160   8.386   9.918   9.805
 2640WAT      O 8161   1.645   3.502   8.205
 2640WAT     H1 8162   1.713   3.430   8.190
 2640WAT     H2 8163   1.674   3.560   8.282
 2641WAT      O 8164   9.830   4.406   9.837
 2641WAT     H1 8165   9.732   4.391   9.829
 2641WAT     H2 8166   9.866   4.438   9.749
 2642WAT      O 8167   8.365   4.004   6.121
 2642WAT     H1 8168   8.366   3.931   6.052
 2642WAT     H2 8169   8.348   4.092   6.076
 2643WAT      O 8170   2.202   8.096   0.094
 2643WAT     H1 8171   2.225   8.177   0.041
 2643WAT     H2 8172   2.285   8.045   0.116
 2644WAT      O 8173   1.841   7.083   4.450
 2644WAT     H1 8174   1.842   6.993   4.492
 2644WAT     H2 8175   1.867   7.152   4.517
 2645WAT      O 8176   3.592   9.392   7.039
 2645WAT     H1 8177   3.602   9.306   7.088
 2645WAT     H2 8178   3.679   9.417   6.996
 2646WAT      O 8179   6.182   7.850   3.891
 2646WAT     H1 8180   6.149   7.941   3.864
 2646WAT     H2 8181   6.269   7.832   3.847
 2647WAT      O 8182   1.258   5.222   2.994
 2647WAT     H1 8183   1.175   5.277   2.991
 2647WAT     H2 8184   1.238   5.131   3.030
 2648WAT      O 8185   6.197   8.121   0.432
 2648WAT     H1 8186   6.175   8.112   0.529
 2648WAT     H2 8187   6.112   8.124   0.379
 2649WAT      O 8188   0.485   3.159   4.779
 2649WAT     H1 8189   0.462   3.242   4.728
 2649WAT     H2 8190   0.553   3.181   4.849
 2650WAT      O 8191   4.171   1.681   1.544
 2650WAT     H1 8192   4.124   1.764   1.515
 2650WAT     H2 8193   4.249   1.664   1.484
 2651WAT      O 8194   9.126   6.844   7.369
 2651WAT     H1 8195   9.055   6.777   7.390
 2651WAT     H2 8196   9.084   6.925   7.328
 2652WAT      O 8197   6.578   4.022   0.247
 2652WAT     H1 8198   6.622   4.112   0.241
 2652WAT     H2 8199   6.606   3.966   0.169
 2653WAT      O 8200   2.930   1.548   2.431
 2653WAT     H1 8201   2.982   1.627   2.465
 2653WAT     H2 8202   2.832   1.569   2.435
 2654WAT      O 8203   3.936   9.514   0.785
 2654WAT     H1 8204   4.018   9.477   0.829
 2654WAT     H2 8205   3.922   9.467   0.697
 2655WAT      O 8206   0.722   2.457   6.715
 2655WAT     H1 8207   0.763   2.413   6.795
 2655WAT     H2 8208   0.789   2.462   6.641
 2656WAT      O 8209   4.725   9.477   8.864
 2656WAT     H1 8210   4.811   9.428   8.870
 2656WAT     H2 8211   4.673   9.445   8.785
 2657WAT      O 8212   3.285   9.142   1.459
 2657WAT     H1 8213   3.363   9.183   1.505
 2657WAT     H2 8214   3.290   9.162   1.361
 2658WAT      O 8215   6.023   6.540   6.389
 2658WAT     H1 8216   6.052   6.446   6.403
 2658WAT     H2 8217   5.924   6.543   6.377
 2659WAT      O 8218   8.171   3.377   2.376
 2659WAT     H1 8219   8.246   3.358   2.438
 2659WAT     H2 8220   8.086   3.391   2.428
 2660WAT      O 8221   0.073   2.373   3.651
 2660WAT     H1 8222   0.108   2.321   3.729
 2660WAT     H2 8223   0.149   2.413   3.601
 2661WAT      O 8224   0.726   7.780   5.335
 2661WAT     H1 8225   0.788   7.794   5.412
 2661WAT     H2 8226   0.710   7.682   5.322
 2662WAT      O 8227   6.789   2.275   4.450
 2662WAT     H1 8228   6.797   2.176   4.434
 2662WAT     H2 8229   6.703   2.294   4.496
 2663WAT      O 8230   6.108   3.085   4.554
 2663WAT     H1 8231   6.060   3.127   4.630
 2663WAT     H2 8232   6.043   3.058   4.483
 2664WAT      O 8233   0.941   4.083   1.187
 2664WAT     H1 8234   0.881   4.004   1.170
 2664WAT     H2 8235   1.027   4.051   1.226
 2665WAT      O 8236   9.767   5.693   5.584
 2665WAT     H1 8237   9.863   5.707   5.607
 2665WAT     H2 8238   9.759   5.622   5.515
 2666WAT      O 8239   9.151   9.430   6.699
 2666WAT     H1 8240   9.248   9.450   6.708
 2666WAT     H2 8241   9.136   9.332   6.713
 2667WAT      O 8242   2.465   1.655   9.100
 2667WAT     H1 8243   2.443   1.752   9.112
 2667WAT     H2 8244   2.400   1.600   9.153
 2668WAT      O 8245   2.823   0.225   3.088
 2668WAT     H1 8246   2.857   0.203   3.180
 2668WAT     H2 8247   2.772   0.311   3.091
 2669WAT      O 8248   7.286   7.629   2.502
 2669WAT     H1 8249   7.256   7.710   2.451
 2669WAT     H2 8250   7.326   7.657   2.589
 2670WAT      O 8251   9.362   8.752   7.724
 2670WAT     H1 8252   9.416   8.747   7.640
 2670WAT     H2 8253   9.361   8.846   7.758
 2671WAT      O 8254   4.104   7.031   9.241
 2671WAT     H1 8255   4.074   7.081   9.159
 2671WAT     H2 8256   4.191   6.986   9.223
 2672WAT      O 8257   3.719   4.175   6.503
 2672WAT     H1 8258   3.656   4.110   6.460
 2672WAT     H2 8259   3.675   4.265   6.509
 2673WAT      O 8260   3.854   4.616   3.512
 2673WAT     H1 8261   3.900   4.705   3.520
 2673WAT     H2 8262   3.789   4.605   3.587
 2674WAT      O 8263   9.206   9.558   6.308
 2674WAT     H1 8264   9.172   9.471   6.343
 2674WAT     H2 8265   9.256   9.543   6.222
 2675WAT      O 8266   4.284   0.048   0.046
 2675WAT     H1 8267   4.199   0.082   0.005
 2675WAT     H2 8268   4.324  -0.022  -0.014
 2676WAT      O 8269   7.429   5.082   7.044
 2676WAT     H1 8270   7.386   5.050   7.127
 2676WAT     H2 8271   7.423   5.012   6.973
 2677WAT      O 8272   0.254   1.574   5.580
 2677WAT     H1 8273   0.242   1.561   5.482
 2677WAT     H2 8274   0.345   1.541   5.607
 2678WAT      O 8275   5.918   7.209   3.782
 2678WAT     H1 8276   5.901   7.170   3.692
 2678WAT     H2 8277   5.866   7.159   3.851
 2679WAT      O 8278   9.354   2.130   1.274
 2679WAT     H1 8279   9.265   2.125   1.229
 2679WAT     H2 8280   9.426   2.116   1.206
 2680WAT      O 8281   9.016   6.270   6.395
 2680WAT     H1 8282   9.057   6.180   6.405
 2680WAT     H2 8283   8.991   6.285   6.299
 2681WAT      O 8284   4.947   1.283   2.181
 2681WAT     H1 8285   4.930   1.186   2.167
 2681WAT     H2 8286   4.919   1.334   2.099
 2682WAT      O 8287   0.769   7.790   9.514
 2682WAT     H1 8288   0.679   7.767   9.551
 2682WAT     H2 8289   0.827   7.826   9.587
 2683WAT      O 8290   8.707   5.591   1.972
 2683WAT     H1 8291   8.703   5.679   1.924
 2683WAT     H2 8292   8.621   5.575   2.021
 2684WAT      O 8293   7.036   8.451   4.742
 2684WAT     H1 8294   7.118   8.498   4.774
 2684WAT     H2 8295   6.955   8.495   4.780
 2685WAT      O 8296   0.800   6.239   9.897
 2685WAT     H1 8297   0.722   6.218   9.837
 2685WAT     H2 8298   0.885   6.214   9.850
 2686WAT      O 8299   4.690   6.765   4.986
 2686WAT     H1 8300   4.747   6.806   5.057
 2686WAT     H2 8301   4.652   6.837   4.928
 2687WAT      O 8302   9.162   1.021   3.154
 2687WAT     H1 8303   9.140   1.036   3.250
 2687WAT     H2 8304   9.248   0.971   3.146
 2688WAT      O 8305   3.025   5.845   5.837
 2688WAT     H1 8306   3.079   5.924   5.864
 2688WAT     H2 8307   2.938   5.876   5.798
 2689WAT      O 8308   7.679   7.903   6.338
 2689WAT     H1 8309   7.705   7.957   6.259
 2689WAT     H2 8310   7.761   7.874   6.388
 2690WAT      O 8311   1.566   6.390   4.172
 2690WAT     H1 8312   1.535   6.381   4.078
 2690WAT     H2 8313   1.610   6.479   4.185
 2691WAT      O 8314   5.161   1.577   2.548
 2691WAT     H1 8315   5.122   1.485   2.552
 2691WAT     H2 8316   5.111   1.637   2.610
 2692WAT      O 8317   7.183   7.400   3.874
 2692WAT     H1 8318   7.130   7.318   3.851
 2692WAT     H2 8319   7.170   7.422   3.970
 2693WAT      O 8320   8.456   4.580   4.907
 2693WAT     H1 8321   8.495   4.554   4.819
 2693WAT     H2 8322   8.530   4.604   4.970
 2694WAT      O 8323   8.493   2.890   1.276
 2694WAT     H1 8324   8.456   2.975   1.237
 2694WAT     H2 8325   8.556   2.912   1.350
 2695WAT      O 8326   4.473   8.317   0.973
 2695WAT     H1 8327   4.562   8.299   0.931
 2695WAT     H2 8328   4.486   8.343   1.069
 2696WAT      O 8329   3.480   3.891   4.694
 2696WAT     H1 8330   3.486   3.868   4.791
 2696WAT     H2 8331   3.467   3.990   4.684
 2697WAT      O 8332   0.158   7.101   8.443
 2697WAT     H1 8333   0.197   7.192   8.459
 2697WAT     H2 8334   0.108   7.101   8.357
 2698WAT      O 8335   9.020   7.009   4.393
 2698WAT     H1 8336   9.010   7.074   4.467
 2698WAT     H2 8337   8.999   7.054   4.306
 2699WAT      O 8338   6.963   8.127   3.110
 2699WAT     H1 8339   6.966   8.137   3.209
 2699WAT     H2 8340   6.964   8.030   3.086
 2700WAT      O 8341   8.809   3.137   0.581
 2700WAT     H1 8342   8.862   3.081   0.645
 2700WAT     H2 8343   8.713   3.110   0.584
 2701WAT      O 8344   2.060   3.645   1.866
 2701WAT     H1 8345   2.031   3.617   1.775
 2701WAT     H2 8346   2.096   3.566   1.915
 2702WAT      O 8347   9.557   7.175   9.054
 2702WAT     H1 8348   9.581   7.207   8.962
 2702WAT     H2 8349   9.638   7.136   9.097
 2703WAT      O 8350   2.704   0.724   7.877
 2703WAT     H1 8351   2.649   0.662   7.933
 2703WAT     H2 8352   2.667   0.728   7.784
 2704WAT      O 8353   5.810   8.531   7.544
 2704WAT     H1 8354   5.903   8.498   7.526
 2704WAT     H2 8355   5.756   8.458   7.585
 2705WAT      O 8356   8.670   9.276   6.080
 2705WAT     H1 8357   8.691   9.302   5.985
 2705WAT     H2 8358   8.747   9.226   6.118
 2706WAT      O 8359   7.245   3.943   1.248
 2706WAT     H1 8360   7.343   3.962   1.241
 2706WAT     H2 8361   7.231   3.845   1.264
 2707WAT      O 8362   7.884   3.703   5.768
 2707WAT     H1 8363   7.978   3.671   5.778
 2707WAT     H2 8364   7.823   3.645   5.823
 2708WAT      O 8365   3.425   1.235   3.527
 2708WAT     H1 8366   3.472   1.152   3.499
 2708WAT     H2 8367   3.404   1.230   3.625
 2709WAT      O 8368   6.323   3.352   6.410
 2709WAT     H1 8369   6.338   3.434   6.353
 2709WAT     H2 8370   6.411   3.315   6.439
 2710WAT      O 8371   1.265   7.730   2.333
 2710WAT     H1 8372   1.192   7.733   2.264
 2710WAT     H2 8373   1.228   7.694   2.418
 2711WAT      O 8374   0.518   7.531   0.939
 2711WAT     H1 8375   0.439   7.591   0.940
 2711WAT     H2 8376   0.599   7.582   0.909
 2712WAT      O 8377   6.169   8.645   4.373
 2712WAT     H1 8378   6.241   8.693   4.422
 2712WAT     H2 8379   6.110   8.597   4.438
 2713WAT      O 8380   6.176   8.011   1.562
 2713WAT     H1 8381   6.084   8.016   1.522
 2713WAT     H2 8382   6.180   8.071   1.642
 2714WAT      O 8383   9.716   2.795   0.684
 2714WAT     H1 8384   9.631   2.839   0.658
 2714WAT     H2 8385   9.766   2.765   0.602
 2715WAT      O 8386   8.824   6.818   7.623
 2715WAT     H1 8387   8.803   6.744   7.686
 2715WAT     H2 8388   8.860   6.896   7.674
 2716WAT      O 8389   8.617   6.191   3.790
 2716WAT     H1 8390   8.677   6.269   3.774
 2716WAT     H2 8391   8.651   6.138   3.868
 2717WAT      O 8392   5.069   2.268   3.784
 2717WAT     H1 8393   4.982   2.270   3.834
 2717WAT     H2 8394   5.051   2.283   3.687
 2718WAT      O 8395   1.865   6.002   0.547
 2718WAT     H1 8396   1.802   6.080   0.554
 2718WAT     H2 8397   1.884   5.983   0.450
 2719WAT      O 8398   4.725   1.521   6.227
 2719WAT     H1 8399   4.721   1.422   6.216
 2719WAT     H2 8400   4.804   1.546   6.282
 2720WAT      O 8401   0.495   6.051   7.617
 2720WAT     H1 8402   0.543   6.111   7.553
 2720WAT     H2 8403   0.553   6.034   7.697
 2721WAT      O 8404   2.978   3.317   4.048
 2721WAT     H1 8405   3.064   3.316   3.997
 2721WAT     H2 8406   2.996   3.338   4.144
 2722WAT      O 8407   9.132   2.814   8.915
 2722WAT     H1 8408   9.114   2.725   8.871
 2722WAT     H2 8409   9.048   2.848   8.957
 2723WAT      O 8410   7.473   8.344   6.635
 2723WAT     H1 8411   7.466   8.423   6.573
 2723WAT     H2 8412   7.516   8.268   6.586
 2724WAT      O 8413   8.685   3.273   8.019
 2724WAT     H1 8414   8.761   3.336   8.002
 2724WAT     H2 8415   8.659   3.277   8.115
 2725WAT      O 8416   1.939   8.481   7.641
 2725WAT     H1 8417   1.935   8.463   7.739
 2725WAT     H2 8418   2.006   8.419   7.599
 2726WAT      O 8419   1.083   5.074   3.564
 2726WAT     H1 8420   1.074   5.101   3.660
 2726WAT     H2 8421   1.174   5.036   3.549
 2727WAT      O 8422   6.291   4.174   5.146
 2727WAT     H1 8423   6.282   4.079   5.116
 2727WAT     H2 8424   6.244   4.187   5.233
 2728WAT      O 8425   8.894   4.912   3.917
 2728WAT     H1 8426   8.939   4.935   4.003
 2728WAT     H2 8427   8.868   4.996   3.869
 2729WAT      O 8428   4.184   1.720   8.074
 2729WAT     H1 8429   4.147   1.655   8.141
 2729WAT     H2 8430   4.172   1.813   8.109
 2730WAT      O 8431   2.864   5.150   7.023
 2730WAT     H1 8432   2.894   5.242   6.996
 2730WAT     H2 8433   2.793   5.157   7.092
 2731WAT      O 8434   8.118   7.275   5.632
 2731WAT     H1 8435   8.210   7.263   5.594
 2731WAT     H2 8436   8.118   7.244   5.727
 2732WAT      O 8437   1.040   1.012   1.461
 2732WAT     H1 8438   0.980   1.006   1.381
 2732WAT     H2 8439   1.044   1.107   1.492
 2733WAT      O 8440   8.770   5.726   8.588
 2733WAT     H1 8441   8.688   5.674   8.563
 2733WAT     H2 8442   8.747   5.823   8.597
 2734WAT      O 8443   9.863   0.430   8.557
 2734WAT     H1 8444   9.956   0.392   8.550
 2734WAT     H2 8445   9.868   0.529   8.561
 2735WAT      O 8446   9.732   6.305   3.765
 2735WAT     H1 8447   9.643   6.260   3.754
 2735WAT     H2 8448   9.805   6.240   3.744
 2736WAT      O 8449   1.260   8.539   3.229
 2736WAT     H1 8450   1.223   8.614   3.284
 2736WAT     H2 8451   1.246   8.453   3.277
 2737WAT      O 8452   4.926   7.388   2.498
 2737WAT     H1 8453   4.946   7.389   2.400
 2737WAT     H2 8454   4.879   7.303   2.522
 2738WAT      O 8455   4.780   8.487   2.643
 2738WAT     H1 8456   4.741   8.497   2.734
 2738WAT     H2 8457   4.841   8.408   2.641
 2739WAT      O 8458   1.414   9.263   8.096
 2739WAT     H1 8459   1.506   9.237   8.067
 2739WAT     H2 8460   1.381   9.197   8.164
 2740WAT      O 8461   0.381   3.326   1.475
 2740WAT     H1 8462   0.332   3.367   1.398
 2740WAT     H2 8463   0.388   3.227   1.461
 2741WAT      O 8464   3.075   4.351   8.934
 2741WAT     H1 8465   3.120   4.341   8.846
 2741WAT     H2 8466   3.015   4.431   8.932
 2742WAT      O 8467   0.923   7.707   6.507
 2742WAT     H1 8468   0.963   7.768   6.439
 2742WAT     H2 8469   0.927   7.750   6.597
 2743WAT      O 8470   7.594   6.632   4.365
 2743WAT     H1 8471   7.499   6.618   4.335
 2743WAT     H2 8472   7.624   6.553   4.418
 2744WAT      O 8473   7.713   9.205   0.722
 2744WAT     H1 8474   7.662   9.257   0.654
 2744WAT     H2 8475   7.674   9.222   0.813
 2745WAT      O 8476   1.435   4.489   0.835
 2745WAT     H1 8477   1.451   4.570   0.778
 2745WAT     H2 8478   1.479   4.409   0.793
 2746WAT      O 8479   1.364   7.942   8.431
 2746WAT     H1 8480   1.362   8.035   8.468
 2746WAT     H2 8481   1.281   7.894   8.458
 2747WAT      O 8482   4.309   4.853   3.113
 2747WAT     H1 8483   4.301   4.785   3.185
 2747WAT     H2 8484   4.266   4.820   3.030
 2748WAT      O 8485   7.994   7.153   7.692
 2748WAT     H1 8486   7.894   7.162   7.683
 2748WAT     H2 8487   8.039   7.210   7.624
 2749WAT      O 8488   2.556   5.853  -0.004
 2749WAT     H1 8489   2.562   5.778   0.061
 2749WAT     H2 8490   2.600   5.934   0.035
 2750WAT      O 8491   5.069   2.906   2.032
 2750WAT     H1 8492   5.063   2.995   2.076
 2750WAT     H2 8493   5.100   2.838   2.098
 2751WAT      O 8494   1.086   5.136   3.850
 2751WAT     H1 8495   1.068   5.041   3.876
 2751WAT     H2 8496   1.182   5.158   3.864
 2752WAT      O 8497   9.751   2.843   8.684
 2752WAT     H1 8498   9.790   2.783   8.615
 2752WAT     H2 8499   9.721   2.788   8.763
 2753WAT      O 8500   2.048   6.323   9.262
 2753WAT     H1 8501   2.071   6.414   9.228
 2753WAT     H2 8502   2.096   6.306   9.348
 2754WAT      O 8503   9.375   8.885   6.110
 2754WAT     H1 8504   9.456   8.940   6.127
 2754WAT     H2 8505   9.394   8.790   6.135
 2755WAT      O 8506   9.264   2.953   2.565
 2755WAT     H1 8507   9.362   2.973   2.573
 2755WAT     H2 8508   9.212   3.021   2.616
 2756WAT      O 8509   6.995   4.134   8.025
 2756WAT     H1 8510   6.949   4.074   8.090
 2756WAT     H2 8511   7.091   4.144   8.051
 2757WAT      O 8512   1.615   7.346   2.163
 2757WAT     H1 8513   1.578   7.433   2.129
 2757WAT     H2 8514   1.680   7.364   2.237
 2758WAT      O 8515   4.956   3.902   1.239
 2758WAT     H1 8516   4.877   3.884   1.298
 2758WAT     H2 8517   5.012   3.974   1.279
 2759WAT      O 8518   9.441   2.922   0.848
 2759WAT     H1 8519   9.364   2.974   0.885
 2759WAT     H2 8520   9.524   2.977   0.852
 2760WAT      O 8521   4.596   7.098   9.663
 2760WAT     H1 8522   4.660   7.173   9.677
 2760WAT     H2 8523   4.633   7.014   9.704
 2761WAT      O 8524   5.503   1.618   2.095
 2761WAT     H1 8525   5.479   1.661   2.182
 2761WAT     H2 8526   5.576   1.670   2.051
 2762WAT      O 8527   4.602   3.918   1.715
 2762WAT     H1 8528   4.629   3.994   1.774
 2762WAT     H2 8529   4.638   3.832   1.751
 2763WAT      O 8530   2.674   3.178   2.943
 2763WAT     H1 8531   2.770   3.193   2.919
 2763WAT     H2 8532   2.647   3.242   3.015
 2764WAT      O 8533   3.908   1.386   5.068
 2764WAT     H1 8534   3.818   1.382   5.111
 2764WAT     H2 8535   3.898   1.375   4.969
 2765WAT      O 8536   3.395   1.736   7.586
 2765WAT     H1 8537   3.436   1.651   7.620
 2765WAT     H2 8538   3.461   1.811   7.594
 2766WAT      O 8539   2.722   3.023   3.477
 2766WAT     H1 8540   2.817   3.004   3.499
 2766WAT     H2 8541   2.711   3.025   3.378
 2767WAT      O 8542   3.552   0.810   6.400
 2767WAT     H1 8543   3.570   0.902   6.366
 2767WAT     H2 8544   3.531   0.750   6.323
 2768WAT      O 8545   0.934   3.650   4.776
 2768WAT     H1 8546   0.946   3.729   4.836
 2768WAT     H2 8547   0.965   3.568   4.823
 2769WAT      O 8548   9.413   3.083   2.816
 2769WAT     H1 8549   9.317   3.108   2.799
 2769WAT     H2 8550   9.419   3.026   2.898
 2770WAT      O 8551   2.381   7.152   6.179
 2770WAT     H1 8552   2.331   7.068   6.202
 2770WAT     H2 8553   2.471   7.150   6.224
 2771WAT      O 8554   3.218   7.012   8.581
 2771WAT     H1 8555   3.301   6.960   8.598
 2771WAT     H2 8556   3.193   7.063   8.663
 2772WAT      O 8557   7.049   2.038   4.317
 2772WAT     H1 8558   7.149   2.043   4.309
 2772WAT     H2 8559   7.010   2.126   4.289
 2773WAT      O 8560   6.233   8.596   3.561
 2773WAT     H1 8561   6.274   8.566   3.475
 2773WAT     H2 8562   6.272   8.544   3.637
 2774WAT      O 8563   8.172   0.401   3.977
 2774WAT     H1 8564   8.153   0.473   3.911
 2774WAT     H2 8565   8.255   0.424   4.029
 2775WAT      O 8566   0.005   0.574   4.620
 2775WAT     H1 8567  -0.022   0.654   4.675
 2775WAT     H2 8568   0.086   0.532   4.661
 2776WAT      O 8569   1.715   2.388   1.299
 2776WAT     H1 8570   1.623   2.364   1.268
 2776WAT     H2 8571   1.713   2.403   1.398
 2777WAT      O 8572   0.025   6.897   8.285
 2777WAT     H1 8573   0.012   6.943   8.197
 2777WAT     H2 8574  -0.007   6.802   8.278
 2778WAT      O 8575   4.227   3.325   3.144
 2778WAT     H1 8576   4.157   3.333   3.073
 2778WAT     H2 8577   4.218   3.403   3.207
 2779WAT      O 8578   9.580   8.752   8.486
 2779WAT     H1 8579   9.539   8.661   8.483
 2779WAT     H2 8580   9.679   8.744   8.480
 2780WAT      O 8581   4.042   5.057   4.878
 2780WAT     H1 8582   4.011   5.149   4.853
 2780WAT     H2 8583   4.123   5.065   4.937
 2781WAT      O 8584   9.249   0.077   3.134
 2781WAT     H1 8585   9.335   0.035   3.165
 2781WAT     H2 8586   9.204   0.016   3.068
 2782WAT      O 8587   9.426   0.271   8.054
 2782WAT     H1 8588   9.480   0.290   7.971
 2782WAT     H2 8589   9.403   0.357   8.099
 2783WAT      O 8590   7.265   7.228   8.083
 2783WAT     H1 8591   7.305   7.271   8.164
 2783WAT     H2 8592   7.321   7.249   8.003
 2784WAT      O 8593   1.265   6.251   8.281
 2784WAT     H1 8594   1.217   6.174   8.238
 2784WAT     H2 8595   1.260   6.331   8.221
 2785WAT      O 8596   0.194   9.186   9.883
 2785WAT     H1 8597   0.277   9.165   9.935
 2785WAT     H2 8598   0.167   9.281   9.900
 2786WAT      O 8599   0.601   6.236   0.593
 2786WAT     H1 8600   0.522   6.188   0.630
 2786WAT     H2 8601   0.685   6.191   0.625
 2787WAT      O 8602   1.036   8.431   2.528
 2787WAT     H1 8603   1.078   8.481   2.604
 2787WAT     H2 8604   1.058   8.334   2.535
 2788WAT      O 8605   8.644   8.255   0.539
 2788WAT     H1 8606   8.695   8.275   0.456
 2788WAT     H2 8607   8.587   8.334   0.563
 2789WAT      O 8608   8.088   5.190   5.114
 2789WAT     H1 8609   8.142   5.256   5.062
 2789WAT     H2 8610   8.016   5.238   5.164
 2790WAT      O 8611   6.883   4.845   7.239
 2790WAT     H1 8612   6.971   4.873   7.276
 2790WAT     H2 8613   6.882   4.745   7.228
 2791WAT      O 8614   7.154   6.566   5.616
 2791WAT     H1 8615   7.208   6.551   5.699
 2791WAT     H2 8616   7.071   6.510   5.620
 2792WAT      O 8617   8.371   5.842   1.131
 2792WAT     H1 8618   8.414   5.834   1.041
 2792WAT     H2 8619   8.298   5.910   1.127
 2793WAT      O 8620   4.408   5.332   0.937
 2793WAT     H1 8621   4.362   5.330   0.849
 2793WAT     H2 8622   4.350   5.290   1.007
 2794WAT      O 8623   8.946   6.511   4.372
 2794WAT     H1 8624   8.862   6.489   4.421
 2794WAT     H2 8625   8.998   6.428   4.353
 2795WAT      O 8626   3.672   4.421   1.214
 2795WAT     H1 8627   3.599   4.488   1.201
 2795WAT     H2 8628   3.633   4.332   1.236
 2796WAT      O 8629   1.070   6.898   0.731
 2796WAT     H1 8630   1.019   6.818   0.765
 2796WAT     H2 8631   1.053   6.976   0.792
 2797WAT      O 8632   6.857   3.184   0.363
 2797WAT     H1 8633   6.793   3.131   0.419
 2797WAT     H2 8634   6.862   3.278   0.399
 2798WAT      O 8635   7.523   9.733   4.558
 2798WAT     H1 8636   7.563   9.792   4.628
 2798WAT     H2 8637   7.491   9.648   4.600
 2799WAT      O 8638   4.381   4.351   6.632
 2799WAT     H1 8639   4.408   4.265   6.589
 2799WAT     H2 8640   4.285   4.369   6.614
 2800WAT      O 8641   0.492   7.190   5.195
 2800WAT     H1 8642   0.548   7.113   5.163
 2800WAT     H2 8643   0.504   7.201   5.293
 2801WAT      O 8644   4.376   1.405   3.922
 2801WAT     H1 8645   4.347   1.310   3.910
 2801WAT     H2 8646   4.397   1.421   4.018
 2802WAT      O 8647   3.337   6.223   5.497
 2802WAT     H1 8648   3.279   6.300   5.472
 2802WAT     H2 8649   3.353   6.224   5.596
 2803WAT      O 8650   7.428   1.071   7.983
 2803WAT     H1 8651   7.445   1.155   7.930
 2803WAT     H2 8652   7.331   1.047   7.978
 2804WAT      O 8653   2.161   3.409   0.119
 2804WAT     H1 8654   2.183   3.507   0.114
 2804WAT     H2 8655   2.171   3.378   0.214
 2805WAT      O 8656   0.702   3.745   2.255
 2805WAT     H1 8657   0.644   3.729   2.176
 2805WAT     H2 8658   0.645   3.771   2.333
 2806WAT      O 8659   6.244   8.185   1.775
 2806WAT     H1 8660   6.243   8.284   1.762
 2806WAT     H2 8661   6.232   8.164   1.872
 2807WAT      O 8662   4.165   0.404   0.266
 2807WAT     H1 8663   4.141   0.465   0.342
 2807WAT     H2 8664   4.248   0.440   0.222
 2808WAT      O 8665   9.847   0.152   9.097
 2808WAT     H1 8666   9.782   0.217   9.058
 2808WAT     H2 8667   9.894   0.193   9.175
 2809WAT      O 8668   5.601   4.916   9.701
 2809WAT     H1 8669   5.591   4.817   9.700
 2809WAT     H2 8670   5.533   4.956   9.763
 2810WAT      O 8671   8.681   2.067   8.545
 2810WAT     H1 8672   8.596   2.086   8.593
 2810WAT     H2 8673   8.687   1.969   8.526
 2811WAT      O 8674   4.848   2.245   5.879
 2811WAT     H1 8675   4.749   2.249   5.863
 2811WAT     H2 8676   4.892   2.319   5.828
 2812WAT      O 8677   5.008   9.334   6.108
 2812WAT     H1 8678   5.066   9.311   6.186
 2812WAT     H2 8679   5.032   9.425   6.074
 2813WAT      O 8680   1.938   0.606   6.931
 2813WAT     H1 8681   1.965   0.675   6.864
 2813WAT     H2 8682   1.883   0.536   6.885
 2814WAT      O 8683   2.954   9.031   3.282
 2814WAT     H1 8684   2.934   8.957   3.219
 2814WAT     H2 8685   2.877   9.094   3.286
 2815WAT      O 8686   5.601   8.988   7.706
 2815WAT     H1 8687   5.517   8.939   7.730
 2815WAT     H2 8688   5.675   8.922   7.693
 2816WAT      O 8689   2.401   3.661   1.717
 2816WAT     H1 8690   2.494   3.694   1.700
 2816WAT     H2 8691   2.402   3.561   1.720
 2817WAT      O 8692   7.986   5.525   7.845
 2817WAT     H1 8693   8.003   5.453   7.778
 2817WAT     H2 8694   8.059   5.526   7.913
 2818WAT      O 8695   5.072   7.196   1.167
 2818WAT     H1 8696   5.003   7.262   1.197
 2818WAT     H2 8697   5.094   7.212   1.071
 2819WAT      O 8698   8.861   2.524   1.888
 2819WAT     H1 8699   8.761   2.519   1.879
 2819WAT     H2 8700   8.890   2.619   1.880
 2820WAT      O 8701   5.606   3.277   9.463
 2820WAT     H1 8702   5.665   3.306   9.388
 2820WAT     H2 8703   5.599   3.177   9.463
 2821WAT      O 8704   8.938   6.821   5.677
 2821WAT     H1 8705   8.931   6.738   5.621
 2821WAT     H2 8706   8.947   6.901   5.617
 2822WAT      O 8707   6.284   7.731   2.032
 2822WAT     H1 8708   6.319   7.684   2.113
 2822WAT     H2 8709   6.330   7.819   2.022
 2823WAT      O 8710   0.960   3.547   1.577
 2823WAT     H1 8711   0.895   3.550   1.501
 2823WAT     H2 8712   1.048   3.584   1.546
 2824WAT      O 8713   3.576   6.634   2.555
 2824WAT     H1 8714   3.656   6.686   2.585
 2824WAT     H2 8715   3.510   6.695   2.513
 2825WAT      O 8716   8.244   7.259   2.995
 2825WAT     H1 8717   8.230   7.304   3.083
 2825WAT     H2 8718   8.218   7.162   3.002
 2826WAT      O 8719   6.045   3.541   1.013
 2826WAT     H1 8720   6.035   3.629   1.060
 2826WAT     H2 8721   6.139   3.509   1.023
 2827WAT      O 8722   0.548   9.318   4.415
 2827WAT     H1 8723   0.566   9.257   4.339
 2827WAT     H2 8724   0.473   9.380   4.391
 2828WAT      O 8725   5.517   4.839   0.168
 2828WAT     H1 8726   5.481   4.895   0.094
 2828WAT     H2 8727   5.601   4.795   0.139
 2829WAT      O 8728   2.381   8.488   0.570
 2829WAT     H1 8729   2.410   8.477   0.665
 2829WAT     H2 8730   2.324   8.410   0.543
 2830WAT      O 8731   1.295   0.214   3.761
 2830WAT     H1 8732   1.238   0.145   3.715
 2830WAT     H2 8733   1.361   0.251   3.696
 2831WAT      O 8734   7.740   5.625   7.915
 2831WAT     H1 8735   7.825   5.573   7.919
 2831WAT     H2 8736   7.739   5.692   7.989
 2832WAT      O 8737   4.800   8.688   5.142
 2832WAT     H1 8738   4.744   8.660   5.220
 2832WAT     H2 8739   4.816   8.610   5.082
 2833WAT      O 8740   7.534   9.463   3.440
 2833WAT     H1 8741   7.513   9.487   3.346
 2833WAT     H2 8742   7.621   9.413   3.443
 2834WAT      O 8743   3.255   8.965   6.804
 2834WAT     H1 8744   3.161   8.953   6.771
 2834WAT     H2 8745   3.300   9.037   6.752
 2835WAT      O 8746   0.797   2.027   0.557
 2835WAT     H1 8747   0.781   1.937   0.515
 2835WAT     H2 8748   0.811   2.095   0.485
 2836WAT      O 8749   6.545   7.384   6.143
 2836WAT     H1 8750   6.541   7.390   6.243
 2836WAT     H2 8751   6.457   7.350   6.109
 2837WAT      O 8752   6.072   7.805   6.335
 2837WAT     H1 8753   6.001   7.790   6.402
 2837WAT     H2 8754   6.031   7.831   6.247
 2838WAT      O 8755   3.385   5.699   8.925
 2838WAT     H1 8756   3.363   5.690   9.022
 2838WAT     H2 8757   3.483   5.686   8.911
 2839WAT      O 8758   3.730   7.251   7.915
 2839WAT     H1 8759   3.692   7.323   7.973
 2839WAT     H2 8760   3.783   7.188   7.971
 2840WAT      O 8761   8.931   9.693   3.624
 2840WAT     H1 8762   8.908   9.695   3.721
 2840WAT     H2 8763   9.030   9.700   3.613
 2841WAT      O 8764   1.628   2.824   2.866
 2841WAT     H1 8765   1.531   2.833   2.887
 2841WAT     H2 8766   1.681   2.831   2.950
 2842WAT      O 8767   0.840   2.789   8.962
 2842WAT     H1 8768   0.901   2.839   8.900
 2842WAT     H2 8769   0.754   2.839   8.971
 2843WAT      O 8770   2.384   9.713   8.385
 2843WAT     H1 8771   2.399   9.791   8.445
 2843WAT     H2 8772   2.289   9.682   8.394
 2844WAT      O 8773   0.184   8.097   6.754
 2844WAT     H1 8774   0.272   8.143   6.762
 2844WAT     H2 8775   0.118   8.138   6.817
 2845WAT      O 8776   1.652   7.155   5.012
 2845WAT     H1 8777   1.616   7.071   4.973
 2845WAT     H2 8778   1.581   7.198   5.068
 2846WAT      O 8779   2.501   5.917   4.235
 2846WAT     H1 8780   2.591   5.886   4.202
 2846WAT     H2 8781   2.508   6.012   4.266
 2847WAT      O 8782   5.396   7.901   7.758
 2847WAT     H1 8783   5.411   7.938   7.850
 2847WAT     H2 8784   5.411   7.802   7.759
 2848WAT      O 8785   5.298   1.484   3.571
 2848WAT     H1 8786   5.317   1.441   3.483
 2848WAT     H2 8787   5.214   1.537   3.565
 2849WAT      O 8788   5.589   7.614   1.546
 2849WAT     H1 8789   5.686   7.641   1.545
 2849WAT     H2 8790   5.561   7.592   1.639
 2850WAT      O 8791   2.722   4.577   3.311
 2850WAT     H1 8792   2.813   4.607   3.282
 2850WAT     H2 8793   2.728   4.532   3.400
 2851WAT      O 8794   9.001   6.706   0.228
 2851WAT     H1 8795   8.911   6.736   0.260
 2851WAT     H2 8796   8.990   6.660   0.139
 2852WAT      O 8797   2.054   6.256   7.173
 2852WAT     H1 8798   2.080   6.262   7.270
 2852WAT     H2 8799   1.966   6.211   7.165
 2853WAT      O 8800   6.210   6.272   6.712
 2853WAT     H1 8801   6.148   6.236   6.782
 2853WAT     H2 8802   6.170   6.355   6.672
 2854WAT      O 8803   0.819   6.955   7.335
 2854WAT     H1 8804   0.869   6.869   7.344
 2854WAT     H2 8805   0.792   6.987   7.426
 2855WAT      O 8806   8.091   8.278   5.645
 2855WAT     H1 8807   8.145   8.200   5.674
 2855WAT     H2 8808   8.085   8.280   5.545
 2856WAT      O 8809   3.300   5.253   4.319
 2856WAT     H1 8810   3.301   5.294   4.228
 2856WAT     H2 8811   3.271   5.157   4.312
 2857WAT      O 8812   5.436   6.908   2.163
 2857WAT     H1 8813   5.356   6.949   2.206
 2857WAT     H2 8814   5.519   6.953   2.197
 2858WAT      O 8815   0.211   6.841   8.642
 2858WAT     H1 8816   0.172   6.906   8.576
 2858WAT     H2 8817   0.259   6.892   8.714
 2859WAT      O 8818   0.108   1.424   9.053
 2859WAT     H1 8819   0.157   1.339   9.073
 2859WAT     H2 8820   0.012   1.405   9.038
 2860WAT      O 8821   3.445   6.295   8.095
 2860WAT     H1 8822   3.368   6.320   8.035
 2860WAT     H2 8823   3.526   6.347   8.069
 2861WAT      O 8824   0.198   6.225   5.562
 2861WAT     H1 8825   0.220   6.292   5.491
 2861WAT     H2 8826   0.153   6.146   5.520
 2862WAT      O 8827   1.468   8.123   1.810
 2862WAT     H1 8828   1.555   8.100   1.852
 2862WAT     H2 8829   1.400   8.142   1.881
 2863WAT      O 8830   5.899   7.635   2.779
 2863WAT     H1 8831   5.940   7.616   2.690
 2863WAT     H2 8832   5.966   7.679   2.839
 2864WAT      O 8833   6.756   8.594   6.613
 2864WAT     H1 8834   6.687   8.621   6.680
 2864WAT     H2 8835   6.842   8.576   6.660
 2865WAT      O 8836   5.957   0.977   1.680
 2865WAT     H1 8837   5.971   1.008   1.774
 2865WAT     H2 8838   5.861   0.956   1.666
 2866WAT      O 8839   5.660   8.635   7.923
 2866WAT     H1 8840   5.622   8.543   7.917
 2866WAT     H2 8841   5.592   8.696   7.965
 2867WAT      O 8842   6.049   4.307   7.542
 2867WAT     H1 8843   6.141   4.282   7.512
 2867WAT     H2 8844   5.987   4.229   7.532
 2868WAT      O 8845   5.466   7.889   6.630
 2868WAT     H1 8846   5.479   7.947   6.550
 2868WAT     H2 8847   5.404   7.813   6.606
 2869WAT      O 8848   5.009   5.711   8.335
 2869WAT     H1 8849   5.008   5.811   8.330
 2869WAT     H2 8850   4.922   5.679   8.374
 2870WAT      O 8851   9.747   9.752   5.155
 2870WAT     H1 8852   9.770   9.802   5.238
 2870WAT     H2 8853   9.824   9.694   5.129
 2871WAT      O 8854   3.770   2.806   5.150
 2871WAT     H1 8855   3.821   2.848   5.074
 2871WAT     H2 8856   3.802   2.844   5.236
 2872WAT      O 8857   3.064   9.771   6.689
 2872WAT     H1 8858   3.067   9.870   6.701
 2872WAT     H2 8859   3.157   9.735   6.680
 2873WAT      O 8860   3.380   7.810   9.552
 2873WAT     H1 8861   3.406   7.746   9.624
 2873WAT     H2 8862   3.345   7.759   9.473
 2874WAT      O 8863   4.280   2.381   8.642
 2874WAT     H1 8864   4.344   2.391   8.718
 2874WAT     H2 8865   4.306   2.443   8.568
 2875WAT      O 8866   5.310   4.386   3.732
 2875WAT     H1 8867   5.226   4.334   3.720
 2875WAT     H2 8868   5.290   4.471   3.781
 2876WAT      O 8869   6.416   5.928   7.635
 2876WAT     H1 8870   6.346   5.964   7.696
 2876WAT     H2 8871   6.426   5.830   7.650
 2877WAT      O 8872   7.021   8.723   3.167
 2877WAT     H1 8873   7.117   8.718   3.137
 2877WAT     H2 8874   6.977   8.634   3.152
 2878WAT      O 8875   7.398   3.051   2.326
 2878WAT     H1 8876   7.364   3.113   2.255
 2878WAT     H2 8877   7.359   2.960   2.313
 2879WAT      O 8878   0.377   2.147   6.170
 2879WAT     H1 8879   0.293   2.155   6.224
 2879WAT     H2 8880   0.450   2.198   6.216
 2880WAT      O 8881   8.163   4.708   5.067
 2880WAT     H1 8882   8.125   4.800   5.054
 2880WAT     H2 8883   8.225   4.687   4.991
 2881WAT      O 8884   0.413   3.308   6.101
 2881WAT     H1 8885   0.480   3.295   6.028
 2881WAT     H2 8886   0.415   3.403   6.131
 2882WAT      O 8887   4.201   1.848   5.219
 2882WAT     H1 8888   4.178   1.881   5.311
 2882WAT     H2 8889   4.118   1.849   5.163
 2883WAT      O 8890   1.229   7.407   4.303
 2883WAT     H1 8891   1.298   7.336   4.321
 2883WAT     H2 8892   1.251   7.451   4.216
 2884WAT      O 8893   0.391   9.800   4.088
 2884WAT     H1 8894   0.405   9.898   4.093
 2884WAT     H2 8895   0.375   9.763   4.179
 2885WAT      O 8896   7.033   7.541   2.805
 2885WAT     H1 8897   7.056   7.638   2.804
 2885WAT     H2 8898   7.030   7.506   2.712
 2886WAT      O 8899   0.687   1.254   9.174
 2886WAT     H1 8900   0.728   1.284   9.088
 2886WAT     H2 8901   0.702   1.323   9.244
 2887WAT      O 8902   6.423   9.503   4.886
 2887WAT     H1 8903   6.462   9.448   4.811
 2887WAT     H2 8904   6.358   9.447   4.937
 2888WAT      O 8905   5.507   0.926   6.895
 2888WAT     H1 8906   5.509   0.832   6.861
 2888WAT     H2 8907   5.421   0.942   6.944
 2889WAT      O 8908   6.450   6.006   0.901
 2889WAT     H1 8909   6.418   6.100   0.913
 2889WAT     H2 8910   6.462   5.988   0.803
 2890WAT      O 8911   0.669   1.706   1.120
 2890WAT     H1 8912   0.629   1.616   1.100
 2890WAT     H2 8913   0.691   1.711   1.218
 2891WAT      O 8914   1.456   1.435   1.197
 2891WAT     H1 8915   1.466   1.533   1.209
 2891WAT     H2 8916   1.528   1.387   1.249
 2892WAT      O 8917   9.670   1.933   0.149
 2892WAT     H1 8918   9.674   2.026   0.185
 2892WAT     H2 8919   9.575   1.909   0.128
 2893WAT      O 8920   5.743   1.670   1.142
 2893WAT     H1 8921   5.751   1.573   1.120
 2893WAT     H2 8922   5.828   1.701   1.185
 2894WAT      O 8923   3.412   3.006   1.653
 2894WAT     H1 8924   3.442   2.947   1.728
 2894WAT     H2 8925   3.329   2.968   1.612
 2895WAT      O 8926   6.711   2.002   7.729
 2895WAT     H1 8927   6.646   2.026   7.801
 2895WAT     H2 8928   6.674   1.926   7.675
 2896WAT      O 8929   5.892   2.386   8.766
 2896WAT     H1 8930   5.852   2.411   8.853
 2896WAT     H2 8931   5.840   2.309   8.727
 2897WAT      O 8932   0.118   2.417   0.406
 2897WAT     H1 8933   0.217   2.418   0.390
 2897WAT     H2 8934   0.099   2.372   0.493
 2898WAT      O 8935   6.441   8.905   2.267
 2898WAT     H1 8936   6.429   8.975   2.196
 2898WAT     H2 8937   6.446   8.949   2.357
 2899WAT      O 8938   3.601   3.503   7.999
 2899WAT     H1 8939   3.573   3.598   8.013
 2899WAT     H2 8940   3.541   3.442   8.051
 2900WAT      O 8941   8.926   2.811   4.337
 2900WAT     H1 8942   9.006   2.751   4.341
 2900WAT     H2 8943   8.912   2.852   4.427
 2901WAT      O 8944   3.487   9.671   2.186
 2901WAT     H1 8945   3.423   9.678   2.263
 2901WAT     H2 8946   3.530   9.760   2.172
 2902WAT      O 8947   2.588   3.875   4.053
 2902WAT     H1 8948   2.657   3.814   4.016
 2902WAT     H2 8949   2.611   3.970   4.029
 2903WAT      O 8950   7.569   4.176   1.781
 2903WAT     H1 8951   7.656   4.193   1.829
 2903WAT     H2 8952   7.558   4.243   1.707
 2904WAT      O 8953   5.818   8.844   9.340
 2904WAT     H1 8954   5.909   8.867   9.307
 2904WAT     H2 8955   5.809   8.872   9.436
 2905WAT      O 8956   5.228   6.490   1.393
 2905WAT     H1 8957   5.151   6.520   1.450
 2905WAT     H2 8958   5.228   6.542   1.308
 2906WAT      O 8959   8.492   7.234   7.657
 2906WAT     H1 8960   8.480   7.165   7.728
 2906WAT     H2 8961   8.434   7.313   7.677
 2907WAT      O 8962   5.228   6.039   0.562
 2907WAT     H1 8963   5.152   6.038   0.497
 2907WAT     H2 8964   5.210   5.972   0.635
 2908WAT      O 8965   6.023   7.850   4.159
 2908WAT     H1 8966   6.078   7.898   4.091
 2908WAT     H2 8967   6.039   7.891   4.249
 2909WAT      O 8968   6.254   4.343   8.541
 2909WAT     H1 8969   6.288   4.253   8.511
 2909WAT     H2 8970   6.322   4.385   8.601
 2910WAT      O 8971   6.063   4.536   4.805
 2910WAT     H1 8972   6.048   4.628   4.841
 2910WAT     H2 8973   6.017   4.527   4.716
 2911WAT      O 8974   1.670   2.809   5.562
 2911WAT     H1 8975   1.658   2.847   5.470
 2911WAT     H2 8976   1.648   2.879   5.630
 2912WAT      O 8977   5.247   2.888   8.519
 2912WAT     H1 8978   5.194   2.815   8.562
 2912WAT     H2 8979   5.188   2.941   8.459
 2913WAT      O 8980   0.615   3.426   2.042
 2913WAT     H1 8981   0.628   3.380   1.954
 2913WAT     H2 8982   0.530   3.395   2.084
 2914WAT      O 8983   2.157   9.636   0.604
 2914WAT     H1 8984   2.105   9.576   0.665
 2914WAT     H2 8985   2.095   9.704   0.564
 2915WAT      O 8986   6.827   7.168   0.623
 2915WAT     H1 8987   6.786   7.079   0.605
 2915WAT     H2 8988   6.825   7.186   0.721
 2916WAT      O 8989   9.711   3.625   8.178
 2916WAT     H1 8990   9.727   3.593   8.085
 2916WAT     H2 8991   9.716   3.725   8.181
 2917WAT      O 8992   7.786   1.197   2.714
 2917WAT     H1 8993   7.873   1.218   2.671
 2917WAT     H2 8994   7.756   1.274   2.769
 2918WAT      O 8995   3.281   7.719   4.162
 2918WAT     H1 8996   3.255   7.747   4.069
 2918WAT     H2 8997   3.280   7.799   4.222
 2919WAT      O 8998   7.769   9.488   6.908
 2919WAT     H1 8999   7.779   9.422   6.983
 2919WAT     H2 9000   7.742   9.440   6.825
 2920WAT      O 9001   0.639   6.530   3.597
 2920WAT     H1 9002   0.576   6.484   3.535
 2920WAT     H2 9003   0.621   6.499   3.691
 2921WAT      O 9004   4.340   0.296   7.557
 2921WAT     H1 9005   4.323   0.370   7.623
 2921WAT     H2 9006   4.401   0.229   7.598
 2922WAT      O 9007   7.077   7.008   0.888
 2922WAT     H1 9008   7.004   7.017   0.956
 2922WAT     H2 9009   7.051   6.938   0.821
 2923WAT      O 9010   5.835   5.869   8.957
 2923WAT     H1 9011   5.808   5.871   9.054
 2923WAT     H2 9012   5.783   5.797   8.910
 2924WAT      O 9013   9.163   4.813   5.305
 2924WAT     H1 9014   9.095   4.851   5.243
 2924WAT     H2 9015   9.124   4.807   5.397
 2925WAT      O 9016   0.154   4.495   3.258
 2925WAT     H1 9017   0.203   4.439   3.325
 2925WAT     H2 9018   0.102   4.567   3.304
 2926WAT      O 9019   6.178   0.046   2.340
 2926WAT     H1 9020   6.182   0.043   2.240
 2926WAT     H2 9021   6.161   0.140   2.370
 2927WAT      O 9022   4.260   8.625   3.536
 2927WAT     H1 9023   4.174   8.634   3.485
 2927WAT     H2 9024   4.284   8.528   3.543
 2928WAT      O 9025   6.005   8.189   0.255
 2928WAT     H1 9026   5.911   8.178   0.288
 2928WAT     H2 9027   6.005   8.248   0.174
 2929WAT      O 9028   4.736   1.461   2.661
 2929WAT     H1 9029   4.709   1.530   2.594
 2929WAT     H2 9030   4.758   1.376   2.614
 2930WAT      O 9031   6.659   0.334   7.854
 2930WAT     H1 9032   6.572   0.300   7.818
 2930WAT     H2 9033   6.650   0.431   7.877
 2931WAT      O 9034   7.559   6.932   8.009
 2931WAT     H1 9035   7.538   6.962   7.916
 2931WAT     H2 9036   7.657   6.942   8.027
 2932WAT      O 9037   2.952   7.493   0.660
 2932WAT     H1 9038   2.993   7.520   0.747
 2932WAT     H2 9039   2.877   7.429   0.678
 2933WAT      O 9040   5.815   5.471   0.295
 2933WAT     H1 9041   5.794   5.419   0.212
 2933WAT     H2 9042   5.908   5.448   0.326
 2934WAT      O 9043   9.684   3.292   9.424
 2934WAT     H1 9044   9.764   3.304   9.365
 2934WAT     H2 9045   9.601   3.319   9.374
 2935WAT      O 9046   8.772   7.837   0.725
 2935WAT     H1 9047   8.814   7.852   0.814
 2935WAT     H2 9048   8.697   7.901   0.712
 2936WAT      O 9049   2.804   9.185   0.210
 2936WAT     H1 9050   2.717   9.199   0.164
 2936WAT     H2 9051   2.873   9.155   0.144
 2937WAT      O 9052   4.694   4.286   1.529
 2937WAT     H1 9053   4.690   4.261   1.432
 2937WAT     H2 9054   4.777   4.249   1.570
 2938WAT      O 9055   7.727   3.367   9.044
 2938WAT     H1 9056   7.671   3.290   9.076
 2938WAT     H2 9057   7.816   3.365   9.090
 2939WAT      O 9058   0.871   1.672   2.100
 2939WAT     H1 9059   0.870   1.760   2.148
 2939WAT     H2 9060   0.919   1.683   2.012
 2940WAT      O 9061   4.336   1.216   8.128
 2940WAT     H1 9062   4.409   1.172   8.076
 2940WAT     H2 9063   4.263   1.151   8.146
 2941WAT      O 9064   6.868   5.040   9.639
 2941WAT     H1 9065   6.921   4.957   9.624
 2941WAT     H2 9066   6.853   5.087   9.552
 2942WAT      O 9067   8.985   0.404   4.085
 2942WAT     H1 9068   8.979   0.452   4.172
 2942WAT     H2 9069   8.909   0.340   4.077
 2943WAT      O 9070   7.564   7.078   0.788
 2943WAT     H1 9071   7.622   7.013   0.739
 2943WAT     H2 9072   7.620   7.152   0.825
 2944WAT      O 9073   5.561   1.790   4.609
 2944WAT     H1 9074   5.506   1.713   4.577
 2944WAT     H2 9075   5.517   1.876   4.582
 2945WAT      O 9076   3.217   7.963   8.516
 2945WAT     H1 9077   3.277   7.998   8.587
 2945WAT     H2 9078   3.152   7.898   8.557
 2946WAT      O 9079   0.829   3.818   3.218
 2946WAT     H1 9080   0.777   3.868   3.149
 2946WAT     H2 9081   0.861   3.882   3.288
 2947WAT      O 9082   5.279   5.940   2.304
 2947WAT     H1 9083   5.184   5.967   2.318
 2947WAT     H2 9084   5.318   5.991   2.227
 2948WAT      O 9085   2.646   0.086   7.768
 2948WAT     H1 9086   2.739   0.102   7.801
 2948WAT     H2 9087   2.592   0.170   7.778
 2949WAT      O 9088   2.370   4.088   2.066
 2949WAT     H1 9089   2.338   4.126   2.153
 2949WAT     H2 9090   2.312   4.012   2.039
 2950WAT      O 9091   9.030   8.695   3.638
 2950WAT     H1 9092   8.964   8.731   3.704
 2950WAT     H2 9093   8.982   8.665   3.556
 2951WAT      O 9094   6.504   4.463   5.450
 2951WAT     H1 9095   6.506   4.526   5.528
 2951WAT     H2 9096   6.411   4.457   5.414
 2952WAT      O 9097   1.580   5.405   9.845
 2952WAT     H1 9098   1.508   5.446   9.789
 2952WAT     H2 9099   1.581   5.450   9.935
 2953WAT      O 9100   6.944   6.717   3.909
 2953WAT     H1 9101   6.844   6.714   3.912
 2953WAT     H2 9102   6.974   6.797   3.857
 2954WAT      O 9103   1.789   0.323   6.385
 2954WAT     H1 9104   1.740   0.410   6.383
 2954WAT     H2 9105   1.821   0.305   6.478
 2955WAT      O 9106   7.480   1.651   7.244
 2955WAT     H1 9107   7.550   1.711   7.283
 2955WAT     H2 9108   7.477   1.566   7.296
 2956WAT      O 9109   1.450   3.819   5.024
 2956WAT     H1 9110   1.498   3.791   5.107
 2956WAT     H2 9111   1.504   3.793   4.944
 2957WAT      O 9112   6.114   2.663   3.726
 2957WAT     H1 9113   6.186   2.661   3.796
 2957WAT     H2 9114   6.030   2.624   3.763
 2958WAT      O 9115   1.251   6.000   3.798
 2958WAT     H1 9116   1.325   6.009   3.864
 2958WAT     H2 9117   1.286   6.018   3.706
 2959WAT      O 9118   7.615   5.018   2.351
 2959WAT     H1 9119   7.599   5.088   2.282
 2959WAT     H2 9120   7.605   5.059   2.442
 2960WAT      O 9121   9.439   8.269   5.743
 2960WAT     H1 9122   9.473   8.185   5.700
 2960WAT     H2 9123   9.352   8.250   5.787
 2961WAT      O 9124   8.876   3.633   7.374
 2961WAT     H1 9125   8.831   3.572   7.440
 2961WAT     H2 9126   8.917   3.710   7.423
 2962WAT      O 9127   9.274   8.190   9.207
 2962WAT     H1 9128   9.240   8.282   9.226
 2962WAT     H2 9129   9.243   8.127   9.279
 2963WAT      O 9130   4.938   7.052   3.183
 2963WAT     H1 9131   4.878   7.107   3.125
 2963WAT     H2 9132   4.887   7.020   3.263
 2964WAT      O 9133   1.840   2.412   2.421
 2964WAT     H1 9134   1.744   2.401   2.397
 2964WAT     H2 9135   1.847   2.470   2.503
 2965WAT      O 9136   4.698   7.514   3.500
 2965WAT     H1 9137   4.605   7.503   3.465
 2965WAT     H2 9138   4.714   7.446   3.572
 2966WAT      O 9139   8.460   5.829   1.392
 2966WAT     H1 9140   8.388   5.881   1.439
 2966WAT     H2 9141   8.440   5.826   1.294
 2967WAT      O 9142   7.532   5.034   3.327
 2967WAT     H1 9143   7.622   5.020   3.285
 2967WAT     H2 9144   7.488   4.946   3.341
 2968WAT      O 9145   6.523   0.483   1.088
 2968WAT     H1 9146   6.566   0.393   1.088
 2968WAT     H2 9147   6.473   0.497   1.003
 2969WAT      O 9148   1.306   9.761   0.295
 2969WAT     H1 9149   1.267   9.781   0.385
 2969WAT     H2 9150   1.406   9.758   0.301
 2970WAT      O 9151   8.572   5.676   8.082
 2970WAT     H1 9152   8.578   5.719   8.172
 2970WAT     H2 9153   8.482   5.692   8.042
 2971WAT      O 9154   5.001   5.147   7.588
 2971WAT     H1 9155   5.064   5.214   7.549
 2971WAT     H2 9156   5.016   5.141   7.687
 2972WAT      O 9157   5.790   8.808   4.499
 2972WAT     H1 9158   5.855   8.785   4.572
 2972WAT     H2 9159   5.697   8.794   4.532
 2973WAT      O 9160   9.162   3.271   4.105
 2973WAT     H1 9161   9.066   3.283   4.132
 2973WAT     H2 9162   9.167   3.251   4.007
 2974WAT      O 9163   0.928   9.071   6.628
 2974WAT     H1 9164   0.938   9.165   6.662
 2974WAT     H2 9165   1.009   9.045   6.576
 2975WAT      O 9166   3.763   4.217   3.653
 2975WAT     H1 9167   3.766   4.249   3.558
 2975WAT     H2 9168   3.725   4.289   3.711
 2976WAT      O 9169   2.195   0.135   0.745
 2976WAT     H1 9170   2.188   0.213   0.807
 2976WAT     H2 9171   2.220   0.053   0.798
 2977WAT      O 9172   0.014   2.238   8.235
 2977WAT     H1 9173  -0.014   2.212   8.142
 2977WAT     H2 9174  -0.057   2.212   8.300
 2978WAT      O 9175   7.495   8.428   5.182
 2978WAT     H1 9176   7.570   8.374   5.142
 2978WAT     H2 9177   7.469   8.388   5.270
 2979WAT      O 9178   8.735   5.933   1.510
 2979WAT     H1 9179   8.687   5.868   1.450
 2979WAT     H2 9180   8.806   5.884   1.561
 2980WAT      O 9181   7.102   9.349   3.615
 2980WAT     H1 9182   7.096   9.357   3.515
 2980WAT     H2 9183   7.110   9.253   3.640
 2981WAT      O 9184   0.651   6.315   5.198
 2981WAT     H1 9185   0.634   6.283   5.105
 2981WAT     H2 9186   0.564   6.325   5.246
 2982WAT      O 9187   6.840   1.225   3.027
 2982WAT     H1 9188   6.766   1.280   3.065
 2982WAT     H2 9189   6.803   1.140   2.989
 2983WAT      O 9190   9.642   6.704   5.234
 2983WAT     H1 9191   9.603   6.786   5.277
 2983WAT     H2 9192   9.700   6.731   5.158
 2984WAT      O 9193   6.474   7.051   3.975
 2984WAT     H1 9194   6.380   7.066   4.008
 2984WAT     H2 9195   6.518   7.140   3.960
 2985WAT      O 9196   5.948   2.564   0.716
 2985WAT     H1 9197   5.860   2.610   0.703
 2985WAT     H2 9198   5.969   2.509   0.636
 2986WAT      O 9199   3.753   4.249   3.387
 2986WAT     H1 9200   3.749   4.191   3.306
 2986WAT     H2 9201   3.723   4.341   3.364
 2987WAT      O 9202   3.150   1.580   4.678
 2987WAT     H1 9203   3.051   1.587   4.691
 2987WAT     H2 9204   3.194   1.563   4.766
 2988WAT      O 9205   4.302   7.620   7.446
 2988WAT     H1 9206   4.277   7.561   7.523
 2988WAT     H2 9207   4.222   7.674   7.418
 2989WAT      O 9208   3.411   6.577   5.146
 2989WAT     H1 9209   3.332   6.522   5.119
 2989WAT     H2 9210   3.400   6.671   5.114
 2990WAT      O 9211   6.354   5.049   1.069
 2990WAT     H1 9212   6.303   4.966   1.089
 2990WAT     H2 9213   6.430   5.058   1.134
 2991WAT      O 9214   0.423   1.951   9.599
 2991WAT     H1 9215   0.445   1.935   9.695
 2991WAT     H2 9216   0.476   1.888   9.542
 2992WAT      O 9217   4.899   3.007   2.612
 2992WAT     H1 9218   4.813   3.041   2.650
 2992WAT     H2 9219   4.975   3.035   2.671
 2993WAT      O 9220   6.552   3.480   1.437
 2993WAT     H1 9221   6.477   3.530   1.480
 2993WAT     H2 9222   6.640   3.521   1.464
 2994WAT      O 9223   3.341   1.565   2.573
 2994WAT     H1 9224   3.382   1.528   2.490
 2994WAT     H2 9225   3.413   1.587   2.639
 2995WAT      O 9226   1.603   9.757   0.413
 2995WAT     H1 9227   1.591   9.707   0.498
 2995WAT     H2 9228   1.661   9.704   0.351
 2996WAT      O 9229   7.989   2.268   7.052
 2996WAT     H1 9230   7.932   2.345   7.023
 2996WAT     H2 9231   7.930   2.195   7.086
 2997WAT      O 9232   8.770   1.022   8.713
 2997WAT     H1 9233   8.801   1.046   8.805
 2997WAT     H2 9234   8.792   1.096   8.650
 2998WAT      O 9235   7.730   2.487   2.746
 2998WAT     H1 9236   7.647   2.532   2.779
 2998WAT     H2 9237   7.727   2.480   2.646
 2999WAT      O 9238   2.549   5.353   4.314
 2999WAT     H1 9239   2.486   5.423   4.280
 2999WAT     H2 9240   2.641   5.371   4.280
 3000WAT      O 9241   4.173   5.297   9.671
 3000WAT     H1 9242   4.251   5.341   9.717
 3000WAT     H2 9243   4.105   5.366   9.647
 3001WAT      O 9244   3.296   0.611   7.276
 3001WAT     H1 9245   3.356   0.576   7.348
 3001WAT     H2 9246   3.276   0.538   7.211
 3002WAT      O 9247   3.265   4.177   7.971
 3002WAT     H1 9248   3.351   4.128   7.987
 3002WAT     H2 9249   3.207   4.122   7.911
 3003WAT      O 9250   1.593   8.515   5.781
 3003WAT     H1 9251   1.638   8.567   5.853
 3003WAT     H2 9252   1.643   8.430   5.765
 3004WAT      O 9253   4.740   3.568   5.326
 3004WAT     H1 9254   4.776   3.527   5.242
 3004WAT     H2 9255   4.669   3.634   5.303
 3005WAT      O 9256   8.124   2.847   9.610
 3005WAT     H1 9257   8.030   2.826   9.634
 3005WAT     H2 9258   8.127   2.884   9.517
 3006WAT      O 9259   3.102   3.819   9.348
 3006WAT     H1 9260   3.054   3.845   9.431
 3006WAT     H2 9261   3.037   3.780   9.283
 3007WAT      O 9262   2.053   8.779   3.748
 3007WAT     H1 9263   1.971   8.743   3.791
 3007WAT     H2 9264   2.132   8.725   3.776
 3008WAT      O 9265   6.803   2.692   8.334
 3008WAT     H1 9266   6.902   2.691   8.322
 3008WAT     H2 9267   6.759   2.663   8.248
 3009WAT      O 9268   8.323   8.725   5.446
 3009WAT     H1 9269   8.299   8.820   5.466
 3009WAT     H2 9270   8.245   8.666   5.467
 3010WAT      O 9271   7.935   3.162   7.504
 3010WAT     H1 9272   7.877   3.184   7.425
 3010WAT     H2 9273   7.980   3.246   7.537
 3011WAT      O 9274   6.070   5.061   9.598
 3011WAT     H1 9275   6.074   4.977   9.653
 3011WAT     H2 9276   6.116   5.044   9.510
 3012WAT      O 9277   7.181   4.864   2.810
 3012WAT     H1 9278   7.275   4.846   2.781
 3012WAT     H2 9279   7.137   4.925   2.744
 3013WAT      O 9280   8.680   4.076   8.894
 3013WAT     H1 9281   8.736   4.028   8.961
 3013WAT     H2 9282   8.643   4.160   8.934
 3014WAT      O 9283   0.932   2.222   2.660
 3014WAT     H1 9284   1.002   2.162   2.622
 3014WAT     H2 9285   0.934   2.216   2.760
 3015WAT      O 9286   6.619   5.962   0.301
 3015WAT     H1 9287   6.543   5.902   0.327
 3015WAT     H2 9288   6.703   5.907   0.292
 3016WAT      O 9289   7.488   4.806   2.716
 3016WAT     H1 9290   7.516   4.897   2.687
 3016WAT     H2 9291   7.568   4.745   2.713
 3017WAT      O 9292   7.936   6.006   0.763
 3017WAT     H1 9293   7.913   6.040   0.855
 3017WAT     H2 9294   7.978   6.080   0.710
 3018WAT      O 9295   2.149   5.608   3.710
 3018WAT     H1 9296   2.081   5.637   3.642
 3018WAT     H2 9297   2.227   5.670   3.706
 3019WAT      O 9298   8.061   0.418   6.612
 3019WAT     H1 9299   8.110   0.411   6.525
 3019WAT     H2 9300   8.098   0.352   6.677
 3020WAT      O 9301   2.116   7.041   1.580
 3020WAT     H1 9302   2.026   7.074   1.551
 3020WAT     H2 9303   2.140   6.960   1.527
 3021WAT      O 9304   3.860   3.203   0.620
 3021WAT     H1 9305   3.920   3.206   0.700
 3021WAT     H2 9306   3.852   3.295   0.582
 3022WAT      O 9307   1.938   0.696   8.666
 3022WAT     H1 9308   1.968   0.667   8.575
 3022WAT     H2 9309   1.982   0.783   8.689
 3023WAT      O 9310   7.911   7.613   2.054
 3023WAT     H1 9311   8.005   7.636   2.076
 3023WAT     H2 9312   7.871   7.558   2.127
 3024WAT      O 9313   6.309   1.644   0.642
 3024WAT     H1 9314   6.299   1.743   0.642
 3024WAT     H2 9315   6.289   1.608   0.551
 3025WAT      O 9316   8.596   8.431   3.211
 3025WAT     H1 9317   8.508   8.384   3.213
 3025WAT     H2 9318   8.590   8.514   3.156
 3026WAT      O 9319   0.712   9.139   5.212
 3026WAT     H1 9320   0.685   9.131   5.116
 3026WAT     H2 9321   0.661   9.214   5.255
 3027WAT      O 9322   3.026   7.465   2.170
 3027WAT     H1 9323   2.971   7.450   2.087
 3027WAT     H2 9324   2.972   7.517   2.236
 3028WAT      O 9325   5.322   9.010   7.507
 3028WAT     H1 9326   5.404   8.970   7.467
 3028WAT     H2 9327   5.332   9.015   7.606
 3029WAT      O 9328   1.319   7.724   7.948
 3029WAT     H1 9329   1.379   7.777   8.008
 3029WAT     H2 9330   1.224   7.756   7.959
 3030WAT      O 9331   9.287   1.235   3.700
 3030WAT     H1 9332   9.196   1.204   3.726
 3030WAT     H2 9333   9.282   1.327   3.661
 3031WAT      O 9334   3.706   2.022   5.279
 3031WAT     H1 9335   3.722   2.019   5.180
 3031WAT     H2 9336   3.746   1.941   5.322
 3032WAT      O 9337   1.195   4.592   4.700
 3032WAT     H1 9338   1.263   4.540   4.752
 3032WAT     H2 9339   1.147   4.654   4.762
 3033WAT      O 9340   5.754   0.924   2.175
 3033WAT     H1 9341   5.736   0.904   2.079
 3033WAT     H2 9342   5.668   0.917   2.227
 3034WAT      O 9343   2.347   5.270   5.094
 3034WAT     H1 9344   2.366   5.216   5.012
 3034WAT     H2 9345   2.361   5.213   5.175
 3035WAT      O 9346   1.753   2.287   7.123
 3035WAT     H1 9347   1.828   2.222   7.124
 3035WAT     H2 9348   1.691   2.265   7.048
 3036WAT      O 9349   7.938   9.514   9.136
 3036WAT     H1 9350   7.956   9.541   9.041
 3036WAT     H2 9351   7.961   9.589   9.197
 3037WAT      O 9352   1.845   7.157   0.435
 3037WAT     H1 9353   1.759   7.199   0.410
 3037WAT     H2 9354   1.840   7.122   0.529
 3038WAT      O 9355   8.397   2.788   2.733
 3038WAT     H1 9356   8.324   2.847   2.768
 3038WAT     H2 9357   8.357   2.713   2.681
 3039WAT      O 9358   8.575   0.323   6.799
 3039WAT     H1 9359   8.646   0.290   6.737
 3039WAT     H2 9360   8.618   0.364   6.879
 3040WAT      O 9361   1.373   1.860   6.705
 3040WAT     H1 9362   1.459   1.810   6.711
 3040WAT     H2 9363   1.387   1.954   6.736
 3041WAT      O 9364   3.266   8.539   2.601
 3041WAT     H1 9365   3.201   8.463   2.606
 3041WAT     H2 9366   3.216   8.625   2.586
 3042WAT      O 9367   7.836   3.902   6.628
 3042WAT     H1 9368   7.759   3.937   6.575
 3042WAT     H2 9369   7.843   3.803   6.615
 3043WAT      O 9370   8.113   0.068   8.408
 3043WAT     H1 9371   8.040   0.080   8.341
 3043WAT     H2 9372   8.178  -0.000   8.374
 3044WAT      O 9373   7.193   1.659   6.734
 3044WAT     H1 9374   7.139   1.616   6.806
 3044WAT     H2 9375   7.243   1.737   6.772
 3045WAT      O 9376   0.877   6.229   2.653
 3045WAT     H1 9377   0.912   6.314   2.690
 3045WAT     H2 9378   0.780   6.240   2.628
 3046WAT      O 9379   5.901   5.450   3.258
 3046WAT     H1 9380   5.823   5.492   3.212
 3046WAT     H2 9381   5.875   5.363   3.299
 3047WAT      O 9382   4.269   0.874   6.026
 3047WAT     H1 9383   4.357   0.912   5.999
 3047WAT     H2 9384   4.219   0.845   5.945
 3048WAT      O 9385   7.905   4.232   5.742
 3048WAT     H1 9386   7.847   4.181   5.677
 3048WAT     H2 9387   7.976   4.172   5.778
 3049WAT      O 9388   2.023   0.189   3.650
 3049WAT     H1 9389   1.933   0.228   3.670
 3049WAT     H2 9390   2.086   0.262   3.622
 3050WAT      O 9391   9.385   6.660   4.484
 3050WAT     H1 9392   9.422   6.610   4.405
 3050WAT     H2 9393   9.374   6.597   4.561
 3051WAT      O 9394   7.869   2.648   8.381
 3051WAT     H1 9395   7.952   2.698   8.406
 3051WAT     H2 9396   7.790   2.709   8.388
 3052WAT      O 9397   9.345   9.126   1.822
 3052WAT     H1 9398   9.290   9.055   1.865
 3052WAT     H2 9399   9.315   9.216   1.855
 3053WAT      O 9400   8.806   7.296   3.096
 3053WAT     H1 9401   8.832   7.235   3.021
 3053WAT     H2 9402   8.880   7.302   3.162
 3054WAT      O 9403   7.215   5.948   9.093
 3054WAT     H1 9404   7.258   5.975   9.179
 3054WAT     H2 9405   7.285   5.926   9.026
 3055WAT      O 9406   3.335   6.705   7.430
 3055WAT     H1 9407   3.320   6.707   7.331
 3055WAT     H2 9408   3.424   6.746   7.451
 3056WAT      O 9409   7.974   5.616   5.880
 3056WAT     H1 9410   7.925   5.552   5.939
 3056WAT     H2 9411   8.068   5.627   5.913
 3057WAT      O 9412   5.784   4.519   7.469
 3057WAT     H1 9413   5.859   4.501   7.404
 3057WAT     H2 9414   5.764   4.435   7.520
 3058WAT      O 9415   5.427   1.551   4.813
 3058WAT     H1 9416   5.484   1.562   4.894
 3058WAT     H2 9417   5.343   1.604   4.823
 3059WAT      O 9418   2.081   2.043   3.030
 3059WAT     H1 9419   2.007   2.008   2.973
 3059WAT     H2 9420   2.096   1.982   3.107
 3060WAT      O 9421   6.727   7.906   7.182
 3060WAT     H1 9422   6.706   8.003   7.194
 3060WAT     H2 9423   6.643   7.853   7.188
 3061WAT      O 9424   2.946   2.713   0.686
 3061WAT     H1 9425   2.941   2.809   0.658
 3061WAT     H2 9426   2.872   2.693   0.750
 3062WAT      O 9427   2.120   6.266   3.437
 3062WAT     H1 9428   2.028   6.304   3.429
 3062WAT     H2 9429   2.176   6.297   3.360
 3063WAT      O 9430   9.173   0.846   9.707
 3063WAT     H1 9431   9.097   0.841   9.642
 3063WAT     H2 9432   9.178   0.761   9.760
 3064WAT      O 9433   8.028   5.682   4.954
 3064WAT     H1 9434   8.087   5.616   4.908
 3064WAT     H2 9435   8.079   5.728   5.026
 3065WAT      O 9436   3.413   0.242   3.962
 3065WAT     H1 9437   3.345   0.301   4.006
 3065WAT     H2 9438   3.503   0.261   4.000
 3066WAT      O 9439   8.452   6.681   5.325
 3066WAT     H1 9440   8.432   6.584   5.339
 3066WAT     H2 9441   8.538   6.690   5.274
 3067WAT      O 9442   5.078   2.508   2.087
 3067WAT     H1 9443   4.995   2.502   2.031
 3067WAT     H2 9444   5.067   2.580   2.155
 3068WAT      O 9445   4.146   4.627   6.563
 3068WAT     H1 9446   4.213   4.582   6.504
 3068WAT     H2 9447   4.068   4.566   6.578
 3069WAT      O 9448   7.527   8.679   9.807
 3069WAT     H1 9449   7.545   8.597   9.752
 3069WAT     H2 9450   7.486   8.652   9.894
 3070WAT      O 9451   5.309   1.301   2.238
 3070WAT     H1 9452   5.295   1.273   2.143
 3070WAT     H2 9453   5.242   1.372   2.261
 3071WAT      O 9454   8.665   2.865   5.914
 3071WAT     H1 9455   8.731   2.794   5.939
 3071WAT     H2 9456   8.685   2.948   5.966
 3072WAT      O 9457   6.184   3.103   0.497
 3072WAT     H1 9458   6.177   3.135   0.592
 3072WAT     H2 9459   6.165   3.005   0.493
 3073WAT      O 9460   3.900   5.128   7.123
 3073WAT     H1 9461   3.832   5.174   7.066
 3073WAT     H2 9462   3.932   5.046   7.076
 3074WAT      O 9463   8.059   6.442   9.344
 3074WAT     H1 9464   8.138   6.391   9.310
 3074WAT     H2 9465   7.986   6.441   9.275
 3075WAT      O 9466   7.595   8.458   1.213
 3075WAT     H1 9467   7.567   8.461   1.117
 3075WAT     H2 9468   7.670   8.393   1.224
 3076WAT      O 9469   1.285   7.021   3.667
 3076WAT     H1 9470   1.347   6.961   3.717
 3076WAT     H2 9471   1.272   6.985   3.574
 3077WAT      O 9472   8.981   8.940   1.470
 3077WAT     H1 9473   8.955   8.845   1.491
 3077WAT     H2 9474   9.053   8.940   1.401
 3078WAT      O 9475   7.090   1.148   3.077
 3078WAT     H1 9476   6.994   1.171   3.062
 3078WAT     H2 9477   7.107   1.054   3.048
 3079WAT      O 9478   7.016   2.330   3.377
 3079WAT     H1 9479   6.969   2.418   3.370
 3079WAT     H2 9480   7.087   2.336   3.447
 3080WAT      O 9481   0.871   9.253   1.850
 3080WAT     H1 9482   0.780   9.217   1.830
 3080WAT     H2 9483   0.937   9.211   1.787
 3081WAT      O 9484   2.151   7.959   8.156
 3081WAT     H1 9485   2.073   7.900   8.178
 3081WAT     H2 9486   2.134   8.051   8.191
 3082WAT      O 9487   9.606   3.569   6.716
 3082WAT     H1 9488   9.631   3.537   6.624
 3082WAT     H2 9489   9.516   3.533   6.740
 3083WAT      O 9490   9.642   0.423   1.687
 3083WAT     H1 9491   9.557   0.392   1.730
 3083WAT     H2 9492   9.627   0.439   1.590
 3084WAT      O 9493   9.634   6.759   7.647
 3084WAT     H1 9494   9.637   6.678   7.588
 3084WAT     H2 9495   9.551   6.756   7.703
 3085WAT      O 9496   6.981   3.055   5.792
 3085WAT     H1 9497   7.039   2.983   5.755
 3085WAT     H2 9498   6.979   3.132   5.728
 3086WAT      O 9499   0.788   5.138   7.435
 3086WAT     H1 9500   0.711   5.190   7.398
 3086WAT     H2 9501   0.840   5.195   7.498
 3087WAT      O 9502   7.563   1.225   2.582
 3087WAT     H1 9503   7.575   1.242   2.484
 3087WAT     H2 9504   7.652   1.205   2.623
 3088WAT      O 9505   3.312   1.530   6.554
 3088WAT     H1 9506   3.363   1.541   6.469
 3088WAT     H2 9507   3.363   1.570   6.630
 3089WAT      O 9508   8.238   8.173   0.162
 3089WAT     H1 9509   8.152   8.219   0.143
 3089WAT     H2 9510   8.244   8.089   0.108
 3090WAT      O 9511   9.474   5.997   1.881
 3090WAT     H1 9512   9.379   6.022   1.864
 3090WAT     H2 9513   9.514   6.060   1.948
 3091WAT      O 9514   3.320   4.688   8.664
 3091WAT     H1 9515   3.416   4.670   8.684
 3091WAT     H2 9516   3.271   4.602   8.656
 3092WAT      O 9517   8.502   5.241   4.809
 3092WAT     H1 9518   8.481   5.333   4.842
 3092WAT     H2 9519   8.524   5.244   4.712
 3093WAT      O 9520   1.290   6.471   3.779
 3093WAT     H1 9521   1.293   6.479   3.679
 3093WAT     H2 9522   1.203   6.506   3.813
 3094WAT      O 9523   1.009   5.695   2.994
 3094WAT     H1 9524   0.947   5.717   3.069
 3094WAT     H2 9525   1.094   5.658   3.031
 3095WAT      O 9526   2.635   7.997   3.270
 3095WAT     H1 9527   2.620   8.094   3.251
 3095WAT     H2 9528   2.691   7.987   3.352
 3096WAT      O 9529   8.652   3.403   4.888
 3096WAT     H1 9530   8.640   3.316   4.936
 3096WAT     H2 9531   8.566   3.428   4.843
 3097WAT      O 9532   7.903   6.483   9.144
 3097WAT     H1 9533   7.966   6.444   9.076
 3097WAT     H2 9534   7.885   6.579   9.121
 3098WAT      O 9535   5.292   0.054   8.567
 3098WAT     H1 9536   5.341   0.124   8.515
 3098WAT     H2 9537   5.325  -0.037   8.540
 3099WAT      O 9538   9.607   9.379   1.255
 3099WAT     H1 9539   9.683   9.430   1.294
 3099WAT     H2 9540   9.602   9.289   1.298
 3100WAT      O 9541   7.359   0.838   5.986
 3100WAT     H1 9542   7.304   0.849   6.069
 3100WAT     H2 9543   7.455   0.854   6.007
 3101WAT      O 9544   1.366   5.006   2.504
 3101WAT     H1 9545   1.417   5.006   2.590
 3101WAT     H2 9546   1.271   4.980   2.521
 3102WAT      O 9547   6.492   6.097   6.419
 3102WAT     H1 9548   6.463   6.064   6.329
 3102WAT     H2 9549   6.592   6.094   6.425
 3103WAT      O 9550   5.366   3.038   1.217
 3103WAT     H1 9551   5.275   3.075   1.200
 3103WAT     H2 9552   5.369   2.997   1.308
 3104WAT      O 9553   0.416   0.312   7.134
 3104WAT     H1 9554   0.334   0.363   7.162
 3104WAT     H2 9555   0.399   0.214   7.144
 3105WAT      O 9556   9.171   5.931   8.590
 3105WAT     H1 9557   9.228   5.932   8.508
 3105WAT     H2 9558   9.225   5.904   8.669
 3106WAT      O 9559   2.233   3.678   0.203
 3106WAT     H1 9560   2.231   3.766   0.155
 3106WAT     H2 9561   2.145   3.663   0.249
 3107WAT      O 9562   1.372   7.163   1.518
 3107WAT     H1 9563   1.460   7.116   1.523
 3107WAT     H2 9564   1.386   7.261   1.505
 3108WAT      O 9565   5.608   1.100   6.692
 3108WAT     H1 9566   5.599   1.031   6.620
 3108WAT     H2 9567   5.555   1.071   6.772
 3109WAT      O 9568   2.465   4.403   3.299
 3109WAT     H1 9569   2.434   4.331   3.236
 3109WAT     H2 9570   2.554   4.437   3.269
 3110WAT      O 9571   7.661   0.154   6.506
 3110WAT     H1 9572   7.683   0.252   6.511
 3110WAT     H2 9573   7.612   0.127   6.589
 3111WAT      O 9574   2.270   9.719   4.969
 3111WAT     H1 9575   2.249   9.737   5.065
 3111WAT     H2 9576   2.370   9.714   4.957
 3112WAT      O 9577   5.114   6.321   6.227
 3112WAT     H1 9578   5.083   6.416   6.221
 3112WAT     H2 9579   5.214   6.319   6.235
 3113WAT      O 9580   4.972   3.766   6.731
 3113WAT     H1 9581   5.055   3.717   6.756
 3113WAT     H2 9582   4.952   3.836   6.800
 3114WAT      O 9583   7.782   8.070   3.147
 3114WAT     H1 9584   7.789   8.158   3.195
 3114WAT     H2 9585   7.863   8.057   3.090
 3115WAT      O 9586   8.590   2.330   1.650
 3115WAT     H1 9587   8.666   2.270   1.673
 3115WAT     H2 9588   8.579   2.399   1.722
 3116WAT      O 9589   1.809   7.008   0.680
 3116WAT     H1 9590   1.760   7.041   0.760
 3116WAT     H2 9591   1.795   6.909   0.671
 3117WAT      O 9592   0.097   4.495   4.549
 3117WAT     H1 9593   0.001   4.473   4.566
 3117WAT     H2 9594   0.103   4.572   4.485
 3118WAT      O 9595   2.999   0.987   9.034
 3118WAT     H1 9596   3.087   0.958   9.072
 3118WAT     H2 9597   2.997   0.965   8.936
 3119WAT      O 9598   0.272   6.444   2.584
 3119WAT     H1 9599   0.242   6.355   2.551
 3119WAT     H2 9600   0.194   6.506   2.589
 3120WAT      O 9601   6.804   8.006   8.097
 3120WAT     H1 9602   6.880   7.959   8.142
 3120WAT     H2 9603   6.724   8.005   8.157
 3121WAT      O 9604   0.400   8.099   3.228
 3121WAT     H1 9605   0.343   8.169   3.184
 3121WAT     H2 9606   0.424   8.129   3.320
 3122WAT      O 9607   9.876   0.429   3.439
 3122WAT     H1 9608   9.950   0.482   3.482
 3122WAT     H2 9609   9.792   0.483   3.438
 3123WAT      O 9610   4.616   6.939   2.385
 3123WAT     H1 9611   4.640   7.005   2.314
 3123WAT     H2 9612   4.699   6.908   2.431
 3124WAT      O 9613   3.187   2.424   2.456
 3124WAT     H1 9614   3.188   2.391   2.550
 3124WAT     H2 9615   3.148   2.354   2.396
 3125WAT      O 9616   8.196   4.759   8.851
 3125WAT     H1 9617   8.156   4.849   8.834
 3125WAT     H2 9618   8.158   4.693   8.787
 3126WAT      O 9619   5.955   5.896   1.644
 3126WAT     H1 9620   5.984   5.807   1.608
 3126WAT     H2 9621   5.856   5.905   1.635
 3127WAT      O 9622   7.862   9.077   2.230
 3127WAT     H1 9623   7.951   9.033   2.239
 3127WAT     H2 9624   7.844   9.099   2.134
 3128WAT      O 9625   4.811   4.556   0.563
 3128WAT     H1 9626   4.746   4.617   0.610
 3128WAT     H2 9627   4.760   4.481   0.520
 3129WAT      O 9628   2.127   3.674   0.718
 3129WAT     H1 9629   2.217   3.660   0.757
 3129WAT     H2 9630   2.072   3.730   0.780
 3130WAT      O 9631   5.332   6.952   5.928
 3130WAT     H1 9632   5.267   6.987   5.860
 3130WAT     H2 9633   5.377   7.028   5.974
 3131WAT      O 9634   3.062   3.959   6.101
 3131WAT     H1 9635   2.970   3.982   6.132
 3131WAT     H2 9636   3.063   3.866   6.064
 3132WAT      O 9637   6.555   6.684   0.240
 3132WAT     H1 9638   6.539   6.732   0.326
 3132WAT     H2 9639   6.649   6.651   0.238
 3133WAT      O 9640   2.596   6.841   6.985
 3133WAT     H1 9641   2.647   6.925   7.003
 3133WAT     H2 9642   2.498   6.860   6.989
 3134WAT      O 9643   8.663   7.907   8.461
 3134WAT     H1 9644   8.683   8.005   8.459
 3134WAT     H2 9645   8.693   7.869   8.549
 3135WAT      O 9646   2.666   7.875   0.167
 3135WAT     H1 9647   2.679   7.776   0.171
 3135WAT     H2 9648   2.722   7.913   0.094
 3136WAT      O 9649   3.129   7.987   6.570
 3136WAT     H1 9650   3.229   7.980   6.571
 3136WAT     H2 9651   3.093   7.965   6.661
 3137WAT      O 9652   5.935   7.951   9.541
 3137WAT     H1 9653   5.994   8.016   9.493
 3137WAT     H2 9654   5.903   7.881   9.476
 3138WAT      O 9655   9.259   8.206   7.815
 3138WAT     H1 9656   9.202   8.287   7.796
 3138WAT     H2 9657   9.332   8.201   7.747
 3139WAT      O 9658   9.273   6.975   8.942
 3139WAT     H1 9659   9.311   7.067   8.950
 3139WAT     H2 9660   9.308   6.919   9.017
 3140WAT      O 9661   0.991   9.648   8.864
 3140WAT     H1 9662   1.059   9.645   8.790
 3140WAT     H2 9663   1.027   9.601   8.944
 3141WAT      O 9664   3.330   1.818   8.656
 3141WAT     H1 9665   3.398   1.818   8.583
 3141WAT     H2 9666   3.250   1.872   8.628
 3142WAT      O 9667   7.333   3.389   3.910
 3142WAT     H1 9668   7.246   3.436   3.893
 3142WAT     H2 9669   7.409   3.450   3.889
 3143WAT      O 9670   6.579   1.152   0.874
 3143WAT     H1 9671   6.637   1.080   0.911
 3143WAT     H2 9672   6.636   1.227   0.839
 3144WAT      O 9673   9.041   7.890   0.350
 3144WAT     H1 9674   9.014   7.825   0.420
 3144WAT     H2 9675   9.014   7.983   0.377
 3145WAT      O 9676   6.774   2.472   2.533
 3145WAT     H1 9677   6.716   2.463   2.614
 3145WAT     H2 9678   6.743   2.410   2.462
 3146WAT      O 9679   0.615   4.281   6.061
 3146WAT     H1 9680   0.626   4.362   6.003
 3146WAT     H2 9681   0.621   4.308   6.157
 3147WAT      O 9682   7.999   3.393   0.976
 3147WAT     H1 9683   7.985   3.392   0.877
 3147WAT     H2 9684   8.081   3.446   0.998
 3148WAT      O 9685   2.399   3.944   7.429
 3148WAT     H1 9686   2.302   3.940   7.451
 3148WAT     H2 9687   2.440   4.023   7.474
 3149WAT      O 9688   4.036   9.720   1.268
 3149WAT     H1 9689   4.113   9.678   1.220
 3149WAT     H2 9690   3.952   9.702   1.218
 3150WAT      O 9691   3.978   2.245   5.788
 3150WAT     H1 9692   4.056   2.195   5.749
 3150WAT     H2 9693   3.966   2.332   5.740
 3151WAT      O 9694   0.591   3.944   7.046
 3151WAT     H1 9695   0.558   4.037   7.062
 3151WAT     H2 9696   0.513   3.882   7.036
 3152WAT      O 9697   3.400   7.903   0.437
 3152WAT     H1 9698   3.428   7.808   0.426
 3152WAT     H2 9699   3.345   7.931   0.359
 3153WAT      O 9700   2.552   5.425   8.630
 3153WAT     H1 9701   2.474   5.487   8.629
 3153WAT     H2 9702   2.520   5.331   8.635
 3154WAT      O 9703   1.095   4.920   7.683
 3154WAT     H1 9704   1.153   4.852   7.728
 3154WAT     H2 9705   1.149   4.973   7.618
 3155WAT      O 9706   0.595   2.156   0.401
 3155WAT     H1 9707   0.689   2.154   0.366
 3155WAT     H2 9708   0.532   2.176   0.326
 3156WAT      O 9709   7.144   5.277   2.497
 3156WAT     H1 9710   7.084   5.311   2.425
 3156WAT     H2 9711   7.092   5.217   2.558
 3157WAT      O 9712   6.999   5.542   7.696
 3157WAT     H1 9713   7.015   5.640   7.692
 3157WAT     H2 9714   7.078   5.494   7.658
 3158WAT      O 9715   6.112   9.709   1.076
 3158WAT     H1 9716   6.084   9.697   0.981
 3158WAT     H2 9717   6.212   9.705   1.082
 3159WAT      O 9718   6.450   2.057   1.045
 3159WAT     H1 9719   6.531   2.000   1.054
 3159WAT     H2 9720   6.454   2.109   0.960
 3160WAT      O 9721   3.652   6.120   9.577
 3160WAT     H1 9722   3.675   6.054   9.506
 3160WAT     H2 9723   3.589   6.078   9.643
 3161WAT      O 9724   4.285   4.693   1.102
 3161WAT     H1 9725   4.367   4.697   1.045
 3161WAT     H2 9726   4.208   4.659   1.047
 3162WAT      O 9727   3.261   3.022   4.267
 3162WAT     H1 9728   3.277   3.098   4.203
 3162WAT     H2 9729   3.172   2.981   4.247
 3163WAT      O 9730   6.898   3.246   5.305
 3163WAT     H1 9731   6.867   3.275   5.214
 3163WAT     H2 9732   6.827   3.268   5.372
 3164WAT      O 9733   7.149   7.137   8.924
 3164WAT     H1 9734   7.056   7.164   8.951
 3164WAT     H2 9735   7.155   7.037   8.923
 3165WAT      O 9736   2.819   7.852   1.433
 3165WAT     H1 9737   2.723   7.836   1.407
 3165WAT     H2 9738   2.849   7.940   1.396
 3166WAT      O 9739   0.665   5.324   2.641
 3166WAT     H1 9740   0.628   5.265   2.713
 3166WAT     H2 9741   0.764   5.324   2.646
 3167WAT      O 9742   2.907   0.390   9.445
 3167WAT     H1 9743   2.815   0.349   9.446
 3167WAT     H2 9744   2.948   0.376   9.355
 3168WAT      O 9745   8.528   8.086   4.191
 3168WAT     H1 9746   8.431   8.064   4.191
 3168WAT     H2 9747   8.572   8.045   4.271
 3169WAT      O 9748   7.028   5.381   4.874
 3169WAT     H1 9749   7.059   5.291   4.904
 3169WAT     H2 9750   7.045   5.390   4.775
 3170WAT      O 9751   7.670   0.740   8.098
 3170WAT     H1 9752   7.718   0.813   8.050
 3170WAT     H2 9753   7.630   0.677   8.032
 3171WAT      O 9754   7.739   8.747   6.315
 3171WAT     H1 9755   7.670   8.804   6.358
 3171WAT     H2 9756   7.728   8.750   6.215
 3172WAT      O 9757   2.105   0.654   7.884
 3172WAT     H1 9758   2.123   0.699   7.972
 3172WAT     H2 9759   2.007   0.632   7.877
 3173WAT      O 9760   2.210   5.007   6.323
 3173WAT     H1 9761   2.193   4.927   6.265
 3173WAT     H2 9762   2.219   5.088   6.265
 3174WAT      O 9763   1.038   0.517   5.920
 3174WAT     H1 9764   0.973   0.559   5.858
 3174WAT     H2 9765   1.059   0.425   5.889
 3175WAT      O 9766   0.074   4.706   4.007
 3175WAT     H1 9767   0.041   4.638   4.072
 3175WAT     H2 9768   0.173   4.718   4.019
 3176WAT      O 9769   9.260   3.792   6.005
 3176WAT     H1 9770   9.238   3.813   6.100
 3176WAT     H2 9771   9.341   3.844   5.977
 3177WAT      O 9772   0.465   2.066   7.949
 3177WAT     H1 9773   0.483   2.065   7.851
 3177WAT     H2 9774   0.519   2.139   7.992
 3178WAT      O 9775   2.260   4.806   3.441
 3178WAT     H1 9776   2.214   4.718   3.432
 3178WAT     H2 9777   2.194   4.875   3.470
 3179WAT      O 9778   7.840   2.671   3.490
 3179WAT     H1 9779   7.860   2.768   3.496
 3179WAT     H2 9780   7.754   2.651   3.537
 3180WAT      O 9781   8.534   9.054   4.272
 3180WAT     H1 9782   8.530   9.036   4.370
 3180WAT     H2 9783   8.467   8.997   4.225
 3181WAT      O 9784   1.959   3.826   0.865
 3181WAT     H1 9785   1.926   3.867   0.950
 3181WAT     H2 9786   1.963   3.895   0.793
 3182WAT      O 9787   1.073   8.070   1.747
 3182WAT     H1 9788   0.997   8.042   1.689
 3182WAT     H2 9789   1.132   8.133   1.696
 3183WAT      O 9790   7.892   3.401   5.046
 3183WAT     H1 9791   7.936   3.484   5.012
 3183WAT     H2 9792   7.796   3.400   5.020
 3184WAT      O 9793   0.113   4.007   1.115
 3184WAT     H1 9794   0.168   4.001   1.031
 3184WAT     H2 9795   0.139   4.087   1.167
 3185WAT      O 9796   7.179   3.646   8.790
 3185WAT     H1 9797   7.145   3.737   8.766
 3185WAT     H2 9798   7.271   3.654   8.828
 3186WAT      O 9799   4.341   8.252   8.983
 3186WAT     H1 9800   4.405   8.219   9.052
 3186WAT     H2 9801   4.267   8.186   8.972
 3187WAT      O 9802   5.409   8.124   7.941
 3187WAT     H1 9803   5.479   8.196   7.935
 3187WAT     H2 9804   5.323   8.158   7.902
 3188WAT      O 9805   5.826   7.941   3.255
 3188WAT     H1 9806   5.906   7.986   3.215
 3188WAT     H2 9807   5.767   7.909   3.181
 3189WAT      O 9808   2.933   1.069   4.276
 3189WAT     H1 9809   2.970   1.108   4.192
 3189WAT     H2 9810   2.925   0.970   4.266
 3190WAT      O 9811   6.407   4.997   3.681
 3190WAT     H1 9812   6.416   5.095   3.667
 3190WAT     H2 9813   6.349   4.958   3.609
 3191WAT      O 9814   9.429   4.519   0.398
 3191WAT     H1 9815   9.466   4.482   0.313
 3191WAT     H2 9816   9.503   4.535   0.463
 3192WAT      O 9817   4.139   2.781   5.444
 3192WAT     H1 9818   4.137   2.685   5.470
 3192WAT     H2 9819   4.165   2.836   5.523
 3193WAT      O 9820   3.470   8.570   2.811
 3193WAT     H1 9821   3.536   8.495   2.809
 3193WAT     H2 9822   3.398   8.554   2.743
 3194WAT      O 9823   7.512   7.314   5.711
 3194WAT     H1 9824   7.507   7.414   5.706
 3194WAT     H2 9825   7.533   7.287   5.805
 3195WAT      O 9826   7.572   5.962   2.067
 3195WAT     H1 9827   7.618   6.044   2.032
 3195WAT     H2 9828   7.588   5.955   2.165
 3196WAT      O 9829   7.302   3.991   4.660
 3196WAT     H1 9830   7.319   4.076   4.610
 3196WAT     H2 9831   7.350   3.916   4.614
 3197WAT      O 9832   2.784   0.957   9.631
 3197WAT     H1 9833   2.709   0.907   9.675
 3197WAT     H2 9834   2.797   1.044   9.677
 3198WAT      O 9835   5.578   1.464   4.047
 3198WAT     H1 9836   5.619   1.374   4.031
 3198WAT     H2 9837   5.568   1.479   4.145
 3199WAT      O 9838   0.559   2.368   5.013
 3199WAT     H1 9839   0.580   2.315   4.932
 3199WAT     H2 9840   0.460   2.369   5.029
 3200WAT      O 9841   1.889   1.879   9.225
 3200WAT     H1 9842   1.801   1.919   9.200
 3200WAT     H2 9843   1.887   1.853   9.321
 3201WAT      O 9844   8.359   2.416   9.391
 3201WAT     H1 9845   8.315   2.507   9.389
 3201WAT     H2 9846   8.292   2.347   9.363
 3202WAT      O 9847   8.370   7.769   0.416
 3202WAT     H1 9848   8.409   7.855   0.383
 3202WAT     H2 9849   8.287   7.749   0.365
 3203WAT      O 9850   5.873   5.970   2.072
 3203WAT     H1 9851   5.928   5.940   2.149
 3203WAT     H2 9852   5.777   5.976   2.099
 3204WAT      O 9853   4.950   0.896   7.974
 3204WAT     H1 9854   4.928   0.799   7.962
 3204WAT     H2 9855   4.876   0.941   8.024
 3205WAT      O 9856   7.081   2.886   6.368
 3205WAT     H1 9857   7.075   2.794   6.329
 3205WAT     H2 9858   7.163   2.931   6.334
 3206WAT      O 9859   9.330   8.523   4.397
 3206WAT     H1 9860   9.319   8.461   4.475
 3206WAT     H2 9861   9.288   8.482   4.316
 3207WAT      O 9862   9.604   6.506   7.962
 3207WAT     H1 9863   9.567   6.598   7.952
 3207WAT     H2 9864   9.609   6.462   7.873
 3208WAT      O 9865   7.434   8.823   0.659
 3208WAT     H1 9866   7.439   8.809   0.757
 3208WAT     H2 9867   7.351   8.875   0.637
 3209WAT      O 9868   1.135   8.122   9.162
 3209WAT     H1 9869   1.131   8.084   9.255
 3209WAT     H2 9870   1.176   8.213   9.165
 3210WAT      O 9871   9.807   2.771   4.956
 3210WAT     H1 9872   9.811   2.754   4.857
 3210WAT     H2 9873   9.748   2.849   4.974
 3211WAT      O 9874   9.622   1.835   1.965
 3211WAT     H1 9875   9.633   1.776   1.886
 3211WAT     H2 9876   9.528   1.868   1.968
 3212WAT      O 9877   1.437   0.009   2.280
 3212WAT     H1 9878   1.470   0.103   2.282
 3212WAT     H2 9879   1.505  -0.050   2.236
 3213WAT      O 9880   0.418   4.140   4.819
 3213WAT     H1 9881   0.477   4.070   4.858
 3213WAT     H2 9882   0.469   4.191   4.750
 3214WAT      O 9883   5.465   2.543   8.047
 3214WAT     H1 9884   5.382   2.494   8.073
 3214WAT     H2 9885   5.440   2.626   7.998
 3215WAT      O 9886   3.145   8.173   0.013
 3215WAT     H1 9887   3.110   8.240   0.079
 3215WAT     H2 9888   3.089   8.176  -0.070
 3216WAT      O 9889   3.260   3.279   5.699
 3216WAT     H1 9890   3.182   3.342   5.699
 3216WAT     H2 9891   3.234   3.194   5.744
 3217WAT      O 9892   3.899   7.239   0.620
 3217WAT     H1 9893   3.918   7.155   0.671
 3217WAT     H2 9894   3.952   7.239   0.535
 3218WAT      O 9895   0.597   8.538   6.162
 3218WAT     H1 9896   0.676   8.479   6.180
 3218WAT     H2 9897   0.613   8.593   6.080
 3219WAT      O 9898   9.527   5.955   6.211
 3219WAT     H1 9899   9.463   5.879   6.200
 3219WAT     H2 9900   9.476   6.038   6.233
 3220WAT      O 9901   1.326   3.929   9.869
 3220WAT     H1 9902   1.337   3.831   9.885
 3220WAT     H2 9903   1.247   3.962   9.920
 3221WAT      O 9904   7.168   9.832   3.547
 3221WAT     H1 9905   7.154   9.803   3.452
 3221WAT     H2 9906   7.212   9.921   3.549
 3222WAT      O 9907   8.417   4.458   0.775
 3222WAT     H1 9908   8.444   4.496   0.687
 3222WAT     H2 9909   8.414   4.530   0.844
 3223WAT      O 9910   8.007   7.151   2.489
 3223WAT     H1 9911   8.028   7.190   2.400
 3223WAT     H2 9912   8.028   7.218   2.561
 3224WAT      O 9913   8.430   1.940   5.927
 3224WAT     H1 9914   8.518   1.935   5.974
 3224WAT     H2 9915   8.388   2.029   5.946
 3225WAT      O 9916   6.003   6.196   9.696
 3225WAT     H1 9917   6.085   6.216   9.751
 3225WAT     H2 9918   6.026   6.202   9.599
 3226WAT      O 9919   7.717   9.584   8.488
 3226WAT     H1 9920   7.816   9.591   8.489
 3226WAT     H2 9921   7.684   9.564   8.581
 3227WAT      O 9922   6.269   7.599   6.223
 3227WAT     H1 9923   6.229   7.527   6.166
 3227WAT     H2 9924   6.204   7.674   6.233
 3228WAT      O 9925   1.671   5.815   0.014
 3228WAT     H1 9926   1.728   5.736  -0.010
 3228WAT     H2 9927   1.583   5.783   0.051
 3229WAT      O 9928   6.445   0.123   1.176
 3229WAT     H1 9929   6.511   0.181   1.128
 3229WAT     H2 9930   6.356   0.168   1.177
 3230WAT      O 9931   1.737   3.710   4.520
 3230WAT     H1 9932   1.778   3.622   4.495
 3230WAT     H2 9933   1.638   3.704   4.510
 3231WAT      O 9934   7.657   4.670   5.036
 3231WAT     H1 9935   7.723   4.625   5.095
 3231WAT     H2 9936   7.692   4.760   5.009
 3232WAT      O 9937   6.576   7.197   2.741
 3232WAT     H1 9938   6.513   7.261   2.697
 3232WAT     H2 9939   6.670   7.222   2.720
 3233WAT      O 9940   5.919   1.859   5.281
 3233WAT     H1 9941   5.871   1.847   5.368
 3233WAT     H2 9942   5.867   1.920   5.222
 3234WAT      O 9943   7.685   5.626   0.718
 3234WAT     H1 9944   7.780   5.602   0.698
 3234WAT     H2 9945   7.682   5.691   0.793
 3235WAT      O 9946   3.272   5.228   5.161
 3235WAT     H1 9947   3.228   5.239   5.250
 3235WAT     H2 9948   3.203   5.230   5.088
 3236WAT      O 9949   4.748   1.154   5.915
 3236WAT     H1 9950   4.829   1.155   5.974
 3236WAT     H2 9951   4.677   1.211   5.956
 3237WAT      O 9952   3.053   2.688   4.609
 3237WAT     H1 9953   3.144   2.654   4.632
 3237WAT     H2 9954   3.046   2.784   4.636
 3238WAT      O 9955   8.808   4.014   5.579
 3238WAT     H1 9956   8.732   3.976   5.631
 3238WAT     H2 9957   8.844   4.094   5.627
 3239WAT      O 9958   6.022   3.777   3.109
 3239WAT     H1 9959   6.039   3.716   3.186
 3239WAT     H2 9960   6.033   3.872   3.139
 3240WAT      O 9961   1.559   5.409   3.576
 3240WAT     H1 9962   1.555   5.507   3.596
 3240WAT     H2 9963   1.619   5.393   3.498
 3241WAT      O 9964   0.332   9.789   3.004
 3241WAT     H1 9965   0.407   9.787   3.070
 3241WAT     H2 9966   0.338   9.708   2.945
 3242WAT      O 9967   2.144   8.396   2.736
 3242WAT     H1 9968   2.157   8.450   2.819
 3242WAT     H2 9969   2.226   8.341   2.719
 3243WAT      O 9970   1.627   4.270   8.466
 3243WAT     H1 9971   1.609   4.178   8.500
 3243WAT     H2 9972   1.668   4.325   8.538
 3244WAT      O 9973   9.007   1.855   6.270
 3244WAT     H1 9974   9.105   1.866   6.281
 3244WAT     H2 9975   8.961   1.889   6.353
 3245WAT      O 9976   6.784   0.099   3.631
 3245WAT     H1 9977   6.724   0.169   3.668
 3245WAT     H2 9978   6.804   0.120   3.535
 3246WAT      O 9979   4.658   7.249   3.261
 3246WAT     H1 9980   4.560   7.241   3.275
 3246WAT     H2 9981   4.707   7.200   3.333
 3247WAT      O 9982   1.178   3.634   4.138
 3247WAT     H1 9983   1.255   3.577   4.166
 3247WAT     H2 9984   1.093   3.592   4.170
 3248WAT      O 9985   9.694   7.370   4.403
 3248WAT     H1 9986   9.744   7.300   4.455
 3248WAT     H2 9987   9.598   7.368   4.430
 3249WAT      O 9988   8.304   3.096   5.225
 3249WAT     H1 9989   8.216   3.087   5.179
 3249WAT     H2 9990   8.357   3.169   5.181
 3250WAT      O 9991   9.280   9.610   2.520
 3250WAT     H1 9992   9.265   9.512   2.532
 3250WAT     H2 9993   9.349   9.624   2.448
 3251WAT      O 9994   0.258   0.767   4.847
 3251WAT     H1 9995   0.257   0.732   4.753
 3251WAT     H2 9996   0.239   0.692   4.911
 3252WAT      O 9997   2.231   3.946   4.729
 3252WAT     H1 9998   2.197   3.868   4.676
 3252WAT     H2 9999   2.311   3.985   4.683
 3253WAT      O10000   2.724   0.781   3.369
 3253WAT     H110001   2.708   0.880   3.366
 3253WAT     H210002   2.816   0.761   3.335
 3254WAT      O10003   4.510   2.800   8.383
 3254WAT     H110004   4.435   2.762   8.329
 3254WAT     H210005   4.497   2.898   8.395
 3255WAT      O10006   8.050   4.070   6.516
 3255WAT     H110007   8.070   4.060   6.418
 3255WAT     H210008   7.995   3.992   6.547
 3256WAT      O10009   8.885   4.498   4.831
 3256WAT     H110010   8.873   4.400   4.818
 3256WAT     H210011   8.945   4.514   4.910
 3257WAT      O10012   6.882   7.949   9.112
 3257WAT     H110013   6.818   7.933   9.037
 3257WAT     H210014   6.861   7.887   9.188
 3258WAT      O10015   8.282   9.076   6.219
 3258WAT     H110016   8.273   9.175   6.213
 3258WAT     H210017   8.376   9.049   6.195
 3259WAT      O10018   2.187   5.713   3.985
 3259WAT     H110019   2.152   5.698   3.892
 3259WAT     H210020   2.269   5.657   3.998
 3260WAT      O10021   6.555   9.312   2.537
 3260WAT     H110022   6.653   9.290   2.537
 3260WAT     H210023   6.536   9.378   2.610
 3261WAT      O10024   7.400   2.920   5.346
 3261WAT     H110025   7.330   2.849   5.348
 3261WAT     H210026   7.446   2.924   5.435
 3262WAT      O10027   5.784   8.478   8.459
 3262WAT     H110028   5.724   8.446   8.532
 3262WAT     H210029   5.728   8.511   8.382
 3263WAT      O10030   8.810   9.105   7.578
 3263WAT     H110031   8.752   9.117   7.498
 3263WAT     H210032   8.755   9.115   7.661
 3264WAT      O10033   7.909   4.411   9.596
 3264WAT     H110034   7.924   4.505   9.567
 3264WAT     H210035   7.829   4.407   9.656
 3265WAT      O10036   5.480   8.302   4.975
 3265WAT     H110037   5.516   8.224   4.924
 3265WAT     H210038   5.384   8.316   4.951
 3266WAT      O10039   4.625   4.109   2.717
 3266WAT     H110040   4.676   4.023   2.712
 3266WAT     H210041   4.534   4.095   2.679
 3267WAT      O10042   9.514   8.556   3.103
 3267WAT     H110043   9.613   8.571   3.101
 3267WAT     H210044   9.495   8.458   3.094
 3268WAT      O10045   2.834   7.969   7.425
 3268WAT     H110046   2.853   8.062   7.395
 3268WAT     H210047   2.737   7.950   7.414
 3269WAT      O10048   7.426   1.280   3.420
 3269WAT     H110049   7.388   1.342   3.489
 3269WAT     H210050   7.354   1.221   3.384
 3270WAT      O10051   6.299   0.732   6.007
 3270WAT     H110052   6.279   0.784   5.924
 3270WAT     H210053   6.395   0.742   6.031
 3271WAT      O10054   2.598   0.211   6.546
 3271WAT     H110055   2.524   0.153   6.580
 3271WAT     H210056   2.589   0.222   6.447
 3272WAT      O10057   8.864   1.060   0.857
 3272WAT     H110058   8.854   1.152   0.821
 3272WAT     H210059   8.955   1.049   0.897
 3273WAT      O10060   3.441   9.505   5.808
 3273WAT     H110061   3.531   9.463   5.802
 3273WAT     H210062   3.444   9.579   5.875
 3274WAT      O10063   0.819   1.385   5.334
 3274WAT     H110064   0.737   1.417   5.381
 3274WAT     H210065   0.879   1.340   5.399
 3275WAT      O10066   1.870   4.303   4.894
 3275WAT     H110067   1.855   4.376   4.828
 3275WAT     H210068   1.855   4.338   4.987
 3276WAT      O10069   4.426   5.446   2.234
 3276WAT     H110070   4.344   5.476   2.185
 3276WAT     H210071   4.399   5.395   2.316
 3277WAT      O10072   2.517   6.254   8.678
 3277WAT     H110073   2.525   6.158   8.704
 3277WAT     H210074   2.578   6.273   8.601
 3278WAT      O10075   5.198   6.622   1.160
 3278WAT     H110076   5.284   6.598   1.113
 3278WAT     H210077   5.192   6.721   1.171
 3279WAT      O10078   0.648   8.827   6.887
 3279WAT     H110079   0.633   8.731   6.912
 3279WAT     H210080   0.720   8.832   6.817
 3280WAT      O10081   9.750   4.031   1.794
 3280WAT     H110082   9.654   4.027   1.766
 3280WAT     H210083   9.808   4.037   1.712
 3281WAT      O10084   6.612   4.844   3.787
 3281WAT     H110085   6.692   4.883   3.740
 3281WAT     H210086   6.529   4.882   3.748
 3282WAT      O10087   9.278   6.493   3.476
 3282WAT     H110088   9.295   6.471   3.573
 3282WAT     H210089   9.365   6.493   3.427
 3283WAT      O10090   4.726   1.345   9.782
 3283WAT     H110091   4.750   1.315   9.690
 3283WAT     H210092   4.647   1.406   9.778
 3284WAT      O10093   7.625   0.371   3.997
 3284WAT     H110094   7.720   0.399   4.014
 3284WAT     H210095   7.568   0.452   3.987
 3285WAT      O10096   2.584   9.122   2.944
 3285WAT     H110097   2.559   9.123   3.041
 3285WAT     H210098   2.597   9.027   2.914
 3286WAT      O10099   1.362   2.284   0.267
 3286WAT     H110100   1.330   2.194   0.293
 3286WAT     H210101   1.426   2.275   0.190
 3287WAT      O10102   5.437   4.129   3.005
 3287WAT     H110103   5.359   4.190   2.990
 3287WAT     H210104   5.405   4.043   3.045
 3288WAT      O10105   1.157   4.338   3.051
 3288WAT     H110106   1.113   4.265   3.103
 3288WAT     H210107   1.092   4.375   2.985
 3289WAT      O10108   2.566   3.492   1.920
 3289WAT     H110109   2.491   3.472   1.856
 3289WAT     H210110   2.559   3.430   1.999
 3290WAT      O10111   4.497   6.153   9.688
 3290WAT     H110112   4.447   6.134   9.603
 3290WAT     H210113   4.480   6.247   9.717
 3291WAT      O10114   9.542   5.002   6.598
 3291WAT     H110115   9.494   4.917   6.579
 3291WAT     H210116   9.480   5.080   6.582
 3292WAT      O10117   6.152   8.399   1.488
 3292WAT     H110118   6.199   8.338   1.552
 3292WAT     H210119   6.220   8.452   1.437
 3293WAT      O10120   3.035   0.334   0.491
 3293WAT     H110121   2.992   0.380   0.413
 3293WAT     H210122   2.974   0.262   0.525
 3294WAT      O10123   6.371   7.826   7.694
 3294WAT     H110124   6.359   7.877   7.609
 3294WAT     H210125   6.337   7.733   7.683
 3295WAT      O10126   4.623   4.520   1.660
 3295WAT     H110127   4.524   4.532   1.670
 3295WAT     H210128   4.641   4.445   1.597
 3296WAT      O10129   7.144   4.066   9.256
 3296WAT     H110130   7.048   4.045   9.274
 3296WAT     H210131   7.198   4.043   9.337
 3297WAT      O10132   4.177   0.071   7.929
 3297WAT     H110133   4.086   0.079   7.889
 3297WAT     H210134   4.220   0.162   7.931
 3298WAT      O10135   0.908   8.055   8.945
 3298WAT     H110136   0.973   8.064   9.021
 3298WAT     H210137   0.818   8.086   8.975
 3299WAT      O10138   3.057   0.345   1.138
 3299WAT     H110139   3.003   0.427   1.158
 3299WAT     H210140   3.016   0.266   1.183
 3300WAT      O10141   1.859   6.257   2.912
 3300WAT     H110142   1.835   6.161   2.898
 3300WAT     H210143   1.935   6.281   2.851
 3301WAT      O10144   6.571   8.664   4.401
 3301WAT     H110145   6.670   8.662   4.383
 3301WAT     H210146   6.522   8.622   4.325
 3302WAT      O10147   3.577   6.995   7.656
 3302WAT     H110148   3.502   7.059   7.672
 3302WAT     H210149   3.561   6.912   7.709
 3303WAT      O10150   3.005   5.085   2.169
 3303WAT     H110151   2.953   5.018   2.221
 3303WAT     H210152   3.090   5.106   2.218
 3304WAT      O10153   0.405   7.723   2.100
 3304WAT     H110154   0.380   7.819   2.098
 3304WAT     H210155   0.325   7.667   2.121
 3305WAT      O10156   6.895   7.276   4.894
 3305WAT     H110157   6.926   7.288   4.988
 3305WAT     H210158   6.902   7.364   4.845
 3306WAT      O10159   8.099   2.568   3.696
 3306WAT     H110160   8.115   2.535   3.603
 3306WAT     H210161   8.057   2.495   3.751
 3307WAT      O10162   4.225   0.441   5.420
 3307WAT     H110163   4.265   0.476   5.336
 3307WAT     H210164   4.255   0.346   5.434
 3308WAT      O10165   5.439   2.833   3.990
 3308WAT     H110166   5.393   2.753   4.029
 3308WAT     H210167   5.377   2.878   3.926
 3309WAT      O10168   7.116   4.555   5.086
 3309WAT     H110169   7.135   4.628   5.020
 3309WAT     H210170   7.018   4.552   5.105
 3310WAT      O10171   0.258   3.435   7.304
 3310WAT     H110172   0.285   3.489   7.224
 3310WAT     H210173   0.338   3.413   7.359
 3311WAT      O10174   7.403   2.489   2.821
 3311WAT     H110175   7.441   2.482   2.913
 3311WAT     H210176   7.383   2.585   2.800
 3312WAT      O10177   0.157   2.273   4.852
 3312WAT     H110178   0.213   2.311   4.926
 3312WAT     H210179   0.161   2.173   4.856
 3313WAT      O10180   9.416   8.999   9.174
 3313WAT     H110181   9.502   8.986   9.127
 3313WAT     H210182   9.426   9.072   9.242
 3314WAT      O10183   1.675   1.869   9.669
 3314WAT     H110184   1.582   1.906   9.660
 3314WAT     H210185   1.725   1.920   9.739
 3315WAT      O10186   6.576   1.882   1.554
 3315WAT     H110187   6.656   1.823   1.554
 3315WAT     H210188   6.541   1.891   1.460
 3316WAT      O10189   1.236   5.436   7.529
 3316WAT     H110190   1.266   5.528   7.552
 3316WAT     H210191   1.136   5.430   7.537
 3317WAT      O10192   6.687   0.341   3.465
 3317WAT     H110193   6.653   0.264   3.411
 3317WAT     H210194   6.612   0.383   3.516
 3318WAT      O10195   5.533   6.231   4.460
 3318WAT     H110196   5.499   6.320   4.489
 3318WAT     H210197   5.519   6.219   4.362
 3319WAT      O10198   7.054   8.559   6.675
 3319WAT     H110199   7.119   8.613   6.728
 3319WAT     H210200   7.048   8.467   6.713
 3320WAT      O10201   6.229   0.991   1.613
 3320WAT     H110202   6.246   0.917   1.548
 3320WAT     H210203   6.140   0.977   1.656
 3321WAT      O10204   5.935   6.527   5.509
 3321WAT     H110205   5.975   6.529   5.417
 3321WAT     H210206   5.877   6.608   5.522
 3322WAT      O10207   7.801   1.577   9.809
 3322WAT     H110208   7.882   1.633   9.790
 3322WAT     H210209   7.824   1.481   9.797
 3323WAT      O10210   5.424   3.280   7.302
 3323WAT     H110211   5.384   3.347   7.240
 3323WAT     H210212   5.378   3.285   7.391
 3324WAT      O10213   1.146   2.405   4.912
 3324WAT     H110214   1.208   2.348   4.858
 3324WAT     H210215   1.095   2.348   4.976
 3325WAT      O10216   9.600   5.589   8.402
 3325WAT     H110217   9.601   5.679   8.359
 3325WAT     H210218   9.531   5.532   8.358
 3326WAT      O10219   7.385   3.607   0.112
 3326WAT     H110220   7.296   3.611   0.066
 3326WAT     H210221   7.450   3.559   0.054
 3327WAT      O10222   1.601   7.375   7.747
 3327WAT     H110223   1.505   7.357   7.726
 3327WAT     H210224   1.609   7.410   7.840
 3328WAT      O10225   0.152   5.101   4.110
 3328WAT     H110226   0.153   5.119   4.208
 3328WAT     H210227   0.093   5.022   4.092
 3329WAT      O10228   7.986   7.667   9.048
 3329WAT     H110229   7.892   7.698   9.061
 3329WAT     H210230   8.016   7.619   9.131
 3330WAT      O10231   6.264   5.079   7.748
 3330WAT     H110232   6.201   5.067   7.825
 3330WAT     H210233   6.223   5.141   7.681
 3331WAT      O10234   7.296   0.584   0.384
 3331WAT     H110235   7.256   0.558   0.296
 3331WAT     H210236   7.352   0.666   0.372
 3332WAT      O10237   7.167   8.894   2.654
 3332WAT     H110238   7.202   8.867   2.564
 3332WAT     H210239   7.242   8.899   2.719
 3333WAT      O10240   1.632   1.305   8.271
 3333WAT     H110241   1.725   1.326   8.304
 3333WAT     H210242   1.620   1.206   8.268
 3334WAT      O10243   9.391   2.007   6.880
 3334WAT     H110244   9.471   2.051   6.841
 3334WAT     H210245   9.354   2.064   6.954
 3335WAT      O10246   3.376   0.337   9.668
 3335WAT     H110247   3.385   0.255   9.611
 3335WAT     H210248   3.366   0.310   9.763
 3336WAT      O10249   8.002   2.645   0.052
 3336WAT     H110250   7.966   2.737   0.034
 3336WAT     H210251   7.939   2.596   0.112
 3337WAT      O10252   6.960   5.033   6.575
 3337WAT     H110253   7.058   5.039   6.593
 3337WAT     H210254   6.943   5.049   6.478
 3338WAT      O10255   5.879   8.349   3.293
 3338WAT     H110256   5.846   8.443   3.290
 3338WAT     H210257   5.807   8.288   3.259
 3339WAT      O10258   0.833   8.027   7.608
 3339WAT     H110259   0.737   7.999   7.603
 3339WAT     H210260   0.886   7.956   7.653
 3340WAT      O10261   3.955   5.432   8.430
 3340WAT     H110262   4.019   5.456   8.503
 3340WAT     H210263   3.967   5.335   8.406
 3341WAT      O10264   4.604   0.868   3.320
 3341WAT     H110265   4.695   0.842   3.289
 3341WAT     H210266   4.551   0.903   3.243
 3342WAT      O10267   7.177   5.419   3.588
 3342WAT     H110268   7.141   5.352   3.523
 3342WAT     H210269   7.255   5.379   3.637
 3343WAT      O10270   9.102   8.531   3.249
 3343WAT     H110271   9.016   8.563   3.290
 3343WAT     H210272   9.177   8.590   3.278
 3344WAT      O10273   0.996   1.695   0.248
 3344WAT     H110274   0.970   1.608   0.206
 3344WAT     H210275   0.931   1.716   0.322
 3345WAT      O10276   4.662   5.724   9.407
 3345WAT     H110277   4.609   5.746   9.489
 3345WAT     H210278   4.699   5.807   9.367
 3346WAT      O10279   6.970   1.734   6.221
 3346WAT     H110280   6.880   1.773   6.209
 3346WAT     H210281   7.028   1.756   6.143
 3347WAT      O10282   7.346   7.370   7.622
 3347WAT     H110283   7.423   7.334   7.570
 3347WAT     H210284   7.358   7.347   7.719
 3348WAT      O10285   7.606   6.215   9.414
 3348WAT     H110286   7.620   6.131   9.362
 3348WAT     H210287   7.634   6.294   9.358
 3349WAT      O10288   8.410   6.250   0.929
 3349WAT     H110289   8.492   6.206   0.965
 3349WAT     H210290   8.415   6.348   0.946
 3350WAT      O10291   0.544   4.443   1.881
 3350WAT     H110292   0.492   4.394   1.951
 3350WAT     H210293   0.580   4.528   1.920
 3351WAT      O10294   4.003   3.613   7.241
 3351WAT     H110295   3.997   3.549   7.317
 3351WAT     H210296   4.086   3.669   7.250
 3352WAT      O10297   1.305   7.351   0.650
 3352WAT     H110298   1.210   7.345   0.621
 3352WAT     H210299   1.323   7.442   0.688
 3353WAT      O10300   3.849   3.980   4.386
 3353WAT     H110301   3.778   4.021   4.329
 3353WAT     H210302   3.806   3.930   4.462
 3354WAT      O10303   8.283   8.533   4.000
 3354WAT     H110304   8.189   8.526   4.033
 3354WAT     H210305   8.345   8.504   4.072
 3355WAT      O10306   1.363   5.981   2.829
 3355WAT     H110307   1.361   5.902   2.768
 3355WAT     H210308   1.384   6.063   2.776
 3356WAT      O10309   3.809   7.660   2.651
 3356WAT     H110310   3.768   7.727   2.713
 3356WAT     H210311   3.786   7.684   2.557
 3357WAT      O10312   6.698   9.488   1.704
 3357WAT     H110313   6.717   9.519   1.797
 3357WAT     H210314   6.638   9.408   1.707
 3358WAT      O10315   1.735   9.206   7.843
 3358WAT     H110316   1.672   9.274   7.881
 3358WAT     H210317   1.701   9.175   7.754
 3359WAT      O10318   8.055   8.807   2.054
 3359WAT     H110319   8.091   8.898   2.032
 3359WAT     H210320   8.126   8.738   2.038
 3360WAT      O10321   8.160   5.311   2.175
 3360WAT     H110322   8.177   5.329   2.078
 3360WAT     H210323   8.227   5.362   2.230
 3361WAT      O10324   5.364   5.445   6.671
 3361WAT     H110325   5.459   5.442   6.703
 3361WAT     H210326   5.359   5.405   6.579
 3362WAT      O10327   1.666   6.944   0.227
 3362WAT     H110328   1.615   6.923   0.143
 3362WAT     H210329   1.661   7.042   0.246
 3363WAT      O10330   9.329   9.097   2.378
 3363WAT     H110331   9.416   9.121   2.334
 3363WAT     H210332   9.339   9.008   2.423
 3364WAT      O10333   4.190   9.039   8.881
 3364WAT     H110334   4.204   9.115   8.945
 3364WAT     H210335   4.140   8.966   8.928
 3365WAT      O10336   3.018   3.886   4.085
 3365WAT     H110337   3.068   3.943   4.019
 3365WAT     H210338   2.968   3.816   4.035
 3366WAT      O10339   2.876   5.196   5.078
 3366WAT     H110340   2.831   5.284   5.095
 3366WAT     H210341   2.967   5.213   5.041
 3367WAT      O10342   7.416   4.393   4.334
 3367WAT     H110343   7.445   4.471   4.279
 3367WAT     H210344   7.445   4.308   4.289
 3368WAT      O10345   2.710   0.554   4.456
 3368WAT     H110346   2.647   0.492   4.504
 3368WAT     H210347   2.707   0.534   4.358
 3369WAT      O10348   8.921   1.471   1.361
 3369WAT     H110349   8.866   1.425   1.291
 3369WAT     H210350   8.976   1.543   1.318
 3370WAT      O10351   6.947   6.979   5.200
 3370WAT     H110352   6.947   6.930   5.288
 3370WAT     H210353   6.904   7.068   5.212
 3371WAT      O10354   0.902   0.522   0.503
 3371WAT     H110355   0.966   0.486   0.435
 3371WAT     H210356   0.828   0.571   0.455
 3372WAT      O10357   9.777   6.218   1.754
 3372WAT     H110358   9.688   6.260   1.736
 3372WAT     H210359   9.767   6.119   1.756
 3373WAT      O10360   4.139   4.623   8.492
 3373WAT     H110361   4.050   4.595   8.530
 3373WAT     H210362   4.128   4.649   8.397
 3374WAT      O10363   1.251   2.489   9.038
 3374WAT     H110364   1.294   2.554   9.100
 3374WAT     H210365   1.202   2.540   8.967
 3375WAT      O10366   8.824   5.207   3.807
 3375WAT     H110367   8.761   5.278   3.838
 3375WAT     H210368   8.912   5.219   3.853
 3376WAT      O10369   8.165   7.322   4.684
 3376WAT     H110370   8.133   7.412   4.657
 3376WAT     H210371   8.107   7.252   4.641
 3377WAT      O10372   6.394   3.875   4.797
 3377WAT     H110373   6.430   3.957   4.841
 3377WAT     H210374   6.323   3.901   4.731
 3378WAT      O10375   0.052   7.486   5.519
 3378WAT     H110376  -0.011   7.514   5.446
 3378WAT     H210377   0.002   7.430   5.586
 3379WAT      O10378   0.886   5.991   6.897
 3379WAT     H110379   0.981   5.985   6.929
 3379WAT     H210380   0.833   5.915   6.935
 3380WAT      O10381   5.751   2.068   8.905
 3380WAT     H110382   5.656   2.037   8.908
 3380WAT     H210383   5.780   2.075   8.810
 3381WAT      O10384   4.718   7.043   5.588
 3381WAT     H110385   4.666   6.963   5.560
 3381WAT     H210386   4.688   7.073   5.678
 3382WAT      O10387   3.036   9.383   1.295
 3382WAT     H110388   3.000   9.472   1.323
 3382WAT     H210389   3.022   9.317   1.369
 3383WAT      O10390   7.738   9.415   1.714
 3383WAT     H110391   7.722   9.514   1.723
 3383WAT     H210392   7.685   9.380   1.637
 3384WAT      O10393   9.464   2.385   6.793
 3384WAT     H110394   9.441   2.394   6.697
 3384WAT     H210395   9.561   2.363   6.803
 3385WAT      O10396   3.040   5.495   1.256
 3385WAT     H110397   3.118   5.547   1.223
 3385WAT     H210398   2.973   5.557   1.296
 3386WAT      O10399   9.115   6.796   8.489
 3386WAT     H110400   9.031   6.755   8.525
 3386WAT     H210401   9.167   6.838   8.564
 3387WAT      O10402   4.999   1.394   5.973
 3387WAT     H110403   4.910   1.436   5.958
 3387WAT     H210404   5.024   1.339   5.894
 3388WAT      O10405   4.502   4.808   5.275
 3388WAT     H110406   4.496   4.818   5.175
 3388WAT     H210407   4.598   4.807   5.302
 3389WAT      O10408   0.242   2.741   3.339
 3389WAT     H110409   0.311   2.777   3.276
 3389WAT     H210410   0.233   2.803   3.418
 3390WAT      O10411   5.998   1.739   8.597
 3390WAT     H110412   5.973   1.825   8.552
 3390WAT     H210413   5.916   1.694   8.631
 3391WAT      O10414   6.120   9.821   0.237
 3391WAT     H110415   6.188   9.853   0.171
 3391WAT     H210416   6.121   9.721   0.239
 3392WAT      O10417   5.340   2.523   9.237
 3392WAT     H110418   5.373   2.617   9.224
 3392WAT     H210419   5.360   2.469   9.155
 3393WAT      O10420   4.078   8.517   9.820
 3393WAT     H110421   4.094   8.505   9.722
 3393WAT     H210422   4.063   8.613   9.839
 3394WAT      O10423   2.902   4.368   7.235
 3394WAT     H110424   2.898   4.421   7.149
 3394WAT     H210425   2.861   4.278   7.220
 3395WAT      O10426   8.033   5.199   0.777
 3395WAT     H110427   8.131   5.217   0.768
 3395WAT     H210428   7.991   5.275   0.827
 3396WAT      O10429   7.510   3.931   4.847
 3396WAT     H110430   7.424   3.938   4.798
 3396WAT     H210431   7.493   3.894   4.939
 3397WAT      O10432   6.870   8.577   2.230
 3397WAT     H110433   6.796   8.643   2.218
 3397WAT     H210434   6.955   8.615   2.194
 3398WAT      O10435   7.499   8.392   2.819
 3398WAT     H110436   7.469   8.478   2.860
 3398WAT     H210437   7.421   8.347   2.774
 3399WAT      O10438   5.996   3.337   0.586
 3399WAT     H110439   5.972   3.278   0.662
 3399WAT     H210440   6.096   3.345   0.580
 3400WAT      O10441   5.641   2.703   4.728
 3400WAT     H110442   5.601   2.614   4.707
 3400WAT     H210443   5.741   2.697   4.721
 3401WAT      O10444   4.088   6.073   4.175
 3401WAT     H110445   4.118   6.027   4.091
 3401WAT     H210446   4.078   6.005   4.247
 3402WAT      O10447   8.967   7.133   4.139
 3402WAT     H110448   8.931   7.061   4.080
 3402WAT     H210449   8.898   7.205   4.151
 3403WAT      O10450   6.087   6.479   1.138
 3403WAT     H110451   6.058   6.413   1.207
 3403WAT     H210452   6.113   6.430   1.055
 3404WAT      O10453   9.509   7.586   2.279
 3404WAT     H110454   9.587   7.645   2.257
 3404WAT     H210455   9.536   7.522   2.351
 3405WAT      O10456   9.492   1.640   7.331
 3405WAT     H110457   9.497   1.670   7.426
 3405WAT     H210458   9.463   1.717   7.274
 3406WAT      O10459   8.079   0.527   0.654
 3406WAT     H110460   8.159   0.493   0.703
 3406WAT     H210461   8.054   0.617   0.687
 3407WAT      O10462   5.890   5.787   2.391
 3407WAT     H110463   5.918   5.882   2.382
 3407WAT     H210464   5.897   5.759   2.486
 3408WAT      O10465   1.985   3.073   7.417
 3408WAT     H110466   2.059   3.022   7.373
 3408WAT     H210467   2.023   3.144   7.476
 3409WAT      O10468   5.052   2.340   3.527
 3409WAT     H110469   5.113   2.270   3.490
 3409WAT     H210470   4.969   2.345   3.470
 3410WAT      O10471   0.754   6.153   4.215
 3410WAT     H110472   0.718   6.162   4.308
 3410WAT     H210473   0.679   6.157   4.150
 3411WAT      O10474   9.602   9.769   0.663
 3411WAT     H110475   9.567   9.775   0.757
 3411WAT     H210476   9.681   9.828   0.653
 3412WAT      O10477   7.779   1.313   5.870
 3412WAT     H110478   7.744   1.347   5.782
 3412WAT     H210479   7.704   1.311   5.936
 3413WAT      O10480   7.933   3.990   7.567
 3413WAT     H110481   7.884   4.040   7.495
 3413WAT     H210482   8.028   3.978   7.540
 3414WAT      O10483   1.271   9.645   8.824
 3414WAT     H110484   1.259   9.563   8.880
 3414WAT     H210485   1.361   9.684   8.840
 3415WAT      O10486   5.353   7.943   5.989
 3415WAT     H110487   5.312   7.905   6.072
 3415WAT     H210488   5.442   7.899   5.973
 3416WAT      O10489   0.970   1.941   8.920
 3416WAT     H110490   0.928   1.961   9.008
 3416WAT     H210491   1.062   1.981   8.917
 3417WAT      O10492   5.179   0.669   5.303
 3417WAT     H110493   5.145   0.587   5.257
 3417WAT     H210494   5.213   0.734   5.235
 3418WAT      O10495   6.810   6.878   0.207
 3418WAT     H110496   6.820   6.867   0.108
 3418WAT     H210497   6.749   6.955   0.225
 3419WAT      O10498   7.994   8.082   4.064
 3419WAT     H110499   7.996   8.133   3.978
 3419WAT     H210500   7.908   8.032   4.071
 3420WAT      O10501   2.863   3.975   7.057
 3420WAT     H110502   2.914   3.906   7.107
 3420WAT     H210503   2.824   3.935   6.974
 3421WAT      O10504   5.814   4.600   3.098
 3421WAT     H110505   5.811   4.687   3.047
 3421WAT     H210506   5.908   4.569   3.104
 3422WAT      O10507   0.952   9.165   9.225
 3422WAT     H110508   1.030   9.111   9.193
 3422WAT     H210509   0.884   9.173   9.152
 3423WAT      O10510   3.651   1.235   4.082
 3423WAT     H110511   3.699   1.318   4.055
 3423WAT     H210512   3.717   1.166   4.112
 3424WAT      O10513   7.549   0.044   1.831
 3424WAT     H110514   7.563   0.095   1.746
 3424WAT     H210515   7.526  -0.051   1.809
 3425WAT      O10516   9.391   2.757   6.139
 3425WAT     H110517   9.473   2.739   6.085
 3425WAT     H210518   9.360   2.850   6.123
 3426WAT      O10519   3.481   8.149   5.555
 3426WAT     H110520   3.422   8.228   5.540
 3426WAT     H210521   3.504   8.144   5.653
 3427WAT      O10522   8.301   5.753   3.572
 3427WAT     H110523   8.372   5.683   3.577
 3427WAT     H210524   8.341   5.843   3.588
 3428WAT      O10525   4.355   2.650   6.511
 3428WAT     H110526   4.450   2.644   6.543
 3428WAT     H210527   4.348   2.720   6.440
 3429WAT      O10528   9.174   7.070   5.977
 3429WAT     H110529   9.271   7.065   5.954
 3429WAT     H210530   9.151   7.163   6.005
 3430WAT      O10531   6.107   9.330   0.629
 3430WAT     H110532   6.089   9.376   0.716
 3430WAT     H210533   6.203   9.304   0.625
 3431WAT      O10534   1.234   7.866   2.930
 3431WAT     H110535   1.154   7.894   2.984
 3431WAT     H210536   1.318   7.893   2.979
 3432WAT      O10537   7.151   2.612   3.134
 3432WAT     H110538   7.072   2.602   3.195
 3432WAT     H210539   7.163   2.708   3.110
 3433WAT      O10540   3.926   1.334   6.114
 3433WAT     H110541   3.853   1.383   6.067
 3433WAT     H210542   3.892   1.300   6.201
 3434WAT      O10543   3.272   9.695   5.381
 3434WAT     H110544   3.368   9.692   5.411
 3434WAT     H210545   3.259   9.772   5.319
 3435WAT      O10546   5.224   3.536   7.831
 3435WAT     H110547   5.214   3.443   7.865
 3435WAT     H210548   5.209   3.537   7.732
 3436WAT      O10549   8.232   4.140   8.475
 3436WAT     H110550   8.171   4.178   8.405
 3436WAT     H210551   8.269   4.053   8.443
 3437WAT      O10552   3.262   2.213   0.599
 3437WAT     H110553   3.356   2.239   0.622
 3437WAT     H210554   3.264   2.123   0.555
 3438WAT      O10555   9.452   6.695   8.601
 3438WAT     H110556   9.466   6.729   8.508
 3438WAT     H210557   9.376   6.745   8.643
 3439WAT      O10558   2.876   7.343   4.580
 3439WAT     H110559   2.945   7.400   4.535
 3439WAT     H210560   2.827   7.290   4.511
 3440WAT      O10561   9.570   9.626   3.007
 3440WAT     H110562   9.641   9.696   3.018
 3440WAT     H210563   9.584   9.580   2.919
 3441WAT      O10564   2.491   8.766   6.062
 3441WAT     H110565   2.437   8.768   5.977
 3441WAT     H210566   2.517   8.859   6.088
 3442WAT      O10567   1.224   6.376   6.039
 3442WAT     H110568   1.319   6.400   6.060
 3442WAT     H210569   1.222   6.318   5.957
 3443WAT      O10570   9.883   1.275   1.278
 3443WAT     H110571   9.784   1.285   1.274
 3443WAT     H210572   9.925   1.320   1.199
 3444WAT      O10573   7.822   0.970   8.419
 3444WAT     H110574   7.875   0.965   8.504
 3444WAT     H210575   7.860   0.905   8.353
 3445WAT      O10576   3.897   5.423   1.552
 3445WAT     H110577   3.850   5.488   1.493
 3445WAT     H210578   3.883   5.449   1.648
 3446WAT      O10579   4.597   5.404   9.078
 3446WAT     H110580   4.690   5.440   9.071
 3446WAT     H210581   4.591   5.319   9.025
 3447WAT      O10582   5.550   2.948   5.301
 3447WAT     H110583   5.498   2.907   5.376
 3447WAT     H210584   5.492   3.016   5.254
 3448WAT      O10585   4.153   0.124   0.278
 3448WAT     H110586   4.155   0.221   0.299
 3448WAT     H210587   4.190   0.108   0.187
 3449WAT      O10588   4.234   2.858   5.674
 3449WAT     H110589   4.225   2.956   5.658
 3449WAT     H210590   4.243   2.841   5.772
 3450WAT      O10591   6.835   6.700   1.994
 3450WAT     H110592   6.894   6.623   1.970
 3450WAT     H210593   6.746   6.689   1.950
 3451WAT      O10594   0.469   3.499   5.009
 3451WAT     H110595   0.461   3.554   4.926
 3451WAT     H210596   0.400   3.426   5.008
 3452WAT      O10597   5.949   3.908   4.010
 3452WAT     H110598   5.986   3.883   4.100
 3452WAT     H210599   6.009   3.975   3.967
 3453WAT      O10600   0.049   9.649   9.314
 3453WAT     H110601   0.117   9.720   9.331
 3453WAT     H210602   0.095   9.564   9.286
 3454WAT      O10603   8.002   5.408   9.875
 3454WAT     H110604   7.960   5.419   9.965
 3454WAT     H210605   7.969   5.323   9.832
 3455WAT      O10606   9.276   6.725   7.857
 3455WAT     H110607   9.269   6.744   7.759
 3455WAT     H210608   9.207   6.657   7.883
 3456WAT      O10609   8.425   8.338   5.814
 3456WAT     H110610   8.430   8.317   5.716
 3456WAT     H210611   8.411   8.436   5.827
 3457WAT      O10612   4.201   9.679   8.846
 3457WAT     H110613   4.109   9.641   8.862
 3457WAT     H210614   4.269   9.621   8.892
 3458WAT      O10615   0.739   6.704   8.997
 3458WAT     H110616   0.721   6.687   9.094
 3458WAT     H210617   0.835   6.684   8.976
 3459WAT      O10618   6.615   1.720   5.070
 3459WAT     H110619   6.534   1.747   5.017
 3459WAT     H210620   6.587   1.694   5.162
 3460WAT      O10621   6.837   3.093   7.698
 3460WAT     H110622   6.820   3.155   7.775
 3460WAT     H210623   6.820   2.999   7.727
 3461WAT      O10624   7.704   6.137   8.924
 3461WAT     H110625   7.665   6.073   8.991
 3461WAT     H210626   7.671   6.229   8.944
 3462WAT      O10627   3.084   2.560   2.835
 3462WAT     H110628   3.100   2.644   2.783
 3462WAT     H210629   3.109   2.481   2.778
 3463WAT      O10630   8.201   6.437   9.022
 3463WAT     H110631   8.280   6.470   8.970
 3463WAT     H210632   8.117   6.458   8.972
 3464WAT      O10633   1.390   0.323   4.699
 3464WAT     H110634   1.439   0.293   4.781
 3464WAT     H210635   1.377   0.246   4.638
 3465WAT      O10636   2.064   4.940   1.008
 3465WAT     H110637   2.091   4.966   1.100
 3465WAT     H210638   2.019   5.018   0.963
 3466WAT      O10639   2.701   0.592   6.196
 3466WAT     H110640   2.735   0.538   6.119
 3466WAT     H210641   2.762   0.669   6.213
 3467WAT      O10642   5.739   0.120   5.940
 3467WAT     H110643   5.721   0.217   5.922
 3467WAT     H210644   5.778   0.078   5.859
 3468WAT      O10645   2.211   1.513   1.263
 3468WAT     H110646   2.267   1.543   1.185
 3468WAT     H210647   2.196   1.415   1.257
 3469WAT      O10648   0.939   5.291   4.442
 3469WAT     H110649   0.940   5.246   4.531
 3469WAT     H210650   0.932   5.222   4.370
 3470WAT      O10651   2.317   5.472   1.490
 3470WAT     H110652   2.231   5.420   1.484
 3470WAT     H210653   2.320   5.538   1.414
 3471WAT      O10654   1.302   3.012   7.945
 3471WAT     H110655   1.341   3.095   7.904
 3471WAT     H210656   1.208   3.001   7.915
 3472WAT      O10657   1.769   0.168   7.462
 3472WAT     H110658   1.843   0.114   7.502
 3472WAT     H210659   1.804   0.258   7.435
 3473WAT      O10660   6.155   8.773   2.963
 3473WAT     H110661   6.214   8.737   2.891
 3473WAT     H210662   6.080   8.709   2.981
 3474WAT      O10663   9.852   9.482   6.633
 3474WAT     H110664   9.772   9.497   6.691
 3474WAT     H210665   9.929   9.536   6.668
 3475WAT      O10666   1.873   6.821   9.855
 3475WAT     H110667   1.795   6.884   9.857
 3475WAT     H210668   1.857   6.752   9.784
 3476WAT      O10669   0.094   1.943   6.032
 3476WAT     H110670   0.127   2.037   6.037
 3476WAT     H210671   0.172   1.880   6.034
 3477WAT      O10672   5.096   3.810   0.166
 3477WAT     H110673   5.094   3.714   0.139
 3477WAT     H210674   5.190   3.838   0.184
 3478WAT      O10675   4.566   3.331   6.595
 3478WAT     H110676   4.587   3.242   6.636
 3478WAT     H210677   4.469   3.350   6.606
 3479WAT      O10678   7.288   1.393   6.955
 3479WAT     H110679   7.212   1.415   7.016
 3479WAT     H210680   7.308   1.295   6.961
 3480WAT      O10681   8.738   8.494   5.319
 3480WAT     H110682   8.684   8.474   5.236
 3480WAT     H210683   8.753   8.410   5.370
 3481WAT      O10684   2.416   9.600   1.702
 3481WAT     H110685   2.492   9.664   1.692
 3481WAT     H210686   2.443   9.525   1.763
 3482WAT      O10687   5.524   1.277   0.104
 3482WAT     H110688   5.591   1.343   0.071
 3482WAT     H210689   5.493   1.302   0.195
 3483WAT      O10690   0.325   1.223   6.290
 3483WAT     H110691   0.263   1.210   6.368
 3483WAT     H210692   0.293   1.169   6.213
 3484WAT      O10693   9.411   0.751   2.874
 3484WAT     H110694   9.485   0.818   2.866
 3484WAT     H210695   9.447   0.659   2.857
 3485WAT      O10696   2.031   3.461   4.188
 3485WAT     H110697   2.079   3.428   4.107
 3485WAT     H210698   2.081   3.433   4.270
 3486WAT      O10699   6.018   8.974   1.392
 3486WAT     H110700   6.115   8.982   1.416
 3486WAT     H210701   5.965   9.040   1.445
 3487WAT      O10702   8.655   6.989   2.944
 3487WAT     H110703   8.596   7.067   2.924
 3487WAT     H210704   8.599   6.905   2.945
 3488WAT      O10705   1.957   0.390   5.926
 3488WAT     H110706   1.882   0.454   5.941
 3488WAT     H210707   1.970   0.334   6.007
 3489WAT      O10708   3.262   9.597   1.497
 3489WAT     H110709   3.355   9.632   1.496
 3489WAT     H210710   3.206   9.646   1.430
 3490WAT      O10711   6.165   1.902   1.395
 3490WAT     H110712   6.224   1.821   1.397
 3490WAT     H210713   6.136   1.924   1.488
 3491WAT      O10714   8.608   1.353   2.206
 3491WAT     H110715   8.586   1.369   2.110
 3491WAT     H210716   8.643   1.259   2.217
 3492WAT      O10717   1.126   3.694   1.813
 3492WAT     H110718   1.028   3.692   1.837
 3492WAT     H210719   1.181   3.689   1.896
 3493WAT      O10720   9.735   5.635   0.472
 3493WAT     H110721   9.771   5.565   0.411
 3493WAT     H210722   9.755   5.611   0.567
 3494WAT      O10723   7.289   4.042   5.256
 3494WAT     H110724   7.282   3.950   5.217
 3494WAT     H210725   7.376   4.083   5.229
 3495WAT      O10726   3.370   2.215   6.513
 3495WAT     H110727   3.304   2.151   6.473
 3495WAT     H210728   3.323   2.301   6.536
 3496WAT      O10729   3.304   9.352   6.204
 3496WAT     H110730   3.231   9.284   6.213
 3496WAT     H210731   3.393   9.306   6.210
 3497WAT      O10732   2.429   3.465   8.516
 3497WAT     H110733   2.338   3.492   8.486
 3497WAT     H210734   2.498   3.521   8.469
 3498WAT      O10735   1.660   1.716   3.669
 3498WAT     H110736   1.707   1.771   3.600
 3498WAT     H210737   1.667   1.761   3.758
 3499WAT      O10738   6.386   7.394   7.164
 3499WAT     H110739   6.437   7.479   7.176
 3499WAT     H210740   6.300   7.413   7.116
 3500WAT      O10741   2.560   3.584   1.114
 3500WAT     H110742   2.608   3.667   1.142
 3500WAT     H210743   2.556   3.581   1.014
 3501WAT      O10744   4.742   9.333   0.744
 3501WAT     H110745   4.672   9.399   0.769
 3501WAT     H210746   4.700   9.243   0.732
 3502WAT      O10747   2.444   8.735   3.662
 3502WAT     H110748   2.540   8.709   3.658
 3502WAT     H210749   2.390   8.657   3.694
 3503WAT      O10750   0.019   3.249   0.675
 3503WAT     H110751   0.102   3.213   0.632
 3503WAT     H210752  -0.049   3.270   0.604
 3504WAT      O10753   6.278   7.647   2.703
 3504WAT     H110754   6.308   7.565   2.750
 3504WAT     H210755   6.199   7.625   2.646
 3505WAT      O10756   8.843   3.062   3.391
 3505WAT     H110757   8.788   3.022   3.318
 3505WAT     H210758   8.787   3.074   3.473
 3506WAT      O10759   7.410   1.300   0.452
 3506WAT     H110760   7.407   1.281   0.354
 3506WAT     H210761   7.484   1.248   0.495
 3507WAT      O10762   0.742   4.209   6.885
 3507WAT     H110763   0.743   4.113   6.858
 3507WAT     H210764   0.670   4.224   6.953
 3508WAT      O10765   2.957   6.980   4.563
 3508WAT     H110766   2.974   6.885   4.539
 3508WAT     H210767   2.930   6.986   4.659
 3509WAT      O10768   7.197   7.238   9.320
 3509WAT     H110769   7.244   7.158   9.356
 3509WAT     H210770   7.252   7.279   9.247
 3510WAT      O10771   0.058   3.055   3.355
 3510WAT     H110772   0.067   3.153   3.371
 3510WAT     H210773   0.118   3.005   3.418
 3511WAT      O10774   3.615   0.481   7.288
 3511WAT     H110775   3.578   0.518   7.373
 3511WAT     H210776   3.592   0.383   7.282
 3512WAT      O10777   0.924   9.736   3.507
 3512WAT     H110778   0.972   9.730   3.419
 3512WAT     H210779   0.866   9.656   3.519
 3513WAT      O10780   5.090   6.742   4.135
 3513WAT     H110781   5.097   6.731   4.036
 3513WAT     H210782   5.100   6.839   4.159
 3514WAT      O10783   9.387   3.311   8.396
 3514WAT     H110784   9.338   3.266   8.470
 3514WAT     H210785   9.369   3.410   8.399
 3515WAT      O10786   9.625   3.085   6.337
 3515WAT     H110787   9.710   3.130   6.309
 3515WAT     H210788   9.587   3.133   6.416
 3516WAT      O10789   3.198   6.100   5.780
 3516WAT     H110790   3.180   6.172   5.847
 3516WAT     H210791   3.125   6.098   5.712
 3517WAT      O10792   0.222   6.155   2.441
 3517WAT     H110793   0.227   6.055   2.438
 3517WAT     H210794   0.163   6.183   2.517
 3518WAT      O10795   9.786   4.212   1.060
 3518WAT     H110796   9.859   4.150   1.087
 3518WAT     H210797   9.809   4.305   1.089
 3519WAT      O10798   2.877   3.453   3.139
 3519WAT     H110799   2.928   3.468   3.224
 3519WAT     H210800   2.921   3.504   3.065
 3520WAT      O10801   8.118   1.042   4.622
 3520WAT     H110802   8.208   1.071   4.654
 3520WAT     H210803   8.081   0.973   4.684
 3521WAT      O10804   3.781   6.780   2.673
 3521WAT     H110805   3.814   6.747   2.761
 3521WAT     H210806   3.833   6.736   2.599
 3522WAT      O10807   2.755   4.999   6.425
 3522WAT     H110808   2.738   4.998   6.327
 3522WAT     H210809   2.732   5.089   6.463
 3523WAT      O10810   1.841   6.675   6.861
 3523WAT     H110811   1.860   6.759   6.811
 3523WAT     H210812   1.882   6.598   6.812
 3524WAT      O10813   0.895   4.548   5.080
 3524WAT     H110814   0.808   4.500   5.088
 3524WAT     H210815   0.894   4.630   5.137
 3525WAT      O10816   3.120   5.251   9.344
 3525WAT     H110817   3.106   5.334   9.398
 3525WAT     H210818   3.168   5.183   9.399
 3526WAT      O10819   9.557   6.864   9.783
 3526WAT     H110820   9.592   6.860   9.877
 3526WAT     H210821   9.562   6.958   9.750
 3527WAT      O10822   2.249   6.152   5.655
 3527WAT     H110823   2.186   6.131   5.580
 3527WAT     H210824   2.215   6.111   5.739
 3528WAT      O10825   7.065   6.304   4.886
 3528WAT     H110826   6.994   6.359   4.930
 3528WAT     H210827   7.022   6.231   4.832
 3529WAT      O10828   2.680   0.946   6.540
 3529WAT     H110829   2.759   0.894   6.508
 3529WAT     H210830   2.597   0.891   6.529
 3530WAT      O10831   0.509   0.461   4.294
 3530WAT     H110832   0.559   0.459   4.207
 3530WAT     H210833   0.489   0.368   4.324
 3531WAT      O10834   2.059   4.866   9.503
 3531WAT     H110835   2.081   4.954   9.545
 3531WAT     H210836   2.018   4.805   9.571
 3532WAT      O10837   9.291   4.084   2.388
 3532WAT     H110838   9.323   4.156   2.448
 3532WAT     H210839   9.286   4.119   2.294
 3533WAT      O10840   2.433   3.603   3.598
 3533WAT     H110841   2.531   3.622   3.602
 3533WAT     H210842   2.414   3.515   3.642
 3534WAT      O10843   9.322   9.509   7.638
 3534WAT     H110844   9.276   9.597   7.626
 3534WAT     H210845   9.254   9.438   7.661
 3535WAT      O10846   6.537   9.375   5.267
 3535WAT     H110847   6.514   9.458   5.318
 3535WAT     H210848   6.454   9.321   5.252
 3536WAT      O10849   9.803   0.111   8.187
 3536WAT     H110850   9.785   0.067   8.098
 3536WAT     H210851   9.752   0.197   8.192
 3537WAT      O10852   9.830   6.157   8.029
 3537WAT     H110853   9.859   6.225   7.962
 3537WAT     H210854   9.895   6.154   8.105
 3538WAT      O10855   8.296   6.763   2.606
 3538WAT     H110856   8.345   6.791   2.524
 3538WAT     H210857   8.273   6.844   2.661
 3539WAT      O10858   0.443   2.108   2.096
 3539WAT     H110859   0.349   2.099   2.129
 3539WAT     H210860   0.467   2.205   2.089
 3540WAT      O10861   8.372   6.869   8.384
 3540WAT     H110862   8.281   6.906   8.363
 3540WAT     H210863   8.382   6.860   8.483
 3541WAT      O10864   3.253   5.872   8.160
 3541WAT     H110865   3.277   5.800   8.226
 3541WAT     H210866   3.336   5.918   8.130
 3542WAT      O10867   5.888   9.424   6.710
 3542WAT     H110868   5.953   9.349   6.706
 3542WAT     H210869   5.811   9.398   6.768
 3543WAT      O10870   8.278   1.771   1.472
 3543WAT     H110871   8.194   1.809   1.433
 3543WAT     H210872   8.344   1.845   1.487
 3544WAT      O10873   6.566   4.313   7.748
 3544WAT     H110874   6.479   4.331   7.793
 3544WAT     H210875   6.634   4.286   7.816
 3545WAT      O10876   7.289   2.607   2.050
 3545WAT     H110877   7.279   2.514   2.014
 3545WAT     H210878   7.261   2.673   1.980
 3546WAT      O10879   2.984   1.294   3.788
 3546WAT     H110880   2.996   1.371   3.850
 3546WAT     H210881   2.893   1.298   3.747
 3547WAT      O10882   4.077   7.446   3.243
 3547WAT     H110883   3.981   7.417   3.245
 3547WAT     H210884   4.131   7.381   3.190
 3548WAT      O10885   5.002   6.066   0.403
 3548WAT     H110886   4.968   6.001   0.335
 3548WAT     H210887   4.965   6.157   0.385
 3549WAT      O10888   4.680   4.388   7.043
 3549WAT     H110889   4.735   4.401   7.125
 3549WAT     H210890   4.606   4.455   7.040
 3550WAT      O10891   0.006   9.707   8.652
 3550WAT     H110892   0.106   9.712   8.664
 3550WAT     H210893  -0.023   9.611   8.657
 3551WAT      O10894   7.463   1.428   5.130
 3551WAT     H110895   7.520   1.346   5.125
 3551WAT     H210896   7.372   1.403   5.163
 3552WAT      O10897   0.779   2.012   1.210
 3552WAT     H110898   0.720   1.997   1.130
 3552WAT     H210899   0.800   1.923   1.252
 3553WAT      O10900   9.416   4.042   5.724
 3553WAT     H110901   9.374   4.062   5.812
 3553WAT     H210902   9.490   4.107   5.707
 3554WAT      O10903   5.466   6.018   3.293
 3554WAT     H110904   5.526   6.093   3.321
 3554WAT     H210905   5.439   6.030   3.197
 3555WAT      O10906   7.777   6.158   8.671
 3555WAT     H110907   7.737   6.085   8.616
 3555WAT     H210908   7.742   6.152   8.765
 3556WAT      O10909   8.669   1.623   0.549
 3556WAT     H110910   8.716   1.704   0.584
 3556WAT     H210911   8.704   1.601   0.458
 3557WAT      O10912   8.302   9.470   0.832
 3557WAT     H110913   8.233   9.449   0.763
 3557WAT     H210914   8.356   9.388   0.853
 3558WAT      O10915   3.677   1.881   1.169
 3558WAT     H110916   3.685   1.844   1.077
 3558WAT     H210917   3.707   1.813   1.236
 3559WAT      O10918   4.134   8.268   4.095
 3559WAT     H110919   4.165   8.301   4.006
 3559WAT     H210920   4.201   8.204   4.132
 3560WAT      O10921   5.933   3.294   8.859
 3560WAT     H110922   5.927   3.392   8.839
 3560WAT     H210923   5.950   3.244   8.774
 3561WAT      O10924   2.170   2.697   9.225
 3561WAT     H110925   2.241   2.767   9.238
 3561WAT     H210926   2.172   2.634   9.302
 3562WAT      O10927   3.897   9.225   9.690
 3562WAT     H110928   3.927   9.176   9.772
 3562WAT     H210929   3.842   9.304   9.716
 3563WAT      O10930   6.823   7.530   6.762
 3563WAT     H110931   6.775   7.573   6.685
 3563WAT     H210932   6.895   7.470   6.727
 3564WAT      O10933   0.676   8.125   5.341
 3564WAT     H110934   0.688   8.223   5.358
 3564WAT     H210935   0.688   8.075   5.426
 3565WAT      O10936   0.931   0.677   4.328
 3565WAT     H110937   0.908   0.644   4.236
 3565WAT     H210938   0.894   0.769   4.340
 3566WAT      O10939   3.227   7.570   6.770
 3566WAT     H110940   3.140   7.521   6.779
 3566WAT     H210941   3.253   7.573   6.673
 3567WAT      O10942   5.946   8.103   1.099
 3567WAT     H110943   5.874   8.051   1.145
 3567WAT     H210944   5.964   8.062   1.009
 3568WAT      O10945   7.257   3.272   2.184
 3568WAT     H110946   7.297   3.297   2.096
 3568WAT     H210947   7.320   3.297   2.258
 3569WAT      O10948   3.508   5.503   1.571
 3569WAT     H110949   3.474   5.576   1.631
 3569WAT     H210950   3.551   5.431   1.626
 3570WAT      O10951   4.736   0.737   5.624
 3570WAT     H110952   4.750   0.834   5.645
 3570WAT     H210953   4.750   0.683   5.707
 3571WAT      O10954   2.526   1.929   5.585
 3571WAT     H110955   2.587   1.876   5.643
 3571WAT     H210956   2.431   1.907   5.606
 3572WAT      O10957   2.613   8.307   4.059
 3572WAT     H110958   2.569   8.370   4.123
 3572WAT     H210959   2.635   8.356   3.974
 3573WAT      O10960   4.286   9.269   5.164
 3573WAT     H110961   4.192   9.303   5.166
 3573WAT     H210962   4.292   9.184   5.217
 3574WAT      O10963   6.679   0.471   6.057
 3574WAT     H110964   6.740   0.392   6.052
 3574WAT     H210965   6.624   0.465   6.140
 3575WAT      O10966   6.115   3.746   1.768
 3575WAT     H110967   6.056   3.824   1.749
 3575WAT     H210968   6.137   3.743   1.866
 3576WAT      O10969   3.547   7.696   4.036
 3576WAT     H110970   3.452   7.720   4.054
 3576WAT     H210971   3.606   7.738   4.106
 3577WAT      O10972   7.499   4.836   8.604
 3577WAT     H110973   7.442   4.895   8.547
 3577WAT     H210974   7.508   4.746   8.561
 3578WAT      O10975   3.027   1.528   5.115
 3578WAT     H110976   3.025   1.451   5.178
 3578WAT     H210977   2.934   1.562   5.102
 3579WAT      O10978   7.073   0.516   6.194
 3579WAT     H110979   7.092   0.462   6.275
 3579WAT     H210980   7.148   0.581   6.178
 3580WAT      O10981   6.837   2.137   0.160
 3580WAT     H110982   6.813   2.207   0.228
 3580WAT     H210983   6.893   2.179   0.089
 3581WAT      O10984   1.280   1.155   6.572
 3581WAT     H110985   1.346   1.170   6.645
 3581WAT     H210986   1.290   1.062   6.536
 3582WAT      O10987   2.920   3.177   5.762
 3582WAT     H110988   2.864   3.151   5.841
 3582WAT     H210989   2.880   3.138   5.679
 3583WAT      O10990   5.014   6.608   6.198
 3583WAT     H110991   4.968   6.673   6.259
 3583WAT     H210992   5.086   6.655   6.148
 3584WAT      O10993   1.552   9.228   9.676
 3584WAT     H110994   1.479   9.290   9.706
 3584WAT     H210995   1.525   9.183   9.591
 3585WAT      O10996   0.190   4.990   5.935
 3585WAT     H110997   0.273   4.948   5.969
 3585WAT     H210998   0.113   4.964   5.993
 3586WAT      O10999   0.524   8.032   0.346
 3586WAT     H111000   0.541   8.096   0.271
 3586WAT     H211001   0.556   7.941   0.320
 3587WAT      O11002   4.772   9.310   8.161
 3587WAT     H111003   4.772   9.383   8.092
 3587WAT     H211004   4.861   9.266   8.163
 3588WAT      O11005   3.710   0.680   3.481
 3588WAT     H111006   3.797   0.723   3.460
 3588WAT     H211007   3.639   0.716   3.421
 3589WAT      O11008   1.987   9.115   9.036
 3589WAT     H111009   1.922   9.045   9.005
 3589WAT     H211010   2.022   9.090   9.126
 3590WAT      O11011   1.441   2.286   5.829
 3590WAT     H111012   1.518   2.249   5.882
 3590WAT     H211013   1.355   2.260   5.873
 3591WAT      O11014   1.756   8.046   7.004
 3591WAT     H111015   1.685   8.008   6.944
 3591WAT     H211016   1.736   8.022   7.099
 3592WAT      O11017   6.210   9.761   8.388
 3592WAT     H111018   6.292   9.756   8.331
 3592WAT     H211019   6.150   9.834   8.354
 3593WAT      O11020   5.154   7.352   3.680
 3593WAT     H111021   5.108   7.351   3.591
 3593WAT     H211022   5.252   7.342   3.667
 3594WAT      O11023   6.400   1.794   4.883
 3594WAT     H111024   6.322   1.771   4.941
 3594WAT     H211025   6.394   1.744   4.797
 3595WAT      O11026   1.714   6.504   9.318
 3595WAT     H111027   1.708   6.421   9.373
 3595WAT     H211028   1.810   6.525   9.300
 3596WAT      O11029   7.763   7.716   3.055
 3596WAT     H111030   7.704   7.640   3.030
 3596WAT     H211031   7.707   7.796   3.079
 3597WAT      O11032   4.265   9.065   4.821
 3597WAT     H111033   4.279   8.966   4.819
 3597WAT     H211034   4.353   9.111   4.834
 3598WAT      O11035   8.746   0.804   5.728
 3598WAT     H111036   8.682   0.855   5.785
 3598WAT     H211037   8.696   0.743   5.667
 3599WAT      O11038   7.583   6.821   7.548
 3599WAT     H111039   7.518   6.864   7.485
 3599WAT     H211040   7.580   6.722   7.536
 3600WAT      O11041   6.751   2.934   3.685
 3600WAT     H111042   6.844   2.900   3.672
 3600WAT     H211043   6.712   2.960   3.596
 3601WAT      O11044   0.096   3.815   1.308
 3601WAT     H111045   0.080   3.731   1.257
 3601WAT     H211046   0.087   3.893   1.246
 3602WAT      O11047   2.951   7.381   8.586
 3602WAT     H111048   2.862   7.405   8.623
 3602WAT     H211049   2.989   7.460   8.538
 3603WAT      O11050   9.196   5.004   7.119
 3603WAT     H111051   9.232   5.022   7.210
 3603WAT     H211052   9.269   5.014   7.051
 3604WAT      O11053   8.065   7.685   2.641
 3604WAT     H111054   8.082   7.651   2.733
 3604WAT     H211055   8.117   7.770   2.627
 3605WAT      O11056   8.939   5.921   4.579
 3605WAT     H111057   8.996   5.911   4.498
 3605WAT     H211058   8.980   5.987   4.641
 3606WAT      O11059   5.958   2.793   5.238
 3606WAT     H111060   6.010   2.879   5.240
 3606WAT     H211061   5.873   2.807   5.187
 3607WAT      O11062   3.053   5.774   9.283
 3607WAT     H111063   3.099   5.782   9.372
 3607WAT     H211064   3.121   5.759   9.211
 3608WAT      O11065   0.095   4.221   6.369
 3608WAT     H111066   0.140   4.252   6.453
 3608WAT     H211067   0.164   4.187   6.305
 3609WAT      O11068   1.840   6.049   3.279
 3609WAT     H111069   1.876   5.997   3.201
 3609WAT     H211070   1.858   5.998   3.364
 3610WAT      O11071   2.585   9.493   9.470
 3610WAT     H111072   2.638   9.458   9.392
 3610WAT     H211073   2.489   9.471   9.457
 3611WAT      O11074   1.976   2.425   5.039
 3611WAT     H111075   1.993   2.348   5.100
 3611WAT     H211076   2.028   2.414   4.954
 3612WAT      O11077   2.724   7.745   4.754
 3612WAT     H111078   2.767   7.656   4.741
 3612WAT     H211079   2.702   7.784   4.664
 3613WAT      O11080   0.488   9.606   1.862
 3613WAT     H111081   0.525   9.663   1.936
 3613WAT     H211082   0.555   9.600   1.788
 3614WAT      O11083   6.533   1.115   1.984
 3614WAT     H111084   6.582   1.184   1.929
 3614WAT     H211085   6.518   1.033   1.928
 3615WAT      O11086   2.623   9.050   0.609
 3615WAT     H111087   2.622   9.150   0.614
 3615WAT     H211088   2.596   9.022   0.517
 3616WAT      O11089   0.106   5.115   5.456
 3616WAT     H111090   0.028   5.100   5.395
 3616WAT     H211091   0.078   5.096   5.550
 3617WAT      O11092   5.094   1.526   6.992
 3617WAT     H111093   5.160   1.575   6.934
 3617WAT     H211094   5.024   1.590   7.022
 3618WAT      O11095   5.514   7.155   9.353
 3618WAT     H111096   5.535   7.101   9.271
 3618WAT     H211097   5.533   7.251   9.336
 3619WAT      O11098   8.393   0.264   1.894
 3619WAT     H111099   8.347   0.336   1.947
 3619WAT     H211100   8.438   0.305   1.815
 3620WAT      O11101   4.151   7.868   4.083
 3620WAT     H111102   4.243   7.839   4.060
 3620WAT     H211103   4.087   7.793   4.067
 3621WAT      O11104   0.951   2.345   3.292
 3621WAT     H111105   0.899   2.314   3.212
 3621WAT     H211106   0.889   2.366   3.366
 3622WAT      O11107   8.889   4.061   7.391
 3622WAT     H111108   8.800   4.065   7.435
 3622WAT     H211109   8.877   4.051   7.292
 3623WAT      O11110   7.186   4.913   9.636
 3623WAT     H111111   7.197   4.893   9.539
 3623WAT     H211112   7.157   4.830   9.684
 3624WAT      O11113   8.059   3.870   4.984
 3624WAT     H111114   8.026   3.939   4.920
 3624WAT     H211115   8.159   3.866   4.981
 3625WAT      O11116   6.840   5.943   6.199
 3625WAT     H111117   6.768   5.905   6.141
 3625WAT     H211118   6.876   5.872   6.259
 3626WAT      O11119   3.224   7.176   6.370
 3626WAT     H111120   3.180   7.138   6.288
 3626WAT     H211121   3.153   7.205   6.435
 3627WAT      O11122   2.091   1.482   7.058
 3627WAT     H111123   2.170   1.504   7.001
 3627WAT     H211124   2.103   1.524   7.148
 3628WAT      O11125   2.901   1.021   2.398
 3628WAT     H111126   2.979   0.972   2.359
 3628WAT     H211127   2.818   0.967   2.383
 3629WAT      O11128   5.188   2.869   2.579
 3629WAT     H111129   5.131   2.873   2.661
 3629WAT     H211130   5.260   2.937   2.586
 3630WAT      O11131   0.838   0.082   5.620
 3630WAT     H111132   0.752   0.031   5.614
 3630WAT     H211133   0.915   0.018   5.614
 3631WAT      O11134   3.404   6.941   4.399
 3631WAT     H111135   3.354   6.952   4.313
 3631WAT     H211136   3.459   7.023   4.417
 3632WAT      O11137   1.550   7.263   1.074
 3632WAT     H111138   1.569   7.360   1.057
 3632WAT     H211139   1.491   7.227   1.002
 3633WAT      O11140   8.790   2.670   5.244
 3633WAT     H111141   8.798   2.571   5.229
 3633WAT     H211142   8.718   2.688   5.311
 3634WAT      O11143   3.957   8.724   0.655
 3634WAT     H111144   4.026   8.663   0.694
 3634WAT     H211145   3.872   8.673   0.642
 3635WAT      O11146   7.531   2.190   4.578
 3635WAT     H111147   7.448   2.136   4.567
 3635WAT     H211148   7.578   2.162   4.662
 3636WAT      O11149   1.829   7.118   1.609
 3636WAT     H111150   1.792   7.064   1.533
 3636WAT     H211151   1.761   7.186   1.637
 3637WAT      O11152   4.343   4.329   3.847
 3637WAT     H111153   4.264   4.369   3.802
 3637WAT     H211154   4.356   4.372   3.937
 3638WAT      O11155   0.280   3.145   1.008
 3638WAT     H111156   0.316   3.231   1.044
 3638WAT     H211157   0.190   3.161   0.967
 3639WAT      O11158   8.167   5.611   6.607
 3639WAT     H111159   8.154   5.538   6.675
 3639WAT     H211160   8.211   5.572   6.526
 3640WAT      O11161   0.137   1.997   7.360
 3640WAT     H111162   0.109   1.902   7.346
 3640WAT     H211163   0.186   2.029   7.279
 3641WAT      O11164   4.587   0.798   2.068
 3641WAT     H111165   4.505   0.742   2.082
 3641WAT     H211166   4.664   0.739   2.044
 3642WAT      O11167   4.714   2.400   6.914
 3642WAT     H111168   4.617   2.403   6.889
 3642WAT     H211169   4.726   2.443   7.004
 3643WAT      O11170   6.588   3.404   0.503
 3643WAT     H111171   6.573   3.470   0.429
 3643WAT     H211172   6.529   3.324   0.489
 3644WAT      O11173   1.127   2.193   6.513
 3644WAT     H111174   1.217   2.151   6.509
 3644WAT     H211175   1.056   2.122   6.508
 3645WAT      O11176   0.575   1.470   0.193
 3645WAT     H111177   0.565   1.437   0.099
 3645WAT     H211178   0.532   1.560   0.202
 3646WAT      O11179   5.686   7.380   0.961
 3646WAT     H111180   5.651   7.463   0.919
 3646WAT     H211181   5.664   7.300   0.905
 3647WAT      O11182   8.776   7.153   7.667
 3647WAT     H111183   8.783   7.109   7.757
 3647WAT     H211184   8.706   7.224   7.671
 3648WAT      O11185   4.385   8.869   2.400
 3648WAT     H111186   4.415   8.803   2.469
 3648WAT     H211187   4.465   8.917   2.363
 3649WAT      O11188   6.416   6.052   1.783
 3649WAT     H111189   6.362   5.977   1.823
 3649WAT     H211190   6.478   6.088   1.852
 3650WAT      O11191   8.749   3.878   0.789
 3650WAT     H111192   8.786   3.971   0.782
 3650WAT     H211193   8.681   3.874   0.861
 3651WAT      O11194   2.925   4.457   8.237
 3651WAT     H111195   2.835   4.418   8.254
 3651WAT     H211196   2.963   4.492   8.323
 3652WAT      O11197   9.736   1.289   1.626
 3652WAT     H111198   9.756   1.381   1.590
 3652WAT     H211199   9.815   1.230   1.609
 3653WAT      O11200   2.754   0.034   0.047
 3653WAT     H111201   2.700   0.019   0.130
 3653WAT     H211202   2.841   0.076   0.072
 3654WAT      O11203   5.659   7.205   5.438
 3654WAT     H111204   5.740   7.148   5.432
 3654WAT     H211205   5.686   7.301   5.443
 3655WAT      O11206   4.446   5.029   1.046
 3655WAT     H111207   4.540   5.044   1.079
 3655WAT     H211208   4.394   5.114   1.053
 3656WAT      O11209   0.572   0.173   3.735
 3656WAT     H111210   0.530   0.224   3.660
 3656WAT     H211211   0.657   0.131   3.703
 3657WAT      O11212   9.408   2.578   2.096
 3657WAT     H111213   9.369   2.583   2.004
 3657WAT     H211214   9.338   2.544   2.159
 3658WAT      O11215   8.767   0.256   4.058
 3658WAT     H111216   8.755   0.205   3.973
 3658WAT     H211217   8.681   0.300   4.083
 3659WAT      O11218   6.098   2.730   5.801
 3659WAT     H111219   6.115   2.768   5.891
 3659WAT     H211220   6.005   2.752   5.772
 3660WAT      O11221   3.740   1.517   9.584
 3660WAT     H111222   3.732   1.605   9.538
 3660WAT     H211223   3.835   1.485   9.580
 3661WAT      O11224   0.201   0.605   4.063
 3661WAT     H111225   0.118   0.554   4.085
 3661WAT     H211226   0.261   0.549   4.005
 3662WAT      O11227   3.813   1.057   1.636
 3662WAT     H111228   3.812   1.036   1.734
 3662WAT     H211229   3.719   1.067   1.603
 3663WAT      O11230   4.619   8.537   1.973
 3663WAT     H111231   4.695   8.520   2.036
 3663WAT     H211232   4.633   8.484   1.890
 3664WAT      O11233   9.024   0.426   1.822
 3664WAT     H111234   9.074   0.457   1.903
 3664WAT     H211235   9.001   0.329   1.832
 3665WAT      O11236   2.681   6.216   9.727
 3665WAT     H111237   2.627   6.244   9.806
 3665WAT     H211238   2.647   6.263   9.646
 3666WAT      O11239   9.370   2.561   4.823
 3666WAT     H111240   9.451   2.595   4.871
 3666WAT     H211241   9.397   2.517   4.738
 3667WAT      O11242   8.394   7.207   7.404
 3667WAT     H111243   8.440   7.130   7.360
 3667WAT     H211244   8.441   7.230   7.489
 3668WAT      O11245   3.845   9.513   4.480
 3668WAT     H111246   3.755   9.510   4.523
 3668WAT     H211247   3.883   9.421   4.476
 3669WAT      O11248   2.736   3.058   3.200
 3669WAT     H111249   2.732   3.125   3.125
 3669WAT     H211250   2.831   3.030   3.214
 3670WAT      O11251   0.581   6.730   4.704
 3670WAT     H111252   0.575   6.731   4.604
 3670WAT     H211253   0.490   6.749   4.742
 3671WAT      O11254   1.847   6.190   4.511
 3671WAT     H111255   1.909   6.268   4.522
 3671WAT     H211256   1.833   6.171   4.414
 3672WAT      O11257   7.214   2.823   2.323
 3672WAT     H111258   7.131   2.841   2.270
 3672WAT     H211259   7.216   2.727   2.352
 3673WAT      O11260   3.814   8.516   2.820
 3673WAT     H111261   3.914   8.522   2.816
 3673WAT     H211262   3.779   8.579   2.889
 3674WAT      O11263   5.709   1.000   0.996
 3674WAT     H111264   5.722   1.096   1.019
 3674WAT     H211265   5.789   0.967   0.945
 3675WAT      O11266   3.712   0.999   0.973
 3675WAT     H111267   3.651   0.965   0.902
 3675WAT     H211268   3.711   0.935   1.050
 3676WAT      O11269   8.122   1.752   8.284
 3676WAT     H111270   8.123   1.815   8.206
 3676WAT     H211271   8.094   1.661   8.253
 3677WAT      O11272   5.039   9.554   9.709
 3677WAT     H111273   4.998   9.541   9.799
 3677WAT     H211274   5.046   9.465   9.663
 3678WAT      O11275   7.405   2.875   4.889
 3678WAT     H111276   7.342   2.937   4.841
 3678WAT     H211277   7.354   2.826   4.959
 3679WAT      O11278   0.461   4.926   1.035
 3679WAT     H111279   0.475   5.024   1.019
 3679WAT     H211280   0.494   4.874   0.957
 3680WAT      O11281   9.412   0.882   0.772
 3680WAT     H111282   9.472   0.822   0.719
 3680WAT     H211283   9.325   0.894   0.725
 3681WAT      O11284   8.386   8.783   6.594
 3681WAT     H111285   8.351   8.690   6.584
 3681WAT     H211286   8.339   8.844   6.530
 3682WAT      O11287   0.566   2.874   1.427
 3682WAT     H111288   0.521   2.786   1.413
 3682WAT     H211289   0.499   2.943   1.452
 3683WAT      O11290   5.319   3.850   1.730
 3683WAT     H111291   5.415   3.876   1.741
 3683WAT     H211292   5.312   3.779   1.660
 3684WAT      O11293   8.422   1.552   9.169
 3684WAT     H111294   8.477   1.630   9.138
 3684WAT     H211295   8.478   1.469   9.168
 3685WAT      O11296   5.611   5.819   6.406
 3685WAT     H111297   5.603   5.728   6.447
 3685WAT     H211298   5.679   5.873   6.456
 3686WAT      O11299   6.025   7.105   8.197
 3686WAT     H111300   6.117   7.140   8.216
 3686WAT     H211301   5.987   7.154   8.119
 3687WAT      O11302   6.238   7.314   2.310
 3687WAT     H111303   6.152   7.302   2.259
 3687WAT     H211304   6.310   7.259   2.267
 3688WAT      O11305   9.765   0.803   5.366
 3688WAT     H111306   9.740   0.819   5.270
 3688WAT     H211307   9.740   0.883   5.421
 3689WAT      O11308   8.772   6.861   3.156
 3689WAT     H111309   8.712   6.937   3.129
 3689WAT     H211310   8.854   6.897   3.200
 3690WAT      O11311   2.783   4.812   7.162
 3690WAT     H111312   2.874   4.773   7.171
 3690WAT     H211313   2.786   4.909   7.185
 3691WAT      O11314   4.300   4.962   8.228
 3691WAT     H111315   4.323   4.920   8.316
 3691WAT     H211316   4.374   5.024   8.200
 3692WAT      O11317   8.018   7.279   1.987
 3692WAT     H111318   8.070   7.347   1.935
 3692WAT     H211319   7.923   7.278   1.955
 3693WAT      O11320   0.642   2.908   0.557
 3693WAT     H111321   0.731   2.938   0.522
 3693WAT     H211322   0.586   2.876   0.480
 3694WAT      O11323   4.446   6.209   3.762
 3694WAT     H111324   4.348   6.198   3.748
 3694WAT     H211325   4.462   6.279   3.832
 3695WAT      O11326   1.945   8.166   6.330
 3695WAT     H111327   1.893   8.244   6.294
 3695WAT     H211328   1.941   8.167   6.430
 3696WAT      O11329   2.065   3.435   4.767
 3696WAT     H111330   2.107   3.440   4.677
 3696WAT     H211331   2.057   3.340   4.796
 3697WAT      O11332   5.770   8.170   0.852
 3697WAT     H111333   5.785   8.268   0.840
 3697WAT     H211334   5.732   8.153   0.943
 3698WAT      O11335   4.074   1.025   1.562
 3698WAT     H111336   4.133   1.096   1.603
 3698WAT     H211337   3.979   1.053   1.568
 3699WAT      O11338   7.700   9.442   2.936
 3699WAT     H111339   7.793   9.459   2.969
 3699WAT     H211340   7.646   9.526   2.947
 3700WAT      O11341   4.405   1.033   5.759
 3700WAT     H111342   4.467   1.020   5.837
 3700WAT     H211343   4.431   0.969   5.686
 3701WAT      O11344   6.238   0.189   6.936
 3701WAT     H111345   6.176   0.262   6.907
 3701WAT     H211346   6.306   0.173   6.864
 3702WAT      O11347   7.234   0.340   0.866
 3702WAT     H111348   7.233   0.416   0.931
 3702WAT     H211349   7.258   0.372   0.775
 3703WAT      O11350   2.646   4.762   0.268
 3703WAT     H111351   2.689   4.774   0.178
 3703WAT     H211352   2.646   4.665   0.292
 3704WAT      O11353   6.632   2.687   0.032
 3704WAT     H111354   6.718   2.723   0.067
 3704WAT     H211355   6.622   2.591   0.060
 3705WAT      O11356   7.802   6.758   8.489
 3705WAT     H111357   7.811   6.668   8.447
 3705WAT     H211358   7.881   6.775   8.548
 3706WAT      O11359   6.915   1.316   6.165
 3706WAT     H111360   6.967   1.365   6.235
 3706WAT     H211361   6.831   1.280   6.205
 3707WAT      O11362   7.434   2.769   1.146
 3707WAT     H111363   7.442   2.687   1.089
 3707WAT     H211364   7.522   2.786   1.191
 3708WAT      O11365   4.380   5.078   0.002
 3708WAT     H111366   4.292   5.030  -0.005
 3708WAT     H211367   4.369   5.160   0.059
 3709WAT      O11368   1.915   2.620   1.591
 3709WAT     H111369   1.853   2.548   1.560
 3709WAT     H211370   1.993   2.626   1.529
 3710WAT      O11371   7.357   5.621   4.704
 3710WAT     H111372   7.434   5.685   4.712
 3710WAT     H211373   7.333   5.588   4.795
 3711WAT      O11374   9.763   8.642   9.051
 3711WAT     H111375   9.754   8.543   9.040
 3711WAT     H211376   9.744   8.687   8.963
 3712WAT      O11377   4.913   8.641   2.079
 3712WAT     H111378   4.901   8.635   1.980
 3712WAT     H211379   4.978   8.570   2.108
 3713WAT      O11380   7.341   0.402   0.626
 3713WAT     H111381   7.435   0.371   0.634
 3713WAT     H211382   7.312   0.400   0.530
 3714WAT      O11383   6.799   0.252   7.654
 3714WAT     H111384   6.743   0.291   7.726
 3714WAT     H211385   6.754   0.264   7.565
 3715WAT      O11386   0.702   7.016   2.731
 3715WAT     H111387   0.682   7.043   2.637
 3715WAT     H211388   0.626   6.963   2.767
 3716WAT      O11389   8.212   0.485   4.485
 3716WAT     H111390   8.211   0.386   4.496
 3716WAT     H211391   8.193   0.507   4.389
 3717WAT      O11392   4.862   4.232   3.430
 3717WAT     H111393   4.837   4.241   3.526
 3717WAT     H211394   4.790   4.185   3.380
 3718WAT      O11395   2.397   1.167   8.501
 3718WAT     H111396   2.479   1.121   8.468
 3718WAT     H211397   2.421   1.255   8.541
 3719WAT      O11398   7.290   4.733   2.378
 3719WAT     H111399   7.209   4.708   2.431
 3719WAT     H211400   7.288   4.831   2.359
 3720WAT      O11401   4.663   0.257   9.754
 3720WAT     H111402   4.756   0.295   9.749
 3720WAT     H211403   4.662   0.167   9.712
 3721WAT      O11404   0.764   6.573   5.076
 3721WAT     H111405   0.781   6.479   5.105
 3721WAT     H211406   0.807   6.590   4.988
 3722WAT      O11407   5.691   1.453   9.882
 3722WAT     H111408   5.693   1.509   9.798
 3722WAT     H211409   5.715   1.359   9.859
 3723WAT      O11410   7.732   7.876   2.255
 3723WAT     H111411   7.677   7.804   2.213
 3723WAT     H211412   7.800   7.834   2.315
 3724WAT      O11413   0.947   0.706   0.704
 3724WAT     H111414   0.906   0.624   0.665
 3724WAT     H211415   1.036   0.683   0.744
 3725WAT      O11416   5.061   9.200   0.526
 3725WAT     H111417   4.977   9.210   0.473
 3725WAT     H211418   5.086   9.289   0.566
 3726WAT      O11419   6.697   8.650   7.078
 3726WAT     H111420   6.776   8.668   7.135
 3726WAT     H211421   6.657   8.736   7.046
 3727WAT      O11422   7.884   3.846   3.399
 3727WAT     H111423   7.841   3.933   3.424
 3727WAT     H211424   7.950   3.820   3.469
 3728WAT      O11425   2.524   9.325   0.322
 3728WAT     H111426   2.546   9.281   0.235
 3728WAT     H211427   2.520   9.424   0.309
 3729WAT      O11428   0.835   2.141   4.178
 3729WAT     H111429   0.848   2.237   4.154
 3729WAT     H211430   0.738   2.117   4.170
 3730WAT      O11431   3.586   8.965   8.253
 3730WAT     H111432   3.575   9.062   8.230
 3730WAT     H211433   3.681   8.949   8.280
 3731WAT      O11434   2.167   7.992   5.341
 3731WAT     H111435   2.146   8.068   5.279
 3731WAT     H211436   2.228   8.025   5.414
 3732WAT      O11437   7.693   6.456   1.277
 3732WAT     H111438   7.642   6.424   1.198
 3732WAT     H211439   7.641   6.527   1.324
 3733WAT      O11440   2.500   1.110   1.434
 3733WAT     H111441   2.528   1.166   1.357
 3733WAT     H211442   2.416   1.061   1.409
 3734WAT      O11443   9.286   1.522   8.044
 3734WAT     H111444   9.195   1.499   8.079
 3734WAT     H211445   9.283   1.527   7.945
 3735WAT      O11446   6.089   0.885   1.237
 3735WAT     H111447   6.111   0.980   1.258
 3735WAT     H211448   6.131   0.860   1.149
 3736WAT      O11449   1.639   0.566   6.460
 3736WAT     H111450   1.631   0.576   6.559
 3736WAT     H211451   1.635   0.657   6.417
 3737WAT      O11452   2.143   9.090   6.274
 3737WAT     H111453   2.126   9.017   6.339
 3737WAT     H211454   2.117   9.060   6.182
 3738WAT      O11455   8.409   6.103   8.953
 3738WAT     H111456   8.346   6.137   8.883
 3738WAT     H211457   8.437   6.010   8.929
 3739WAT      O11458   3.417   1.774   2.273
 3739WAT     H111459   3.347   1.828   2.318
 3739WAT     H211460   3.505   1.788   2.319
 3740WAT      O11461   4.755   4.682   2.673
 3740WAT     H111462   4.698   4.755   2.637
 3740WAT     H211463   4.712   4.594   2.656
 3741WAT      O11464   7.586   3.401   4.261
 3741WAT     H111465   7.577   3.307   4.295
 3741WAT     H211466   7.634   3.400   4.173
 3742WAT      O11467   1.301   6.522   9.499
 3742WAT     H111468   1.282   6.474   9.584
 3742WAT     H211469   1.302   6.457   9.423
 3743WAT      O11470   7.679   5.682   3.296
 3743WAT     H111471   7.617   5.665   3.219
 3743WAT     H211472   7.712   5.777   3.291
 3744WAT      O11473   4.685   3.812   8.167
 3744WAT     H111474   4.730   3.742   8.223
 3744WAT     H211475   4.718   3.806   8.073
 3745WAT      O11476   4.210   5.585   9.348
 3745WAT     H111477   4.286   5.537   9.392
 3745WAT     H211478   4.243   5.669   9.306
 3746WAT      O11479   3.715   1.436   5.750
 3746WAT     H111480   3.780   1.454   5.676
 3746WAT     H211481   3.662   1.519   5.768
 3747WAT      O11482   2.564   4.029   1.548
 3747WAT     H111483   2.603   4.094   1.482
 3747WAT     H211484   2.566   4.071   1.639
 3748WAT      O11485   5.469   2.831   1.064
 3748WAT     H111486   5.422   2.747   1.093
 3748WAT     H211487   5.427   2.910   1.108
 3749WAT      O11488   0.219   4.752   2.642
 3749WAT     H111489   0.303   4.699   2.636
 3749WAT     H211490   0.217   4.821   2.570
 3750WAT      O11491   2.117   2.405   1.830
 3750WAT     H111492   2.180   2.328   1.840
 3750WAT     H211493   2.127   2.467   1.908
 3751WAT      O11494   5.471   0.912   2.035
 3751WAT     H111495   5.445   0.912   2.131
 3751WAT     H211496   5.397   0.873   1.980
 3752WAT      O11497   8.938   2.646   0.369
 3752WAT     H111498   8.864   2.666   0.433
 3752WAT     H211499   8.939   2.548   0.348
 3753WAT      O11500   1.854   6.848   2.908
 3753WAT     H111501   1.938   6.871   2.859
 3753WAT     H211502   1.850   6.900   2.994
 3754WAT      O11503   1.594   7.777   0.204
 3754WAT     H111504   1.582   7.876   0.196
 3754WAT     H211505   1.677   7.749   0.155
 3755WAT      O11506   7.048   9.357   3.895
 3755WAT     H111507   7.069   9.260   3.909
 3755WAT     H211508   7.049   9.377   3.797
 3756WAT      O11509   8.538   3.253   8.265
 3756WAT     H111510   8.534   3.159   8.300
 3756WAT     H211511   8.449   3.277   8.226
 3757WAT      O11512   3.686   3.359   6.100
 3757WAT     H111513   3.631   3.433   6.139
 3757WAT     H211514   3.637   3.272   6.112
 3758WAT      O11515   9.107   4.243   3.841
 3758WAT     H111516   9.051   4.309   3.792
 3758WAT     H211517   9.072   4.230   3.934
 3759WAT      O11518   1.747   9.457   2.162
 3759WAT     H111519   1.799   9.414   2.087
 3759WAT     H211520   1.683   9.390   2.201
 3760WAT      O11521   8.741   0.400   1.845
 3760WAT     H111522   8.838   0.420   1.837
 3760WAT     H211523   8.728   0.313   1.893
 3761WAT      O11524   5.974   8.963   8.103
 3761WAT     H111525   6.038   9.000   8.036
 3761WAT     H211526   5.913   9.037   8.135
 3762WAT      O11527   6.559   6.600   0.728
 3762WAT     H111528   6.600   6.691   0.732
 3762WAT     H211529   6.526   6.582   0.636
 3763WAT      O11530   4.200   6.131   8.866
 3763WAT     H111531   4.188   6.191   8.945
 3763WAT     H211532   4.293   6.141   8.830
 3764WAT      O11533   6.195   5.894   2.892
 3764WAT     H111534   6.176   5.960   2.819
 3764WAT     H211535   6.132   5.910   2.968
 3765WAT      O11536   1.945   9.538   2.345
 3765WAT     H111537   1.870   9.530   2.279
 3765WAT     H211538   2.031   9.516   2.299
 3766WAT      O11539   4.259   4.334   5.719
 3766WAT     H111540   4.251   4.329   5.819
 3766WAT     H211541   4.325   4.405   5.694
 3767WAT      O11542   6.772   3.610   5.865
 3767WAT     H111543   6.746   3.640   5.957
 3767WAT     H211544   6.719   3.660   5.797
 3768WAT      O11545   5.748   8.433   0.761
 3768WAT     H111546   5.654   8.436   0.727
 3768WAT     H211547   5.789   8.524   0.755
 3769WAT      O11548   9.350   7.501   1.042
 3769WAT     H111549   9.366   7.474   1.137
 3769WAT     H211550   9.436   7.503   0.993
 3770WAT      O11551   6.245   0.469   6.130
 3770WAT     H111552   6.284   0.561   6.124
 3770WAT     H211553   6.300   0.406   6.075
 3771WAT      O11554   9.191   4.960   3.812
 3771WAT     H111555   9.159   5.032   3.750
 3771WAT     H211556   9.282   4.930   3.785
 3772WAT      O11557   2.918   6.821   2.373
 3772WAT     H111558   2.961   6.764   2.303
 3772WAT     H211559   2.844   6.874   2.332
 3773WAT      O11560   6.204   1.352   4.609
 3773WAT     H111561   6.193   1.427   4.545
 3773WAT     H211562   6.293   1.307   4.594
 3774WAT      O11563   7.518   5.740   1.913
 3774WAT     H111564   7.524   5.647   1.950
 3774WAT     H211565   7.559   5.804   1.978
 3775WAT      O11566   4.696   8.252   2.423
 3775WAT     H111567   4.743   8.178   2.472
 3775WAT     H211568   4.758   8.330   2.413
 3776WAT      O11569   7.991   8.871   6.882
 3776WAT     H111570   7.978   8.970   6.883
 3776WAT     H211571   7.905   8.826   6.905
 3777WAT      O11572   9.163   1.677   2.512
 3777WAT     H111573   9.246   1.641   2.470
 3777WAT     H211574   9.086   1.615   2.495
 3778WAT      O11575   3.077   9.606   5.768
 3778WAT     H111576   3.174   9.597   5.788
 3778WAT     H211577   3.032   9.518   5.778
 3779WAT      O11578   1.934   4.148   9.878
 3779WAT     H111579   1.857   4.096   9.915
 3779WAT     H211580   2.008   4.150   9.946
 3780WAT      O11581   7.206   7.307   7.139
 3780WAT     H111582   7.186   7.320   7.236
 3780WAT     H211583   7.128   7.339   7.085
 3781WAT      O11584   4.112   3.803   4.875
 3781WAT     H111585   4.157   3.855   4.801
 3781WAT     H211586   4.161   3.819   4.960
 3782WAT      O11587   7.154   3.800   0.664
 3782WAT     H111588   7.089   3.871   0.637
 3782WAT     H211589   7.105   3.721   0.700
 3783WAT      O11590   5.485   7.767   3.748
 3783WAT     H111591   5.500   7.816   3.834
 3783WAT     H211592   5.463   7.672   3.767
 3784WAT      O11593   2.289   3.905   0.046
 3784WAT     H111594   2.346   3.987   0.038
 3784WAT     H211595   2.330   3.831  -0.007
 3785WAT      O11596   9.657   5.354   8.212
 3785WAT     H111597   9.756   5.354   8.230
 3785WAT     H211598   9.631   5.442   8.173
 3786WAT      O11599   2.743   7.731   0.839
 3786WAT     H111600   2.802   7.746   0.918
 3786WAT     H211601   2.690   7.648   0.853
 3787WAT      O11602   2.769   7.186   5.561
 3787WAT     H111603   2.785   7.228   5.650
 3787WAT     H211604   2.682   7.218   5.524
 3788WAT      O11605   2.958   6.310   9.163
 3788WAT     H111606   2.868   6.280   9.131
 3788WAT     H211607   3.029   6.262   9.113
 3789WAT      O11608   8.592   2.387   6.914
 3789WAT     H111609   8.595   2.303   6.967
 3789WAT     H211610   8.679   2.437   6.925
 3790WAT      O11611   2.097   8.407   1.420
 3790WAT     H111612   2.011   8.361   1.399
 3790WAT     H211613   2.173   8.347   1.398
 3791WAT      O11614   8.858   2.637   1.570
 3791WAT     H111615   8.760   2.638   1.550
 3791WAT     H211616   8.909   2.674   1.492
 3792WAT      O11617   4.427   4.448   0.908
 3792WAT     H111618   4.468   4.429   0.819
 3792WAT     H211619   4.468   4.388   0.977
 3793WAT      O11620   2.327   0.851   3.143
 3793WAT     H111621   2.391   0.786   3.184
 3793WAT     H211622   2.236   0.809   3.136
 3794WAT      O11623   3.572   8.188   7.303
 3794WAT     H111624   3.642   8.182   7.374
 3794WAT     H211625   3.491   8.137   7.332
 3795WAT      O11626   8.485   3.051   4.789
 3795WAT     H111627   8.388   3.028   4.797
 3795WAT     H211628   8.520   3.081   4.877
 3796WAT      O11629   7.927   5.489   4.255
 3796WAT     H111630   8.021   5.511   4.230
 3796WAT     H211631   7.869   5.570   4.245
 3797WAT      O11632   2.066   1.400   0.620
 3797WAT     H111633   2.110   1.482   0.583
 3797WAT     H211634   2.081   1.324   0.557
 3798WAT      O11635   3.385   5.948   1.439
 3798WAT     H111636   3.421   6.041   1.445
 3798WAT     H211637   3.445   5.886   1.490
 3799WAT      O11638   6.935   4.631   3.471
 3799WAT     H111639   6.958   4.673   3.384
 3799WAT     H211640   6.906   4.536   3.456
 3800WAT      O11641   6.708   5.585   8.386
 3800WAT     H111642   6.692   5.546   8.477
 3800WAT     H211643   6.631   5.564   8.326
 3801WAT      O11644   5.514   9.036   6.216
 3801WAT     H111645   5.595   8.978   6.225
 3801WAT     H211646   5.440   8.985   6.173
 3802WAT      O11647   1.214   8.131   6.903
 3802WAT     H111648   1.163   8.150   6.987
 3802WAT     H211649   1.311   8.118   6.925
 3803WAT      O11650   9.375   3.566   5.959
 3803WAT     H111651   9.469   3.593   5.981
 3803WAT     H211652   9.314   3.645   5.968
 3804WAT      O11653   8.380   6.892   0.757
 3804WAT     H111654   8.442   6.894   0.680
 3804WAT     H211655   8.286   6.886   0.724
 3805WAT      O11656   8.594   2.651   1.632
 3805WAT     H111657   8.509   2.645   1.578
 3805WAT     H211658   8.607   2.566   1.682
 3806WAT      O11659   6.100   5.196   4.935
 3806WAT     H111660   6.031   5.201   4.862
 3806WAT     H211661   6.191   5.209   4.895
 3807WAT      O11662   0.895   2.531   6.481
 3807WAT     H111663   0.899   2.467   6.403
 3807WAT     H211664   0.986   2.569   6.497
 3808WAT      O11665   1.573   3.646   3.016
 3808WAT     H111666   1.473   3.649   3.010
 3808WAT     H211667   1.609   3.739   3.014
 3809WAT      O11668   4.281   9.756   5.141
 3809WAT     H111669   4.301   9.740   5.238
 3809WAT     H211670   4.219   9.834   5.132
 3810WAT      O11671   2.101   7.176   1.838
 3810WAT     H111672   2.012   7.184   1.882
 3810WAT     H211673   2.098   7.100   1.772
 3811WAT      O11674   7.039   1.850   5.756
 3811WAT     H111675   7.051   1.857   5.855
 3811WAT     H211676   7.129   1.846   5.712
 3812WAT      O11677   7.725   5.145   9.098
 3812WAT     H111678   7.792   5.174   9.166
 3812WAT     H211679   7.665   5.075   9.138
 3813WAT      O11680   3.329   1.840   1.508
 3813WAT     H111681   3.344   1.741   1.515
 3813WAT     H211682   3.400   1.888   1.559
 3814WAT      O11683   3.450   3.408   2.199
 3814WAT     H111684   3.410   3.317   2.204
 3814WAT     H211685   3.436   3.456   2.286
 3815WAT      O11686   1.289   4.778   1.310
 3815WAT     H111687   1.359   4.776   1.380
 3815WAT     H211688   1.330   4.756   1.221
 3816WAT      O11689   2.742   0.278   1.777
 3816WAT     H111690   2.740   0.213   1.702
 3816WAT     H211691   2.802   0.354   1.755
 3817WAT      O11692   5.412   8.782   5.876
 3817WAT     H111693   5.509   8.807   5.866
 3817WAT     H211694   5.384   8.800   5.970
 3818WAT      O11695   1.054   3.804   7.043
 3818WAT     H111696   1.092   3.896   7.057
 3818WAT     H211697   0.970   3.795   7.096
 3819WAT      O11698   8.681   5.906   5.471
 3819WAT     H111699   8.652   5.873   5.381
 3819WAT     H211700   8.764   5.961   5.461
 3820WAT      O11701   1.696   0.661   8.404
 3820WAT     H111702   1.639   0.653   8.322
 3820WAT     H211703   1.754   0.743   8.396
 3821WAT      O11704   0.901   6.409   3.802
 3821WAT     H111705   0.931   6.361   3.720
 3821WAT     H211706   0.923   6.355   3.883
 3822WAT      O11707   6.096   7.880   5.564
 3822WAT     H111708   6.063   7.965   5.523
 3822WAT     H211709   6.195   7.873   5.553
 3823WAT      O11710   1.958   1.175   5.532
 3823WAT     H111711   2.057   1.178   5.524
 3823WAT     H211712   1.919   1.259   5.494
 3824WAT      O11713   4.263   1.410   2.333
 3824WAT     H111714   4.244   1.404   2.235
 3824WAT     H211715   4.230   1.327   2.379
 3825WAT      O11716   7.582   8.223   5.001
 3825WAT     H111717   7.647   8.163   4.954
 3825WAT     H211718   7.523   8.168   5.060
 3826WAT      O11719   7.264   2.567   3.683
 3826WAT     H111720   7.244   2.486   3.628
 3826WAT     H211721   7.267   2.648   3.623
 3827WAT      O11722   1.257   3.657   6.906
 3827WAT     H111723   1.273   3.568   6.950
 3827WAT     H211724   1.174   3.698   6.945
 3828WAT      O11725   6.520   2.755   0.778
 3828WAT     H111726   6.534   2.853   0.796
 3828WAT     H211727   6.586   2.702   0.831
 3829WAT      O11728   5.239   7.061   6.515
 3829WAT     H111729   5.212   6.965   6.520
 3829WAT     H211730   5.168   7.118   6.557
 3830WAT      O11731   1.044   9.339   6.451
 3830WAT     H111732   1.046   9.240   6.469
 3830WAT     H211733   1.015   9.387   6.534
 3831WAT      O11734   6.084   3.791   6.061
 3831WAT     H111735   6.107   3.871   6.116
 3831WAT     H211736   6.123   3.801   5.969
 3832WAT      O11737   5.735   3.761   1.580
 3832WAT     H111738   5.662   3.753   1.513
 3832WAT     H211739   5.701   3.806   1.663
 3833WAT      O11740   0.331   1.436   8.707
 3833WAT     H111741   0.407   1.446   8.772
 3833WAT     H211742   0.341   1.350   8.658
 3834WAT      O11743   1.647   3.078   2.703
 3834WAT     H111744   1.648   2.986   2.743
 3834WAT     H211745   1.648   3.146   2.777
 3835WAT      O11746   9.013   2.742   7.815
 3835WAT     H111747   9.005   2.700   7.905
 3835WAT     H211748   8.922   2.759   7.777
 3836WAT      O11749   7.027   3.394   4.264
 3836WAT     H111750   7.121   3.389   4.298
 3836WAT     H211751   7.019   3.469   4.198
 3837WAT      O11752   0.212   1.572   5.975
 3837WAT     H111753   0.116   1.599   5.963
 3837WAT     H211754   0.219   1.473   5.963
 3838WAT      O11755   9.391   8.028   7.229
 3838WAT     H111756   9.394   8.031   7.329
 3838WAT     H211757   9.404   7.935   7.198
 3839WAT      O11758   9.669   3.262   8.383
 3839WAT     H111759   9.573   3.279   8.364
 3839WAT     H211760   9.683   3.257   8.482
 3840WAT      O11761   0.130   7.356   2.528
 3840WAT     H111762   0.216   7.321   2.491
 3840WAT     H211763   0.070   7.280   2.552
 3841WAT      O11764   7.441   8.752   0.922
 3841WAT     H111765   7.474   8.789   1.008
 3841WAT     H211766   7.487   8.665   0.903
 3842WAT      O11767   6.379   2.906   1.995
 3842WAT     H111768   6.425   2.916   2.083
 3842WAT     H211769   6.410   2.978   1.932
 3843WAT      O11770   0.038   6.480   1.369
 3843WAT     H111771  -0.001   6.388   1.377
 3843WAT     H211772   0.042   6.506   1.273
 3844WAT      O11773   0.788   0.960   5.569
 3844WAT     H111774   0.828   0.949   5.478
 3844WAT     H211775   0.861   0.979   5.635
 3845WAT      O11776   1.557   6.556   7.107
 3845WAT     H111777   1.640   6.500   7.099
 3845WAT     H211778   1.552   6.619   7.030
 3846WAT      O11779   6.855   4.165   2.199
 3846WAT     H111780   6.837   4.136   2.293
 3846WAT     H211781   6.953   4.169   2.183
 3847WAT      O11782   4.102   0.678   5.037
 3847WAT     H111783   4.141   0.754   4.985
 3847WAT     H211784   4.087   0.600   4.977
 3848WAT      O11785   3.953   3.621   4.312
 3848WAT     H111786   3.864   3.585   4.284
 3848WAT     H211787   4.016   3.545   4.327
 3849WAT      O11788   0.423   1.694   0.195
 3849WAT     H111789   0.404   1.767   0.261
 3849WAT     H211790   0.349   1.691   0.127
 3850WAT      O11791   8.451   6.787   4.143
 3850WAT     H111792   8.510   6.757   4.068
 3850WAT     H211793   8.418   6.708   4.194
 3851WAT      O11794   5.721   7.216   3.302
 3851WAT     H111795   5.722   7.315   3.285
 3851WAT     H211796   5.783   7.171   3.238
 3852WAT      O11797   3.492   9.288   1.563
 3852WAT     H111798   3.523   9.382   1.576
 3852WAT     H211799   3.570   9.229   1.544
 3853WAT      O11800   0.958   8.643   4.073
 3853WAT     H111801   0.858   8.636   4.081
 3853WAT     H211802   0.988   8.597   3.989
 3854WAT      O11803   7.280   9.079   5.947
 3854WAT     H111804   7.346   9.151   5.928
 3854WAT     H211805   7.316   8.992   5.913
 3855WAT      O11806   3.146   2.367   3.535
 3855WAT     H111807   3.106   2.285   3.577
 3855WAT     H211808   3.159   2.437   3.604
 3856WAT      O11809   6.567   6.501   0.990
 3856WAT     H111810   6.505   6.548   1.053
 3856WAT     H211811   6.572   6.552   0.904
 3857WAT      O11812   3.943   4.690   0.237
 3857WAT     H111813   3.912   4.774   0.193
 3857WAT     H211814   3.915   4.690   0.333
 3858WAT      O11815   7.704   8.638   6.717
 3858WAT     H111816   7.615   8.602   6.747
 3858WAT     H211817   7.759   8.564   6.679
 3859WAT      O11818   3.185   2.629   4.921
 3859WAT     H111819   3.141   2.705   4.969
 3859WAT     H211820   3.233   2.663   4.841
 3860WAT      O11821   4.204   9.437   1.208
 3860WAT     H111822   4.254   9.370   1.154
 3860WAT     H211823   4.148   9.389   1.276
 3861WAT      O11824   9.541   8.644   6.782
 3861WAT     H111825   9.528   8.676   6.876
 3861WAT     H211826   9.452   8.638   6.737
 3862WAT      O11827   5.599   7.803   7.304
 3862WAT     H111828   5.518   7.819   7.248
 3862WAT     H211829   5.677   7.781   7.245
 3863WAT      O11830   1.778   7.341   8.610
 3863WAT     H111831   1.830   7.394   8.677
 3863WAT     H211832   1.727   7.404   8.551
 3864WAT      O11833   2.587   1.855   5.092
 3864WAT     H111834   2.568   1.904   5.178
 3864WAT     H211835   2.526   1.776   5.086
 3865WAT      O11836   9.588   6.871   4.474
 3865WAT     H111837   9.498   6.829   4.486
 3865WAT     H211838   9.578   6.966   4.446
 3866WAT      O11839   2.515   0.139   6.170
 3866WAT     H111840   2.572   0.217   6.195
 3866WAT     H211841   2.431   0.171   6.126
 3867WAT      O11842   5.725   6.640   0.904
 3867WAT     H111843   5.643   6.633   0.962
 3867WAT     H211844   5.758   6.548   0.882
 3868WAT      O11845   9.581   7.406   2.468
 3868WAT     H111846   9.523   7.325   2.459
 3868WAT     H211847   9.659   7.399   2.407
 3869WAT      O11848   4.092   1.197   5.194
 3869WAT     H111849   4.047   1.249   5.121
 3869WAT     H211850   4.073   1.100   5.181
 3870WAT      O11851   1.660   4.847   8.279
 3870WAT     H111852   1.695   4.928   8.327
 3870WAT     H211853   1.636   4.777   8.346
 3871WAT      O11854   6.144   9.117   5.813
 3871WAT     H111855   6.072   9.169   5.767
 3871WAT     H211856   6.108   9.027   5.839
 3872WAT      O11857   9.839   4.451   6.305
 3872WAT     H111858   9.869   4.530   6.251
 3872WAT     H211859   9.914   4.386   6.312
 3873WAT      O11860   6.642   0.337   2.780
 3873WAT     H111861   6.616   0.331   2.683
 3873WAT     H211862   6.572   0.388   2.830
 3874WAT      O11863   2.884   6.041   9.397
 3874WAT     H111864   2.964   6.007   9.347
 3874WAT     H211865   2.884   6.141   9.396
 3875WAT      O11866   9.504   0.820   0.373
 3875WAT     H111867   9.426   0.852   0.318
 3875WAT     H211868   9.589   0.836   0.323
 3876WAT      O11869   1.183   4.038   1.287
 3876WAT     H111870   1.240   4.016   1.366
 3876WAT     H211871   1.218   3.990   1.206
 3877WAT      O11872   0.257   2.258   0.812
 3877WAT     H111873   0.304   2.346   0.819
 3877WAT     H211874   0.202   2.243   0.894
 3878WAT      O11875   5.155   2.189   1.011
 3878WAT     H111876   5.175   2.137   1.093
 3878WAT     H211877   5.166   2.131   0.930
 3879WAT      O11878   1.190   0.685   6.310
 3879WAT     H111879   1.149   0.766   6.266
 3879WAT     H211880   1.179   0.692   6.409
 3880WAT      O11881   9.477   5.878   1.639
 3880WAT     H111882   9.469   5.899   1.736
 3880WAT     H211883   9.419   5.800   1.617
 3881WAT      O11884   7.563   7.695   4.165
 3881WAT     H111885   7.654   7.655   4.149
 3881WAT     H211886   7.499   7.623   4.190
 3882WAT      O11887   8.688   7.307   4.489
 3882WAT     H111888   8.617   7.337   4.425
 3882WAT     H211889   8.778   7.330   4.451
 3883WAT      O11890   4.640   8.817   0.147
 3883WAT     H111891   4.658   8.827   0.049
 3883WAT     H211892   4.563   8.756   0.161
 3884WAT      O11893   1.701   9.551   0.243
 3884WAT     H111894   1.786   9.497   0.241
 3884WAT     H211895   1.623   9.490   0.241
 3885WAT      O11896   4.349   7.255   4.189
 3885WAT     H111897   4.436   7.249   4.140
 3885WAT     H211898   4.275   7.224   4.129
 3886WAT      O11899   0.594   8.837   2.585
 3886WAT     H111900   0.520   8.771   2.592
 3886WAT     H211901   0.611   8.878   2.675
 3887WAT      O11902   2.717   6.290   5.768
 3887WAT     H111903   2.728   6.208   5.824
 3887WAT     H211904   2.673   6.362   5.822
 3888WAT      O11905   4.738   0.384   2.740
 3888WAT     H111906   4.825   0.340   2.763
 3888WAT     H211907   4.662   0.325   2.767
 3889WAT      O11908   1.998   7.224   9.339
 3889WAT     H111909   1.908   7.207   9.298
 3889WAT     H211910   2.054   7.142   9.333
 3890WAT      O11911   9.132   2.253   9.038
 3890WAT     H111912   9.119   2.272   9.135
 3890WAT     H211913   9.229   2.239   9.020
 3891WAT      O11914   6.590   9.275   9.003
 3891WAT     H111915   6.678   9.318   8.983
 3891WAT     H211916   6.557   9.306   9.092
 3892WAT      O11917   7.671   9.762   8.272
 3892WAT     H111918   7.665   9.709   8.357
 3892WAT     H211919   7.756   9.740   8.225
 3893WAT      O11920   5.677   0.095   9.172
 3893WAT     H111921   5.617   0.059   9.100
 3893WAT     H211922   5.645   0.064   9.261
 3894WAT      O11923   3.583   8.543   8.094
 3894WAT     H111924   3.623   8.506   8.010
 3894WAT     H211925   3.640   8.618   8.127
 3895WAT      O11926   1.584   7.157   8.673
 3895WAT     H111927   1.669   7.209   8.664
 3895WAT     H211928   1.538   7.183   8.758
 3896WAT      O11929   3.094   8.747   4.917
 3896WAT     H111930   3.147   8.756   4.833
 3896WAT     H211931   3.088   8.650   4.942
 3897WAT      O11932   6.914   3.324   7.898
 3897WAT     H111933   6.816   3.343   7.894
 3897WAT     H211934   6.930   3.242   7.954
 3898WAT      O11935   7.449   0.424   7.737
 3898WAT     H111936   7.442   0.363   7.816
 3898WAT     H211937   7.532   0.402   7.685
 3899WAT      O11938   7.865   4.905   4.291
 3899WAT     H111939   7.938   4.949   4.343
 3899WAT     H211940   7.841   4.818   4.334
 3900WAT      O11941   2.824   5.989   2.227
 3900WAT     H111942   2.870   6.058   2.282
 3900WAT     H211943   2.815   6.021   2.133
 3901WAT      O11944   5.874   6.270   6.602
 3901WAT     H111945   5.963   6.284   6.558
 3901WAT     H211946   5.807   6.332   6.561
 3902WAT      O11947   8.624   1.832   2.268
 3902WAT     H111948   8.705   1.870   2.312
 3902WAT     H211949   8.629   1.732   2.268
 3903WAT      O11950   2.280   0.943   2.687
 3903WAT     H111951   2.181   0.929   2.692
 3903WAT     H211952   2.320   0.879   2.621
 3904WAT      O11953   7.454   1.812   9.346
 3904WAT     H111954   7.471   1.833   9.442
 3904WAT     H211955   7.485   1.887   9.288
 3905WAT      O11956   3.716   9.014   7.895
 3905WAT     H111957   3.755   9.101   7.924
 3905WAT     H211958   3.659   9.029   7.814
 3906WAT      O11959   0.855   9.407   6.875
 3906WAT     H111960   0.854   9.458   6.961
 3906WAT     H211961   0.764   9.371   6.857
 3907WAT      O11962   5.808   4.877   8.973
 3907WAT     H111963   5.759   4.791   8.983
 3907WAT     H211964   5.850   4.882   8.882
 3908WAT      O11965   1.164   3.834   5.294
 3908WAT     H111966   1.148   3.806   5.199
 3908WAT     H211967   1.153   3.756   5.354
 3909WAT      O11968   6.103   6.415   7.465
 3909WAT     H111969   6.065   6.453   7.381
 3909WAT     H211970   6.078   6.473   7.543
 3910WAT      O11971   1.235   0.527   7.247
 3910WAT     H111972   1.241   0.608   7.187
 3910WAT     H211973   1.327   0.491   7.262
 3911WAT      O11974   3.719   3.693   6.425
 3911WAT     H111975   3.671   3.776   6.453
 3911WAT     H211976   3.812   3.717   6.395
 3912WAT      O11977   8.034   6.296   0.367
 3912WAT     H111978   7.982   6.378   0.391
 3912WAT     H211979   7.974   6.228   0.327
 3913WAT      O11980   3.812   9.092   2.438
 3913WAT     H111981   3.885   9.152   2.406
 3913WAT     H211982   3.815   9.007   2.385
 3914WAT      O11983   5.933   6.054   9.436
 3914WAT     H111984   5.922   6.006   9.523
 3914WAT     H211985   6.008   6.013   9.385
 3915WAT      O11986   5.460   6.124   5.168
 3915WAT     H111987   5.471   6.103   5.265
 3915WAT     H211988   5.542   6.096   5.119
 3916WAT      O11989   7.091   6.296   5.293
 3916WAT     H111990   7.076   6.394   5.277
 3916WAT     H211991   7.187   6.274   5.278
 3917WAT      O11992   5.047   6.955   1.645
 3917WAT     H111993   5.060   7.019   1.569
 3917WAT     H211994   5.136   6.922   1.676
 3918WAT      O11995   7.200   0.193   5.963
 3918WAT     H111996   7.141   0.262   5.921
 3918WAT     H211997   7.243   0.232   6.045
 3919WAT      O11998   0.789   8.737   4.811
 3919WAT     H111999   0.846   8.656   4.826
 3919WAT     H212000   0.825   8.789   4.733
 3920WAT      O12001   5.681   9.187   5.498
 3920WAT     H112002   5.635   9.104   5.529
 3920WAT     H212003   5.614   9.258   5.477
 3921WAT      O12004   6.795   7.390   8.738
 3921WAT     H112005   6.734   7.462   8.707
 3921WAT     H212006   6.798   7.317   8.669
 3922WAT      O12007   4.642   0.018   4.337
 3922WAT     H112008   4.681   0.085   4.274
 3922WAT     H212009   4.543   0.012   4.321
 3923WAT      O12010   7.634   2.560   0.469
 3923WAT     H112011   7.717   2.505   0.460
 3923WAT     H212012   7.630   2.628   0.396
 3924WAT      O12013   0.147   0.361   0.602
 3924WAT     H112014   0.066   0.401   0.560
 3924WAT     H212015   0.173   0.278   0.552
 3925WAT      O12016   4.192   3.781   6.745
 3925WAT     H112017   4.201   3.710   6.816
 3925WAT     H212018   4.262   3.767   6.675
 3926WAT      O12019   6.115   1.696   5.482
 3926WAT     H112020   6.149   1.649   5.564
 3926WAT     H212021   6.017   1.710   5.490
 3927WAT      O12022   2.570   0.865   9.283
 3927WAT     H112023   2.610   0.949   9.319
 3927WAT     H212024   2.614   0.785   9.325
 3928WAT      O12025   2.640   9.715   5.531
 3928WAT     H112026   2.642   9.814   5.520
 3928WAT     H212027   2.653   9.692   5.627
 3929WAT      O12028   6.357   9.519   7.546
 3929WAT     H112029   6.415   9.447   7.584
 3929WAT     H212030   6.412   9.599   7.524
 3930WAT      O12031   9.791   8.176   4.638
 3930WAT     H112032   9.792   8.146   4.733
 3930WAT     H212033   9.697   8.192   4.608
 3931WAT      O12034   2.387   0.868   0.920
 3931WAT     H112035   2.320   0.941   0.914
 3931WAT     H212036   2.479   0.907   0.928
 3932WAT      O12037   8.481   6.327   6.262
 3932WAT     H112038   8.577   6.307   6.277
 3932WAT     H212039   8.464   6.338   6.164
 3933WAT      O12040   9.571   6.941   5.541
 3933WAT     H112041   9.547   6.854   5.584
 3933WAT     H212042   9.568   6.931   5.442
 3934WAT      O12043   4.100   3.549   6.519
 3934WAT     H112044   4.004   3.524   6.513
 3934WAT     H212045   4.109   3.648   6.511
 3935WAT      O12046   0.682   9.073   0.421
 3935WAT     H112047   0.584   9.056   0.419
 3935WAT     H212048   0.722   9.049   0.333
 3936WAT      O12049   6.212   2.323   4.760
 3936WAT     H112050   6.189   2.291   4.668
 3936WAT     H212051   6.149   2.283   4.826
 3937WAT      O12052   8.118   5.294   9.143
 3937WAT     H112053   8.057   5.299   9.064
 3937WAT     H212054   8.088   5.358   9.213
 3938WAT      O12055   2.747   8.795   2.689
 3938WAT     H112056   2.792   8.874   2.648
 3938WAT     H212057   2.802   8.713   2.673
 3939WAT      O12058   3.954   2.453   1.809
 3939WAT     H112059   3.864   2.495   1.817
 3939WAT     H212060   4.025   2.519   1.834
 3940WAT      O12061   4.267   5.079   9.533
 3940WAT     H112062   4.238   5.161   9.581
 3940WAT     H212063   4.359   5.053   9.564
 3941WAT      O12064   1.665   4.058   7.851
 3941WAT     H112065   1.644   4.035   7.946
 3941WAT     H212066   1.580   4.080   7.803
 3942WAT      O12067   0.648   7.073   1.120
 3942WAT     H112068   0.596   6.998   1.079
 3942WAT     H212069   0.607   7.160   1.095
 3943WAT      O12070   3.241   7.233   0.821
 3943WAT     H112071   3.283   7.324   0.817
 3943WAT     H212072   3.187   7.217   0.739
 3944WAT      O12073   5.377   5.454   2.357
 3944WAT     H112074   5.377   5.551   2.332
 3944WAT     H212075   5.341   5.444   2.450
 3945WAT      O12076   2.912   3.186   2.236
 3945WAT     H112077   2.915   3.173   2.137
 3945WAT     H212078   2.989   3.243   2.265
 3946WAT      O12079   8.222   1.323   4.309
 3946WAT     H112080   8.258   1.320   4.215
 3946WAT     H212081   8.143   1.263   4.316
 3947WAT      O12082   1.504   1.182   9.656
 3947WAT     H112083   1.567   1.260   9.649
 3947WAT     H212084   1.533   1.110   9.593
 3948WAT      O12085   4.594   4.388   9.885
 3948WAT     H112086   4.620   4.484   9.895
 3948WAT     H212087   4.662   4.331   9.931
 3949WAT      O12088   2.614   6.337   2.195
 3949WAT     H112089   2.649   6.429   2.178
 3949WAT     H212090   2.514   6.338   2.188
 3950WAT      O12091   0.108   7.426   5.184
 3950WAT     H112092   0.184   7.382   5.137
 3950WAT     H212093   0.135   7.518   5.213
 3951WAT      O12094   9.748   5.332   1.406
 3951WAT     H112095   9.675   5.292   1.461
 3951WAT     H212096   9.749   5.431   1.419
 3952WAT      O12097   6.809   1.235   4.980
 3952WAT     H112098   6.780   1.254   5.074
 3952WAT     H212099   6.850   1.318   4.941
 3953WAT      O12100   2.551   5.942   9.619
 3953WAT     H112101   2.609   5.885   9.560
 3953WAT     H212102   2.542   5.899   9.708
 3954WAT      O12103   0.788   9.745   1.865
 3954WAT     H112104   0.878   9.702   1.872
 3954WAT     H212105   0.741   9.711   1.783
 3955WAT      O12106   3.240   6.579   4.784
 3955WAT     H112107   3.231   6.645   4.858
 3955WAT     H212108   3.153   6.568   4.737
 3956WAT      O12109   3.915   1.747   0.560
 3956WAT     H112110   3.963   1.829   0.592
 3956WAT     H212111   3.886   1.693   0.639
 3957WAT      O12112   9.404   6.876   3.749
 3957WAT     H112113   9.431   6.906   3.840
 3957WAT     H212114   9.311   6.905   3.729
 3958WAT      O12115   4.019   4.699   0.650
 3958WAT     H112116   4.084   4.631   0.615
 3958WAT     H212117   4.066   4.757   0.717
 3959WAT      O12118   9.564   1.896   5.716
 3959WAT     H112119   9.612   1.840   5.648
 3959WAT     H212120   9.626   1.915   5.793
 3960WAT      O12121   2.486   5.509   5.154
 3960WAT     H112122   2.489   5.416   5.119
 3960WAT     H212123   2.515   5.572   5.082
 3961WAT      O12124   7.759   8.875   3.653
 3961WAT     H112125   7.849   8.879   3.696
 3961WAT     H212126   7.741   8.782   3.621
 3962WAT      O12127   7.987   5.591   0.704
 3962WAT     H112128   7.978   5.592   0.803
 3962WAT     H212129   8.028   5.678   0.674
 3963WAT      O12130   3.994   2.169   1.781
 3963WAT     H112131   3.943   2.118   1.850
 3963WAT     H212132   3.960   2.262   1.777
 3964WAT      O12133   2.696   7.850   2.638
 3964WAT     H112134   2.660   7.833   2.546
 3964WAT     H212135   2.639   7.803   2.705
 3965WAT      O12136   4.361   2.321   2.762
 3965WAT     H112137   4.429   2.394   2.760
 3965WAT     H212138   4.407   2.233   2.751
 3966WAT      O12139   9.752   8.523   1.718
 3966WAT     H112140   9.674   8.488   1.668
 3966WAT     H212141   9.836   8.480   1.684
 3967WAT      O12142   0.407   5.112   3.568
 3967WAT     H112143   0.477   5.130   3.637
 3967WAT     H212144   0.442   5.138   3.478
 3968WAT      O12145   0.494   8.854   8.625
 3968WAT     H112146   0.496   8.762   8.586
 3968WAT     H212147   0.437   8.854   8.707
 3969WAT      O12148   8.500   4.031   3.610
 3969WAT     H112149   8.581   4.073   3.568
 3969WAT     H212150   8.440   4.102   3.645
 3970WAT      O12151   9.106   6.516   2.671
 3970WAT     H112152   9.113   6.517   2.771
 3970WAT     H212153   9.077   6.606   2.639
 3971WAT      O12154   9.545   3.687   8.606
 3971WAT     H112155   9.553   3.727   8.698
 3971WAT     H212156   9.611   3.613   8.597
 3972WAT      O12157   2.094   2.171   0.617
 3972WAT     H112158   2.174   2.204   0.667
 3972WAT     H212159   2.014   2.174   0.677
 3973WAT      O12160   9.490   8.898   4.774
 3973WAT     H112161   9.544   8.840   4.713
 3973WAT     H212162   9.497   8.863   4.867
 3974WAT      O12163   9.702   8.064   7.622
 3974WAT     H112164   9.720   7.965   7.619
 3974WAT     H212165   9.779   8.113   7.582
 3975WAT      O12166   5.458   8.761   3.611
 3975WAT     H112167   5.459   8.816   3.527
 3975WAT     H212168   5.500   8.812   3.685
 3976WAT      O12169   8.096   9.380   4.700
 3976WAT     H112170   8.051   9.299   4.662
 3976WAT     H212171   8.049   9.463   4.667
 3977WAT      O12172   9.445   1.595   1.634
 3977WAT     H112173   9.447   1.501   1.670
 3977WAT     H212174   9.536   1.635   1.639
 3978WAT      O12175   4.835   4.819   9.640
 3978WAT     H112176   4.856   4.738   9.585
 3978WAT     H212177   4.776   4.881   9.587
 3979WAT      O12178   3.568   4.393   6.465
 3979WAT     H112179   3.539   4.446   6.385
 3979WAT     H212180   3.488   4.359   6.514
 3980WAT      O12181   3.844   0.873   8.368
 3980WAT     H112182   3.765   0.831   8.324
 3980WAT     H212183   3.827   0.882   8.466
 3981WAT      O12184   3.117   9.527   0.687
 3981WAT     H112185   3.162   9.593   0.747
 3981WAT     H212186   3.027   9.562   0.661
 3982WAT      O12187   3.741   2.995   8.651
 3982WAT     H112188   3.690   3.052   8.715
 3982WAT     H212189   3.762   2.907   8.694
 3983WAT      O12190   3.189   3.181   9.760
 3983WAT     H112191   3.129   3.260   9.770
 3983WAT     H212192   3.134   3.100   9.739
 3984WAT      O12193   9.862   4.869   6.737
 3984WAT     H112194   9.777   4.914   6.707
 3984WAT     H212195   9.940   4.929   6.719
 3985WAT      O12196   7.873   7.422   6.066
 3985WAT     H112197   7.949   7.384   6.014
 3985WAT     H212198   7.908   7.465   6.149
 3986WAT      O12199   5.164   1.113   3.992
 3986WAT     H112200   5.209   1.107   3.903
 3986WAT     H212201   5.221   1.166   4.055
 3987WAT      O12202   1.822   0.651   7.926
 3987WAT     H112203   1.723   0.662   7.938
 3987WAT     H212204   1.847   0.556   7.946
 3988WAT      O12205   1.457   8.542   7.245
 3988WAT     H112206   1.385   8.516   7.181
 3988WAT     H212207   1.417   8.572   7.331
 3989WAT      O12208   2.724   0.571   3.571
 3989WAT     H112209   2.648   0.584   3.635
 3989WAT     H212210   2.735   0.653   3.515
 3990WAT      O12211   8.256   2.557   7.102
 3990WAT     H112212   8.255   2.464   7.065
 3990WAT     H212213   8.165   2.581   7.135
 3991WAT      O12214   4.684   1.931   2.376
 3991WAT     H112215   4.620   2.008   2.376
 3991WAT     H212216   4.715   1.914   2.282
 3992WAT      O12217   4.447   4.108   8.728
 3992WAT     H112218   4.487   4.199   8.715
 3992WAT     H212219   4.398   4.081   8.645
 3993WAT      O12220   1.233   4.675   5.804
 3993WAT     H112221   1.149   4.652   5.755
 3993WAT     H212222   1.309   4.621   5.768
 3994WAT      O12223   5.209   8.257   4.890
 3994WAT     H112224   5.177   8.350   4.908
 3994WAT     H212225   5.250   8.253   4.799
 3995WAT      O12226   5.518   6.393   6.024
 3995WAT     H112227   5.593   6.344   5.979
 3995WAT     H212228   5.459   6.434   5.955
 3996WAT      O12229   1.177   0.877   3.365
 3996WAT     H112230   1.214   0.809   3.428
 3996WAT     H212231   1.181   0.841   3.271
 3997WAT      O12232   4.394   3.066   4.394
 3997WAT     H112233   4.490   3.047   4.371
 3997WAT     H212234   4.351   3.113   4.317
 3998WAT      O12235   8.582   5.922   2.360
 3998WAT     H112236   8.652   5.934   2.430
 3998WAT     H212237   8.538   6.010   2.341
 3999WAT      O12238   6.841   0.861   9.074
 3999WAT     H112239   6.836   0.824   9.166
 3999WAT     H212240   6.931   0.901   9.059
 4000WAT      O12241   4.716   3.237   0.138
 4000WAT     H112242   4.701   3.198   0.047
 4000WAT     H212243   4.783   3.311   0.133
 4001WAT      O12244   9.363   7.420   1.301
 4001WAT     H112245   9.295   7.347   1.306
 4001WAT     H212246   9.438   7.400   1.364
 4002WAT      O12247   7.322   9.410   5.037
 4002WAT     H112248   7.292   9.482   5.100
 4002WAT     H212249   7.261   9.332   5.046
 4003WAT      O12250   3.723   1.824   9.545
 4003WAT     H112251   3.769   1.910   9.522
 4003WAT     H212252   3.630   1.825   9.508
 4004WAT      O12253   5.602   8.824   3.190
 4004WAT     H112254   5.512   8.800   3.154
 4004WAT     H212255   5.661   8.854   3.115
 4005WAT      O12256   8.974   1.814   9.169
 4005WAT     H112257   8.881   1.786   9.145
 4005WAT     H212258   9.035   1.799   9.091
 4006WAT      O12259   6.505   5.435   5.834
 4006WAT     H112260   6.486   5.353   5.888
 4006WAT     H212261   6.570   5.493   5.883
 4007WAT      O12262   7.022   1.696   2.228
 4007WAT     H112263   6.997   1.750   2.308
 4007WAT     H212264   7.045   1.603   2.257
 4008WAT      O12265   1.769   4.920   4.909
 4008WAT     H112266   1.835   4.848   4.929
 4008WAT     H212267   1.748   4.920   4.812
 4009WAT      O12268   8.965   9.168   2.445
 4009WAT     H112269   8.991   9.125   2.359
 4009WAT     H212270   8.975   9.101   2.519
 4010WAT      O12271   1.533   1.725   7.918
 4010WAT     H112272   1.558   1.650   7.856
 4010WAT     H212273   1.526   1.689   8.012
 4011WAT      O12274   0.953   0.890   1.666
 4011WAT     H112275   1.008   0.925   1.590
 4011WAT     H212276   0.939   0.791   1.654
 4012WAT      O12277   0.877   1.220   8.677
 4012WAT     H112278   0.935   1.173   8.610
 4012WAT     H212279   0.921   1.306   8.703
 4013WAT      O12280   0.540   4.881   2.024
 4013WAT     H112281   0.444   4.876   1.997
 4013WAT     H212282   0.577   4.789   2.034
 4014WAT      O12283   9.058   7.234   2.103
 4014WAT     H112284   9.008   7.314   2.070
 4014WAT     H212285   8.995   7.168   2.144
 4015WAT      O12286   3.607   8.112   1.739
 4015WAT     H112287   3.653   8.112   1.827
 4015WAT     H212288   3.511   8.134   1.751
 4016WAT      O12289   4.022   8.508   1.395
 4016WAT     H112290   3.985   8.535   1.306
 4016WAT     H212291   3.950   8.465   1.450
 4017WAT      O12292   6.664   8.757   2.215
 4017WAT     H112293   6.566   8.770   2.230
 4017WAT     H212294   6.713   8.842   2.235
 4018WAT      O12295   2.366   4.304   7.462
 4018WAT     H112296   2.315   4.368   7.520
 4018WAT     H212297   2.451   4.279   7.508
 4019WAT      O12298   7.064   7.220   2.744
 4019WAT     H112299   7.150   7.269   2.760
 4019WAT     H212300   7.067   7.176   2.654
 4020WAT      O12301   5.240   6.652   8.064
 4020WAT     H112302   5.289   6.566   8.074
 4020WAT     H212303   5.194   6.654   7.976
 4021WAT      O12304   6.749   4.025   1.617
 4021WAT     H112305   6.733   4.050   1.713
 4021WAT     H212306   6.711   4.095   1.557
 4022WAT      O12307   6.913   2.332   1.439
 4022WAT     H112308   6.931   2.236   1.421
 4022WAT     H212309   6.881   2.376   1.355
 4023WAT      O12310   6.788   0.978   2.876
 4023WAT     H112311   6.867   0.919   2.889
 4023WAT     H212312   6.704   0.925   2.889
 4024WAT      O12313   6.770   9.776   2.360
 4024WAT     H112314   6.734   9.721   2.436
 4024WAT     H212315   6.768   9.873   2.384
 4025WAT      O12316   0.770   0.645   9.372
 4025WAT     H112317   0.864   0.660   9.340
 4025WAT     H212318   0.758   0.691   9.461
 4026WAT      O12319   5.647   5.167   7.058
 4026WAT     H112320   5.739   5.187   7.023
 4026WAT     H212321   5.579   5.192   6.990
 4027WAT      O12322   2.621   1.460   6.153
 4027WAT     H112323   2.551   1.412   6.099
 4027WAT     H212324   2.669   1.526   6.095
 4028WAT      O12325   7.813   3.600   3.078
 4028WAT     H112326   7.743   3.637   3.140
 4028WAT     H212327   7.851   3.516   3.117
 4029WAT      O12328   0.578   6.005   1.390
 4029WAT     H112329   0.644   5.952   1.444
 4029WAT     H212330   0.578   6.100   1.421
 4030WAT      O12331   8.266   8.696   1.405
 4030WAT     H112332   8.261   8.785   1.360
 4030WAT     H212333   8.312   8.630   1.345
 4031WAT      O12334   4.234   1.415   2.052
 4031WAT     H112335   4.243   1.329   2.002
 4031WAT     H212336   4.309   1.476   2.026
 4032WAT      O12337   5.519   2.337   1.229
 4032WAT     H112338   5.491   2.429   1.258
 4032WAT     H212339   5.479   2.269   1.290
 4033WAT      O12340   0.680   1.243   7.960
 4033WAT     H112341   0.703   1.275   8.052
 4033WAT     H212342   0.647   1.319   7.905
 4034WAT      O12343   0.555   9.764   5.288
 4034WAT     H112344   0.614   9.684   5.275
 4034WAT     H212345   0.462   9.734   5.308
 4035WAT      O12346   2.888   3.514   0.143
 4035WAT     H112347   2.891   3.486   0.239
 4035WAT     H212348   2.884   3.614   0.138
 4036WAT      O12349   4.136   0.188   6.208
 4036WAT     H112350   4.172   0.266   6.156
 4036WAT     H212351   4.095   0.221   6.293
 4037WAT      O12352   1.700   0.594   3.990
 4037WAT     H112353   1.709   0.634   4.081
 4037WAT     H212354   1.765   0.519   3.980
 4038WAT      O12355   1.962   5.043   5.851
 4038WAT     H112356   1.954   4.967   5.916
 4038WAT     H212357   1.927   5.014   5.762
 4039WAT      O12358   4.778   6.749   8.747
 4039WAT     H112359   4.791   6.794   8.835
 4039WAT     H212360   4.780   6.650   8.759
 4040WAT      O12361   9.171   8.472   3.702
 4040WAT     H112362   9.123   8.552   3.667
 4040WAT     H212363   9.109   8.418   3.759
 4041WAT      O12364   5.425   9.565   8.078
 4041WAT     H112365   5.359   9.639   8.087
 4041WAT     H212366   5.380   9.478   8.097
 4042WAT      O12367   2.648   7.404   7.255
 4042WAT     H112368   2.636   7.412   7.354
 4042WAT     H212369   2.575   7.454   7.209
 4043WAT      O12370   0.277   5.698   5.041
 4043WAT     H112371   0.243   5.685   4.948
 4043WAT     H212372   0.248   5.788   5.074
 4044WAT      O12373   2.615   0.314   2.798
 4044WAT     H112374   2.539   0.335   2.736
 4044WAT     H212375   2.659   0.229   2.768
 4045WAT      O12376   6.212   0.138   4.725
 4045WAT     H112377   6.248   0.044   4.732
 4045WAT     H212378   6.113   0.135   4.711
 4046WAT      O12379   4.180   6.609   6.044
 4046WAT     H112380   4.262   6.572   6.086
 4046WAT     H212381   4.103   6.599   6.107
 4047WAT      O12382   2.460   1.181   9.574
 4047WAT     H112383   2.505   1.129   9.501
 4047WAT     H212384   2.527   1.238   9.621
 4048WAT      O12385   3.690   5.165   0.285
 4048WAT     H112386   3.668   5.150   0.189
 4048WAT     H212387   3.782   5.205   0.291
 4049WAT      O12388   6.606   6.937   2.682
 4049WAT     H112389   6.661   6.900   2.756
 4049WAT     H212390   6.573   7.028   2.707
 4050WAT      O12391   2.263   2.571   2.013
 4050WAT     H112392   2.274   2.608   1.921
 4050WAT     H212393   2.294   2.638   2.080
 4051WAT      O12394   3.131   2.482   7.729
 4051WAT     H112395   3.078   2.525   7.802
 4051WAT     H212396   3.145   2.386   7.751
 4052WAT      O12397   7.823   1.080   2.203
 4052WAT     H112398   7.899   1.041   2.152
 4052WAT     H212399   7.826   1.047   2.297
 4053WAT      O12400   3.630   9.641   8.178
 4053WAT     H112401   3.578   9.655   8.094
 4053WAT     H212402   3.595   9.561   8.226
 4054WAT      O12403   0.299   3.291   9.307
 4054WAT     H112404   0.202   3.267   9.309
 4054WAT     H212405   0.309   3.389   9.325
 4055WAT      O12406   3.783   0.631   5.138
 4055WAT     H112407   3.715   0.559   5.157
 4055WAT     H212408   3.868   0.608   5.185
 4056WAT      O12409   6.178   9.391   4.005
 4056WAT     H112410   6.101   9.363   4.063
 4056WAT     H212411   6.153   9.472   3.953
 4057WAT      O12412   5.361   6.433   6.828
 4057WAT     H112413   5.349   6.532   6.822
 4057WAT     H212414   5.459   6.413   6.837
 4058WAT      O12415   9.416   4.576   9.484
 4058WAT     H112416   9.427   4.668   9.520
 4058WAT     H212417   9.505   4.532   9.477
 4059WAT      O12418   2.804   8.225   1.103
 4059WAT     H112419   2.833   8.317   1.076
 4059WAT     H212420   2.810   8.164   1.024
 4060WAT      O12421   7.991   7.616   6.235
 4060WAT     H112422   7.945   7.665   6.309
 4060WAT     H212423   8.066   7.671   6.199
 4061WAT      O12424   4.563   3.041   0.785
 4061WAT     H112425   4.569   2.979   0.707
 4061WAT     H212426   4.527   3.129   0.756
 4062WAT      O12427   1.093   3.179   0.668
 4062WAT     H112428   1.068   3.132   0.753
 4062WAT     H212429   1.177   3.233   0.684
 4063WAT      O12430   9.055   2.234   6.407
 4063WAT     H112431   9.144   2.189   6.395
 4063WAT     H212432   8.981   2.169   6.392
 4064WAT      O12433   5.377   7.425   4.495
 4064WAT     H112434   5.311   7.370   4.545
 4064WAT     H212435   5.457   7.442   4.553
 4065WAT      O12436   9.636   2.718   0.167
 4065WAT     H112437   9.683   2.787   0.221
 4065WAT     H212438   9.683   2.706   0.080
 4066WAT      O12439   2.184   7.895   7.347
 4066WAT     H112440   2.096   7.855   7.372
 4066WAT     H212441   2.233   7.924   7.430
 4067WAT      O12442   9.376   2.252   5.065
 4067WAT     H112443   9.394   2.304   5.148
 4067WAT     H212444   9.458   2.203   5.038
 4068WAT      O12445   1.478   6.048   0.463
 4068WAT     H112446   1.383   6.036   0.491
 4068WAT     H212447   1.518   5.958   0.442
 4069WAT      O12448   2.821   9.521   5.441
 4069WAT     H112449   2.749   9.590   5.438
 4069WAT     H212450   2.907   9.562   5.471
 4070WAT      O12451   9.402   2.443   4.251
 4070WAT     H112452   9.335   2.507   4.288
 4070WAT     H212453   9.494   2.480   4.263
 4071WAT      O12454   0.998   6.809   9.681
 4071WAT     H112455   1.035   6.896   9.713
 4071WAT     H212456   0.949   6.763   9.755
 4072WAT      O12457   6.305   0.421   2.115
 4072WAT     H112458   6.322   0.478   2.195
 4072WAT     H212459   6.390   0.411   2.063
 4073WAT      O12460   1.638   2.754   2.458
 4073WAT     H112461   1.713   2.711   2.507
 4073WAT     H212462   1.610   2.696   2.382
 4074WAT      O12463   5.278   0.133   3.155
 4074WAT     H112464   5.249   0.039   3.176
 4074WAT     H212465   5.349   0.131   3.085
 4075WAT      O12466   8.531   4.114   7.782
 4075WAT     H112467   8.622   4.156   7.778
 4075WAT     H212468   8.500   4.111   7.877
 4076WAT      O12469   2.124   8.741   0.792
 4076WAT     H112470   2.053   8.788   0.845
 4076WAT     H212471   2.084   8.661   0.747
 4077WAT      O12472   7.866   9.576   2.007
 4077WAT     H112473   7.873   9.676   2.006
 4077WAT     H212474   7.800   9.548   2.077
 4078WAT      O12475   3.733   4.547   2.994
 4078WAT     H112476   3.786   4.467   3.022
 4078WAT     H212477   3.785   4.599   2.927
 4079WAT      O12478   6.336   3.623   8.419
 4079WAT     H112479   6.401   3.620   8.495
 4079WAT     H212480   6.347   3.541   8.364
 4080WAT      O12481   7.085   8.885   0.341
 4080WAT     H112482   7.113   8.978   0.363
 4080WAT     H212483   7.039   8.845   0.420
 4081WAT      O12484   5.016   7.358   7.251
 4081WAT     H112485   4.949   7.364   7.176
 4081WAT     H212486   5.071   7.441   7.253
 4082WAT      O12487   8.455   2.810   3.184
 4082WAT     H112488   8.425   2.896   3.144
 4082WAT     H212489   8.549   2.819   3.216
 4083WAT      O12490   9.387   2.283   0.354
 4083WAT     H112491   9.293   2.253   0.371
 4083WAT     H212492   9.392   2.333   0.268
 4084WAT      O12493   3.914   6.588   8.341
 4084WAT     H112494   3.836   6.532   8.367
 4084WAT     H212495   3.976   6.535   8.283
 4085WAT      O12496   5.047   6.992   6.127
 4085WAT     H112497   5.016   6.991   6.032
 4085WAT     H212498   4.986   6.935   6.182
 4086WAT      O12499   0.861   7.017   6.171
 4086WAT     H112500   0.949   6.973   6.188
 4086WAT     H212501   0.876   7.107   6.131
 4087WAT      O12502   0.882   7.791   7.341
 4087WAT     H112503   0.917   7.735   7.266
 4087WAT     H212504   0.935   7.875   7.347
 4088WAT      O12505   4.488   9.293   4.061
 4088WAT     H112506   4.491   9.251   4.152
 4088WAT     H212507   4.535   9.234   3.996
 4089WAT      O12508   4.040   2.628   9.336
 4089WAT     H112509   4.084   2.698   9.392
 4089WAT     H212510   3.941   2.637   9.343
 4090WAT      O12511   0.914   5.336   3.832
 4090WAT     H112512   0.966   5.252   3.846
 4090WAT     H212513   0.857   5.354   3.912
 4091WAT      O12514   7.911   9.591   3.528
 4091WAT     H112515   7.843   9.518   3.537
 4091WAT     H212516   7.994   9.566   3.577
 4092WAT      O12517   3.727   4.482   4.196
 4092WAT     H112518   3.818   4.462   4.231
 4092WAT     H212519   3.664   4.409   4.222
 4093WAT      O12520   0.876   9.753   0.843
 4093WAT     H112521   0.970   9.730   0.866
 4093WAT     H212522   0.871   9.849   0.813
 4094WAT      O12523   1.384   0.362   2.539
 4094WAT     H112524   1.409   0.359   2.442
 4094WAT     H212525   1.329   0.442   2.557
 4095WAT      O12526   2.116   8.197   8.757
 4095WAT     H112527   2.182   8.214   8.830
 4095WAT     H212528   2.049   8.272   8.753
 4096WAT      O12529   7.174   3.832   5.108
 4096WAT     H112530   7.103   3.801   5.172
 4096WAT     H212531   7.140   3.911   5.057
 4097WAT      O12532   4.171   5.995   0.963
 4097WAT     H112533   4.087   6.045   0.942
 4097WAT     H212534   4.217   6.039   1.041
 4098WAT      O12535   9.775   5.269   8.711
 4098WAT     H112536   9.848   5.334   8.689
 4098WAT     H212537   9.705   5.272   8.639
 4099WAT      O12538   9.798   5.774   6.015
 4099WAT     H112539   9.794   5.869   6.045
 4099WAT     H212540   9.717   5.754   5.959
 4100WAT      O12541   2.840   7.947   9.807
 4100WAT     H112542   2.748   7.956   9.768
 4100WAT     H212543   2.901   8.015   9.764
 4101WAT      O12544   5.328   4.466   8.439
 4101WAT     H112545   5.416   4.511   8.429
 4101WAT     H212546   5.320   4.426   8.531
 4102WAT      O12547   7.216   8.648   7.408
 4102WAT     H112548   7.217   8.695   7.320
 4102WAT     H212549   7.309   8.627   7.436
 4103WAT      O12550   6.317   8.186   3.398
 4103WAT     H112551   6.308   8.276   3.357
 4103WAT     H212552   6.226   8.146   3.410
 4104WAT      O12553   6.624   9.456   4.230
 4104WAT     H112554   6.644   9.418   4.140
 4104WAT     H212555   6.652   9.392   4.301
 4105WAT      O12556   4.031   1.876   3.196
 4105WAT     H112557   4.078   1.797   3.157
 4105WAT     H212558   4.076   1.902   3.281
 4106WAT      O12559   8.086   2.123   8.726
 4106WAT     H112560   8.182   2.141   8.747
 4106WAT     H212561   8.061   2.170   8.642
 4107WAT      O12562   3.666   0.027   2.156
 4107WAT     H112563   3.744   0.019   2.218
 4107WAT     H212564   3.686   0.095   2.086
 4108WAT      O12565   3.750   4.293   7.947
 4108WAT     H112566   3.727   4.345   7.865
 4108WAT     H212567   3.849   4.278   7.951
 4109WAT      O12568   7.887   7.929   9.362
 4109WAT     H112569   7.827   7.851   9.347
 4109WAT     H212570   7.836   8.003   9.406
 4110WAT      O12571   9.173   2.147   6.125
 4110WAT     H112572   9.174   2.087   6.045
 4110WAT     H212573   9.106   2.220   6.109
 4111WAT      O12574   5.346   6.582   7.197
 4111WAT     H112575   5.346   6.598   7.295
 4111WAT     H212576   5.284   6.507   7.175
 4112WAT      O12577   2.622   2.166   5.679
 4112WAT     H112578   2.665   2.166   5.769
 4112WAT     H212579   2.595   2.073   5.655
 4113WAT      O12580   4.109   6.438   8.223
 4113WAT     H112581   4.139   6.508   8.159
 4113WAT     H212582   4.108   6.349   8.177
 4114WAT      O12583   2.606   5.007   8.303
 4114WAT     H112584   2.544   4.946   8.352
 4114WAT     H212585   2.620   4.972   8.210
 4115WAT      O12586   1.309   7.423   3.186
 4115WAT     H112587   1.227   7.472   3.156
 4115WAT     H212588   1.386   7.450   3.127
 4116WAT      O12589   7.169   9.261   1.540
 4116WAT     H112590   7.176   9.300   1.448
 4116WAT     H212591   7.183   9.163   1.536
 4117WAT      O12592   5.626   8.394   6.304
 4117WAT     H112593   5.627   8.321   6.235
 4117WAT     H212594   5.568   8.469   6.271
 4118WAT      O12595   0.717   0.178   9.867
 4118WAT     H112596   0.670   0.228   9.795
 4118WAT     H212597   0.649   0.136   9.928
 4119WAT      O12598   0.965   2.970   8.816
 4119WAT     H112599   0.903   2.997   8.742
 4119WAT     H212600   1.059   2.969   8.782
 4120WAT      O12601   6.507   6.174   5.994
 4120WAT     H112602   6.487   6.112   5.918
 4120WAT     H212603   6.513   6.121   6.079
 4121WAT      O12604  -0.005   7.613   6.704
 4121WAT     H112605   0.006   7.517   6.675
 4121WAT     H212606   0.083   7.660   6.693
 4122WAT      O12607   9.315   8.845   1.644
 4122WAT     H112608   9.300   8.881   1.736
 4122WAT     H212609   9.327   8.921   1.580
 4123WAT      O12610   6.564   5.476   3.249
 4123WAT     H112611   6.594   5.523   3.331
 4123WAT     H212612   6.590   5.528   3.168
 4124WAT      O12613   4.844   8.907   3.517
 4124WAT     H112614   4.938   8.893   3.550
 4124WAT     H212615   4.841   8.989   3.460
 4125WAT      O12616   9.305   2.376   3.015
 4125WAT     H112617   9.362   2.375   3.097
 4125WAT     H212618   9.321   2.292   2.962
 4126WAT      O12619   1.602   9.265   1.742
 4126WAT     H112620   1.584   9.269   1.643
 4126WAT     H212621   1.623   9.357   1.775
 4127WAT      O12622   8.993   3.183   8.903
 4127WAT     H112623   8.974   3.086   8.918
 4127WAT     H212624   8.918   3.238   8.939
 4128WAT      O12625   6.419   0.689   8.625
 4128WAT     H112626   6.510   0.690   8.583
 4128WAT     H212627   6.418   0.750   8.704
 4129WAT      O12628   9.173   3.918   2.599
 4129WAT     H112629   9.258   3.885   2.640
 4129WAT     H212630   9.191   3.953   2.507
 4130WAT      O12631   1.226   8.052   2.741
 4130WAT     H112632   1.213   7.978   2.808
 4130WAT     H212633   1.264   8.132   2.788
 4131WAT      O12634   3.098   4.469   0.055
 4131WAT     H112635   3.126   4.405   0.126
 4131WAT     H212636   3.174   4.530   0.033
 4132WAT      O12637   9.394   5.015   5.570
 4132WAT     H112638   9.399   5.056   5.479
 4132WAT     H212639   9.347   5.078   5.632
 4133WAT      O12640   9.646   0.863   3.224
 4133WAT     H112641   9.641   0.824   3.316
 4133WAT     H212642   9.703   0.945   3.226
 4134WAT      O12643   2.833   5.784   5.169
 4134WAT     H112644   2.781   5.867   5.150
 4134WAT     H212645   2.853   5.778   5.267
 4135WAT      O12646   3.655   7.603   8.014
 4135WAT     H112647   3.584   7.548   8.058
 4135WAT     H212648   3.740   7.595   8.065
 4136WAT      O12649   4.213   2.726   7.923
 4136WAT     H112650   4.122   2.696   7.952
 4136WAT     H212651   4.234   2.815   7.963
 4137WAT      O12652   3.546   3.505   3.464
 4137WAT     H112653   3.606   3.438   3.506
 4137WAT     H212654   3.601   3.581   3.428
 4138WAT      O12655   4.813   5.610   7.047
 4138WAT     H112656   4.881   5.682   7.034
 4138WAT     H212657   4.745   5.615   6.974
 4139WAT      O12658   4.944   7.534   0.939
 4139WAT     H112659   5.024   7.591   0.919
 4139WAT     H212660   4.927   7.533   1.037
 4140WAT      O12661   5.047   2.597   9.794
 4140WAT     H112662   4.968   2.542   9.766
 4140WAT     H212663   5.069   2.663   9.722
 4141WAT      O12664   6.348   6.513   5.436
 4141WAT     H112665   6.412   6.467   5.498
 4141WAT     H212666   6.267   6.456   5.423
 4142WAT      O12667   5.535   1.731   1.554
 4142WAT     H112668   5.527   1.717   1.456
 4142WAT     H212669   5.458   1.787   1.586
 4143WAT      O12670   5.782   9.713   9.815
 4143WAT     H112671   5.812   9.789   9.756
 4143WAT     H212672   5.779   9.744   9.910
 4144WAT      O12673   9.848   5.891   4.929
 4144WAT     H112674   9.802   5.974   4.899
 4144WAT     H212675   9.940   5.913   4.961
 4145WAT      O12676   2.191   3.242   6.129
 4145WAT     H112677   2.103   3.202   6.100
 4145WAT     H212678   2.180   3.340   6.143
 4146WAT      O12679   2.379   5.313   5.548
 4146WAT     H112680   2.450   5.307   5.619
 4146WAT     H212681   2.289   5.304   5.590
 4147WAT      O12682   1.544   8.692   9.510
 4147WAT     H112683   1.596   8.634   9.573
 4147WAT     H212684   1.516   8.639   9.430
 4148WAT      O12685   4.534   9.585   3.178
 4148WAT     H112686   4.518   9.680   3.152
 4148WAT     H212687   4.473   9.526   3.124
 4149WAT      O12688   2.003   0.214   6.882
 4149WAT     H112689   2.057   0.295   6.906
 4149WAT     H212690   1.940   0.193   6.958
 4150WAT      O12691   7.510   5.777   8.362
 4150WAT     H112692   7.488   5.685   8.330
 4150WAT     H212693   7.442   5.806   8.430
 4151WAT      O12694   3.072   2.458   8.037
 4151WAT     H112695   3.019   2.388   7.990
 4151WAT     H212696   3.051   2.456   8.135
 4152WAT      O12697   0.603   6.219   2.535
 4152WAT     H112698   0.540   6.144   2.552
 4152WAT     H212699   0.623   6.225   2.438
 4153WAT      O12700   4.910   4.688   1.090
 4153WAT     H112701   4.911   4.685   1.190
 4153WAT     H212702   4.840   4.753   1.060
 4154WAT      O12703   4.513   7.879   5.323
 4154WAT     H112704   4.543   7.973   5.336
 4154WAT     H212705   4.577   7.832   5.262
 4155WAT      O12706   8.789   7.334   6.049
 4155WAT     H112707   8.725   7.259   6.062
 4155WAT     H212708   8.742   7.411   6.006
 4156WAT      O12709   1.504   5.902   7.168
 4156WAT     H112710   1.560   5.821   7.186
 4156WAT     H212711   1.408   5.879   7.181
 4157WAT      O12712   0.266   6.215   4.130
 4157WAT     H112713   0.192   6.244   4.192
 4157WAT     H212714   0.268   6.277   4.052
 4158WAT      O12715   9.726   5.600   6.464
 4158WAT     H112716   9.773   5.688   6.477
 4158WAT     H212717   9.781   5.526   6.502
 4159WAT      O12718   4.972   1.515   6.354
 4159WAT     H112719   4.992   1.435   6.411
 4159WAT     H212720   4.983   1.598   6.408
 4160WAT      O12721   2.647   1.826   2.646
 4160WAT     H112722   2.606   1.882   2.718
 4160WAT     H212723   2.732   1.786   2.681
 4161WAT      O12724   5.580   0.938   5.469
 4161WAT     H112725   5.639   1.018   5.455
 4161WAT     H212726   5.546   0.939   5.563
 4162WAT      O12727   8.088   8.152   9.725
 4162WAT     H112728   8.072   8.186   9.818
 4162WAT     H212729   8.034   8.206   9.661
 4163WAT      O12730   5.671   8.850   5.876
 4163WAT     H112731   5.726   8.919   5.923
 4163WAT     H212732   5.715   8.826   5.789
 4164WAT      O12733   1.640   7.790   7.760
 4164WAT     H112734   1.558   7.735   7.755
 4164WAT     H212735   1.720   7.735   7.735
 4165WAT      O12736   0.070   2.124   7.914
 4165WAT     H112737   0.129   2.184   7.859
 4165WAT     H212738   0.034   2.050   7.857
 4166WAT      O12739   3.036   5.076   7.223
 4166WAT     H112740   3.031   5.158   7.280
 4166WAT     H212741   2.988   5.093   7.137
 4167WAT      O12742   7.354   8.150   9.307
 4167WAT     H112743   7.383   8.107   9.393
 4167WAT     H212744   7.286   8.093   9.263
 4168WAT      O12745   0.494   4.849   8.541
 4168WAT     H112746   0.490   4.948   8.530
 4168WAT     H212747   0.555   4.826   8.617
 4169WAT      O12748   0.537   9.159   4.662
 4169WAT     H112749   0.569   9.214   4.584
 4169WAT     H212750   0.494   9.076   4.628
 4170WAT      O12751   6.960   0.665   1.486
 4170WAT     H112752   7.016   0.735   1.531
 4170WAT     H212753   6.935   0.595   1.552
 4171WAT      O12754   4.598   9.165   3.844
 4171WAT     H112755   4.644   9.080   3.819
 4171WAT     H212756   4.499   9.151   3.840
 4172WAT      O12757   4.728   7.493   1.970
 4172WAT     H112758   4.633   7.524   1.969
 4172WAT     H212759   4.783   7.555   1.914
 4173WAT      O12760   1.971   6.284   7.988
 4173WAT     H112761   2.021   6.213   8.037
 4173WAT     H212762   1.872   6.268   7.999
 4174WAT      O12763   0.596   2.281   6.264
 4174WAT     H112764   0.693   2.258   6.269
 4174WAT     H212765   0.586   2.378   6.243
 4175WAT      O12766   2.061   7.080   9.092
 4175WAT     H112767   2.002   7.087   9.012
 4175WAT     H212768   2.119   7.161   9.098
 4176WAT      O12769   8.978   8.135   3.492
 4176WAT     H112770   8.958   8.181   3.405
 4176WAT     H212771   8.892   8.111   3.537
 4177WAT      O12772   5.128   7.036   7.963
 4177WAT     H112773   5.103   6.979   8.041
 4177WAT     H212774   5.068   7.014   7.886
 4178WAT      O12775   0.556   1.164   8.696
 4178WAT     H112776   0.483   1.099   8.676
 4178WAT     H212777   0.636   1.115   8.731
 4179WAT      O12778   1.943   4.427   7.034
 4179WAT     H112779   2.037   4.457   7.021
 4179WAT     H212780   1.883   4.507   7.039
 4180WAT      O12781   0.731   9.633   7.519
 4180WAT     H112782   0.638   9.670   7.511
 4180WAT     H212783   0.728   9.534   7.505
 4181WAT      O12784   6.149   5.912   1.129
 4181WAT     H112785   6.166   5.877   1.221
 4181WAT     H212786   6.191   5.852   1.061
 4182WAT      O12787   7.655   5.927   3.417
 4182WAT     H112788   7.579   5.923   3.482
 4182WAT     H212789   7.733   5.971   3.461
 4183WAT      O12790   4.143   9.432   5.919
 4183WAT     H112791   4.081   9.440   5.997
 4183WAT     H212792   4.212   9.504   5.924
 4184WAT      O12793   4.364   9.829   4.890
 4184WAT     H112794   4.355   9.737   4.851
 4184WAT     H212795   4.341   9.825   4.988
 4185WAT      O12796   4.648   6.119   4.874
 4185WAT     H112797   4.691   6.195   4.922
 4185WAT     H212798   4.548   6.128   4.880
 4186WAT      O12799   5.018   7.855   5.237
 4186WAT     H112800   5.057   7.911   5.310
 4186WAT     H212801   4.978   7.772   5.277
 4187WAT      O12802   5.124   7.449   1.822
 4187WAT     H112803   5.197   7.440   1.755
 4187WAT     H212804   5.111   7.545   1.846
 4188WAT      O12805   6.034   7.373   4.124
 4188WAT     H112806   6.073   7.389   4.215
 4188WAT     H212807   6.086   7.424   4.056
 4189WAT      O12808   0.093   2.467   5.587
 4189WAT     H112809   0.055   2.496   5.675
 4189WAT     H212810   0.115   2.547   5.531
 4190WAT      O12811   2.476   6.462   1.267
 4190WAT     H112812   2.407   6.532   1.252
 4190WAT     H212813   2.546   6.468   1.195
 4191WAT      O12814   3.454   2.799   7.093
 4191WAT     H112815   3.388   2.776   7.022
 4191WAT     H212816   3.405   2.824   7.177
 4192WAT      O12817   1.863   8.245   0.106
 4192WAT     H112818   1.920   8.320   0.074
 4192WAT     H212819   1.860   8.173   0.036
 4193WAT      O12820   2.174   4.225   4.346
 4193WAT     H112821   2.110   4.264   4.280
 4193WAT     H212822   2.144   4.249   4.439
 4194WAT      O12823   3.752   2.500   5.194
 4194WAT     H112824   3.680   2.547   5.144
 4194WAT     H212825   3.793   2.563   5.261
 4195WAT      O12826   5.358   3.795   8.722
 4195WAT     H112827   5.375   3.699   8.742
 4195WAT     H212828   5.421   3.826   8.650
 4196WAT      O12829   5.507   9.030   2.011
 4196WAT     H112830   5.442   9.050   1.937
 4196WAT     H212831   5.571   9.106   2.021
 4197WAT      O12832   1.490   2.201   9.461
 4197WAT     H112833   1.404   2.158   9.430
 4197WAT     H212834   1.563   2.181   9.396
 4198WAT      O12835   2.728   3.382   5.952
 4198WAT     H112836   2.679   3.352   6.034
 4198WAT     H212837   2.702   3.325   5.874
 4199WAT      O12838   7.623   3.278   1.745
 4199WAT     H112839   7.648   3.284   1.842
 4199WAT     H212840   7.662   3.195   1.706
 4200WAT      O12841   8.466   9.066   8.450
 4200WAT     H112842   8.473   9.140   8.383
 4200WAT     H212843   8.430   8.984   8.406
 4201WAT      O12844   0.911   4.262   0.681
 4201WAT     H112845   0.918   4.284   0.583
 4201WAT     H212846   0.972   4.185   0.702
 4202WAT      O12847   7.958   1.745   3.080
 4202WAT     H112848   8.027   1.815   3.101
 4202WAT     H212849   7.902   1.729   3.161
 4203WAT      O12850   1.998   2.279   2.253
 4203WAT     H112851   2.076   2.336   2.229
 4203WAT     H212852   1.944   2.323   2.325
 4204WAT      O12853   8.872   6.217   6.709
 4204WAT     H112854   8.912   6.172   6.790
 4204WAT     H212855   8.935   6.287   6.676
 4205WAT      O12856   9.034   1.522   0.453
 4205WAT     H112857   9.017   1.527   0.354
 4205WAT     H212858   9.089   1.601   0.481
 4206WAT      O12859   1.315   4.017   8.582
 4206WAT     H112860   1.266   4.093   8.539
 4206WAT     H212861   1.285   4.008   8.677
 4207WAT      O12862   7.180   5.889   3.393
 4207WAT     H112863   7.138   5.972   3.430
 4207WAT     H212864   7.138   5.809   3.436
 4208WAT      O12865   8.347   6.888   5.808
 4208WAT     H112866   8.325   6.805   5.859
 4208WAT     H212867   8.387   6.864   5.719
 4209WAT      O12868   5.865   3.286   8.214
 4209WAT     H112869   5.931   3.310   8.285
 4209WAT     H212870   5.790   3.353   8.214
 4210WAT      O12871   7.074   4.798   5.316
 4210WAT     H112872   7.005   4.743   5.269
 4210WAT     H212873   7.032   4.881   5.353
 4211WAT      O12874   1.088   0.390   1.180
 4211WAT     H112875   1.123   0.301   1.152
 4211WAT     H212876   1.014   0.378   1.246
 4212WAT      O12877   3.196   9.423   9.858
 4212WAT     H112878   3.264   9.351   9.847
 4212WAT     H212879   3.219   9.479   9.938
 4213WAT      O12880   2.314   3.481   3.394
 4213WAT     H112881   2.227   3.442   3.422
 4213WAT     H212882   2.357   3.527   3.472
 4214WAT      O12883   0.787   4.328   1.215
 4214WAT     H112884   0.728   4.340   1.135
 4214WAT     H212885   0.830   4.238   1.211
 4215WAT      O12886   1.498   2.129   1.424
 4215WAT     H112887   1.518   2.163   1.332
 4215WAT     H212888   1.411   2.078   1.422
 4216WAT      O12889   5.325   8.100   0.859
 4216WAT     H112890   5.320   8.196   0.886
 4216WAT     H212891   5.391   8.053   0.918
 4217WAT      O12892   7.555   7.598   8.582
 4217WAT     H112893   7.594   7.524   8.638
 4217WAT     H212894   7.625   7.666   8.563
 4218WAT      O12895   6.956   7.065   1.517
 4218WAT     H112896   6.962   7.152   1.566
 4218WAT     H212897   6.860   7.044   1.499
 4219WAT      O12898   2.860   6.506   0.771
 4219WAT     H112899   2.924   6.435   0.800
 4219WAT     H212900   2.898   6.596   0.796
 4220WAT      O12901   7.739   7.587   3.651
 4220WAT     H112902   7.830   7.550   3.670
 4220WAT     H212903   7.723   7.586   3.552
 4221WAT      O12904   7.368   4.396   5.804
 4221WAT     H112905   7.373   4.496   5.803
 4221WAT     H212906   7.273   4.367   5.791
 4222WAT      O12907   8.684   9.313   1.351
 4222WAT     H112908   8.730   9.385   1.402
 4222WAT     H212909   8.593   9.298   1.390
 4223WAT      O12910   8.389   3.746   2.466
 4223WAT     H112911   8.393   3.835   2.513
 4223WAT     H212912   8.439   3.753   2.380
 4224WAT      O12913   3.242   3.389   4.398
 4224WAT     H112914   3.289   3.408   4.312
 4224WAT     H212915   3.152   3.352   4.379
 4225WAT      O12916   9.013   9.112   4.777
 4225WAT     H112917   9.102   9.086   4.739
 4225WAT     H212918   9.019   9.202   4.818
 4226WAT      O12919   1.051   7.149   2.047
 4226WAT     H112920   0.998   7.075   2.087
 4226WAT     H212921   1.098   7.116   1.965
 4227WAT      O12922   6.465   2.989   1.594
 4227WAT     H112923   6.447   3.050   1.517
 4227WAT     H212924   6.547   2.936   1.576
 4228WAT      O12925   3.482   0.738   6.684
 4228WAT     H112926   3.570   0.740   6.732
 4228WAT     H212927   3.497   0.723   6.586
 4229WAT      O12928   1.211   4.911   8.459
 4229WAT     H112929   1.192   4.993   8.406
 4229WAT     H212930   1.254   4.937   8.546
 4230WAT      O12931   5.950   6.605   7.962
 4230WAT     H112932   5.992   6.689   7.928
 4230WAT     H212933   6.021   6.543   7.995
 4231WAT      O12934   6.005   5.687   1.481
 4231WAT     H112935   6.080   5.750   1.460
 4231WAT     H212936   6.043   5.600   1.511
 4232WAT      O12937   1.201   4.722   0.419
 4232WAT     H112938   1.261   4.800   0.439
 4232WAT     H212939   1.157   4.692   0.504
 4233WAT      O12940   0.857   6.042   5.991
 4233WAT     H112941   0.883   6.135   6.017
 4233WAT     H212942   0.928   6.003   5.933
 4234WAT      O12943   1.597   7.163   5.382
 4234WAT     H112944   1.619   7.071   5.414
 4234WAT     H212945   1.564   7.160   5.288
 4235WAT      O12946   7.104   6.753   2.612
 4235WAT     H112947   7.078   6.843   2.575
 4235WAT     H212948   7.026   6.713   2.660
 4236WAT      O12949   3.276   1.707   3.089
 4236WAT     H112950   3.326   1.788   3.060
 4236WAT     H212951   3.252   1.716   3.186
 4237WAT      O12952   5.536   2.800   1.570
 4237WAT     H112953   5.539   2.788   1.669
 4237WAT     H212954   5.618   2.850   1.540
 4238WAT      O12955   0.681   5.106   0.467
 4238WAT     H112956   0.691   5.205   0.466
 4238WAT     H212957   0.771   5.063   0.470
 4239WAT      O12958   9.223   0.311   2.923
 4239WAT     H112959   9.175   0.223   2.917
 4239WAT     H212960   9.177   0.379   2.865
 4240WAT      O12961   5.565   5.912   8.689
 4240WAT     H112962   5.494   5.944   8.627
 4240WAT     H212963   5.549   5.815   8.711
 4241WAT      O12964   6.525   8.658   6.777
 4241WAT     H112965   6.472   8.719   6.719
 4241WAT     H212966   6.539   8.701   6.867
 4242WAT      O12967   3.930   3.258   4.986
 4242WAT     H112968   3.971   3.187   4.928
 4242WAT     H212969   3.891   3.216   5.068
 4243WAT      O12970   0.929   0.843   0.314
 4243WAT     H112971   0.887   0.932   0.331
 4243WAT     H212972   0.859   0.772   0.313
 4244WAT      O12973   4.706   6.069   8.191
 4244WAT     H112974   4.625   6.114   8.228
 4244WAT     H212975   4.691   6.045   8.095
 4245WAT      O12976   9.476   6.856   8.349
 4245WAT     H112977   9.422   6.928   8.306
 4245WAT     H212978   9.560   6.895   8.386
 4246WAT      O12979   6.001   4.043   3.208
 4246WAT     H112980   5.956   4.099   3.277
 4246WAT     H212981   6.062   4.101   3.153
 4247WAT      O12982   4.346   7.547   2.757
 4247WAT     H112983   4.305   7.481   2.694
 4247WAT     H212984   4.423   7.505   2.805
 4248WAT      O12985   9.114   1.733   6.598
 4248WAT     H112986   9.132   1.825   6.632
 4248WAT     H212987   9.024   1.729   6.555
 4249WAT      O12988   5.727   7.574   8.862
 4249WAT     H112989   5.648   7.518   8.887
 4249WAT     H212990   5.803   7.553   8.924
 4250WAT      O12991   0.820   2.020   0.097
 4250WAT     H112992   0.779   2.019   0.005
 4250WAT     H212993   0.757   1.976   0.161
 4251WAT      O12994   8.877   3.616   1.052
 4251WAT     H112995   8.831   3.628   0.964
 4251WAT     H212996   8.817   3.566   1.115
 4252WAT      O12997   3.613   0.562   7.034
 4252WAT     H112998   3.599   0.511   7.119
 4252WAT     H212999   3.645   0.654   7.056
 4253WAT      O13000   5.359   0.510   8.676
 4253WAT     H113001   5.417   0.467   8.746
 4253WAT     H213002   5.379   0.608   8.673
 4254WAT      O13003   7.741   8.745   5.989
 4254WAT     H113004   7.805   8.770   5.917
 4254WAT     H213005   7.654   8.715   5.949
 4255WAT      O13006   8.799   5.253   1.177
 4255WAT     H113007   8.778   5.163   1.215
 4255WAT     H213008   8.877   5.246   1.115
 4256WAT      O13009   6.491   0.018   3.069
 4256WAT     H113010   6.398   0.055   3.063
 4256WAT     H213011   6.489  -0.081   3.058
 4257WAT      O13012   1.154   9.198   6.886
 4257WAT     H113013   1.185   9.153   6.802
 4257WAT     H213014   1.165   9.297   6.877
 4258WAT      O13015   0.102   8.342   9.151
 4258WAT     H113016   0.136   8.431   9.119
 4258WAT     H213017   0.025   8.357   9.214
 4259WAT      O13018   8.585   7.323   1.426
 4259WAT     H113019   8.626   7.273   1.350
 4259WAT     H213020   8.594   7.269   1.510
 4260WAT      O13021   2.578   5.756   9.164
 4260WAT     H113022   2.482   5.729   9.160
 4260WAT     H213023   2.628   5.713   9.089
 4261WAT      O13024   1.193   0.661   0.778
 4261WAT     H113025   1.190   0.564   0.803
 4261WAT     H213026   1.204   0.716   0.860
 4262WAT      O13027   4.333   2.807   9.668
 4262WAT     H113028   4.351   2.868   9.745
 4262WAT     H213029   4.419   2.769   9.633
 4263WAT      O13030   6.206   4.665   0.425
 4263WAT     H113031   6.196   4.724   0.505
 4263WAT     H213032   6.158   4.706   0.347
 4264WAT      O13033   2.861   0.148   3.370
 4264WAT     H113034   2.829   0.241   3.388
 4264WAT     H213035   2.950   0.134   3.415
 4265WAT      O13036   9.204   6.577   5.859
 4265WAT     H113037   9.161   6.667   5.865
 4265WAT     H213038   9.240   6.551   5.949
 4266WAT      O13039   2.988   2.345   8.265
 4266WAT     H113040   2.906   2.396   8.292
 4266WAT     H213041   2.963   2.272   8.201
 4267WAT      O13042   2.137   4.847   5.141
 4267WAT     H113043   2.233   4.846   5.113
 4267WAT     H213044   2.131   4.827   5.239
 4268WAT      O13045   5.053   9.405   0.842
 4268WAT     H113046   5.091   9.409   0.749
 4268WAT     H213047   4.954   9.405   0.837
 4269WAT      O13048   1.737   2.874   3.110
 4269WAT     H113049   1.769   2.967   3.128
 4269WAT     H213050   1.806   2.808   3.143
 4270WAT      O13051   4.256   8.486   1.207
 4270WAT     H113052   4.209   8.525   1.128
 4270WAT     H213053   4.211   8.401   1.235
 4271WAT      O13054   0.038   8.910   7.582
 4271WAT     H113055   0.048   8.934   7.678
 4271WAT     H213056   0.127   8.917   7.537
 4272WAT      O13057   9.758   5.454   7.764
 4272WAT     H113058   9.798   5.478   7.853
 4272WAT     H213059   9.832   5.442   7.697
 4273WAT      O13060   6.504   7.460   3.497
 4273WAT     H113061   6.443   7.416   3.563
 4273WAT     H213062   6.507   7.404   3.413
 4274WAT      O13063   0.764   8.396   8.465
 4274WAT     H113064   0.715   8.404   8.378
 4274WAT     H213065   0.785   8.487   8.500
 4275WAT      O13066   5.697   5.018   7.556
 4275WAT     H113067   5.685   5.115   7.575
 4275WAT     H213068   5.620   4.985   7.501
 4276WAT      O13069   6.028   0.110   0.451
 4276WAT     H113070   6.055   0.056   0.370
 4276WAT     H213071   5.930   0.130   0.447
 4277WAT      O13072   2.730   2.719   0.833
 4277WAT     H113073   2.691   2.802   0.793
 4277WAT     H213074   2.662   2.674   0.891
 4278WAT      O13075   8.334   4.700   8.573
 4278WAT     H113076   8.345   4.792   8.610
 4278WAT     H213077   8.350   4.633   8.644
 4279WAT      O13078   4.097   2.494   5.381
 4279WAT     H113079   4.122   2.456   5.292
 4279WAT     H213080   4.176   2.487   5.442
 4280WAT      O13081   4.123   1.250   3.525
 4280WAT     H113082   4.221   1.234   3.540
 4280WAT     H213083   4.099   1.224   3.431
 4281WAT      O13084   4.104   1.328   0.030
 4281WAT     H113085   4.100   1.344  -0.068
 4281WAT     H213086   4.118   1.231   0.048
 4282WAT      O13087   3.672   4.546   6.762
 4282WAT     H113088   3.640   4.514   6.851
 4282WAT     H213089   3.620   4.501   6.690
 4283WAT      O13090   3.172   2.094   9.753
 4283WAT     H113091   3.179   2.076   9.655
 4283WAT     H213092   3.210   2.185   9.773
 4284WAT      O13093   6.317   1.113   8.811
 4284WAT     H113094   6.339   1.016   8.820
 4284WAT     H213095   6.334   1.160   8.897
 4285WAT      O13096   1.447   1.472   8.450
 4285WAT     H113097   1.474   1.563   8.482
 4285WAT     H213098   1.520   1.432   8.396
 4286WAT      O13099   7.559   3.669   2.103
 4286WAT     H113100   7.506   3.585   2.118
 4286WAT     H213101   7.594   3.702   2.191
 4287WAT      O13102   6.714   4.746   3.160
 4287WAT     H113103   6.644   4.763   3.089
 4287WAT     H213104   6.687   4.792   3.244
 4288WAT      O13105   2.138   7.020   6.759
 4288WAT     H113106   2.048   7.062   6.765
 4288WAT     H213107   2.200   7.062   6.825
 4289WAT      O13108   4.606   7.513   1.341
 4289WAT     H113109   4.649   7.504   1.431
 4289WAT     H213110   4.566   7.425   1.315
 4290WAT      O13111   1.268   1.966   8.172
 4290WAT     H113112   1.350   1.981   8.228
 4290WAT     H213113   1.188   1.960   8.232
 4291WAT      O13114   0.881   7.199   9.705
 4291WAT     H113115   0.795   7.207   9.757
 4291WAT     H213116   0.944   7.138   9.753
 4292WAT      O13117   1.707   1.386   0.193
 4292WAT     H113118   1.703   1.309   0.129
 4292WAT     H213119   1.758   1.461   0.151
 4293WAT      O13120   4.710   0.272   6.502
 4293WAT     H113121   4.728   0.177   6.527
 4293WAT     H213122   4.749   0.333   6.571
 4294WAT      O13123   5.342   5.814   6.484
 4294WAT     H113124   5.302   5.740   6.430
 4294WAT     H213125   5.434   5.834   6.450
 4295WAT      O13126   1.762   7.199   6.205
 4295WAT     H113127   1.693   7.128   6.218
 4295WAT     H213128   1.784   7.241   6.294
 4296WAT      O13129   1.990   1.426   3.643
 4296WAT     H113130   1.964   1.426   3.546
 4296WAT     H213131   1.916   1.466   3.697
 4297WAT      O13132   6.225   0.138   6.012
 4297WAT     H113133   6.185   0.101   6.095
 4297WAT     H213134   6.325   0.131   6.017
 4298WAT      O13135   8.599   2.265   3.935
 4298WAT     H113136   8.561   2.247   4.025
 4298WAT     H213137   8.691   2.305   3.945
 4299WAT      O13138   6.409   1.133   6.287
 4299WAT     H113139   6.475   1.059   6.293
 4299WAT     H213140   6.321   1.098   6.255
 4300WAT      O13141   2.820   4.589   2.913
 4300WAT     H113142   2.731   4.586   2.868
 4300WAT     H213143   2.891   4.570   2.845
 4301WAT      O13144   4.609   8.327   6.828
 4301WAT     H113145   4.630   8.377   6.912
 4301WAT     H213146   4.511   8.306   6.825
 4302WAT      O13147   2.821   6.553   0.349
 4302WAT     H113148   2.844   6.487   0.421
 4302WAT     H213149   2.884   6.630   0.354
 4303WAT      O13150   4.053   4.769   5.497
 4303WAT     H113151   4.001   4.790   5.415
 4303WAT     H213152   3.991   4.751   5.573
 4304WAT      O13153   1.725   5.084   8.396
 4304WAT     H113154   1.679   5.055   8.480
 4304WAT     H213155   1.711   5.182   8.383
 4305WAT      O13156   1.218   4.177   0.983
 4305WAT     H113157   1.190   4.135   0.896
 4305WAT     H213158   1.272   4.111   1.036
 4306WAT      O13159   0.195   4.824   0.279
 4306WAT     H113160   0.123   4.805   0.346
 4306WAT     H213161   0.183   4.764   0.200
 4307WAT      O13162   3.151   2.446   6.017
 4307WAT     H113163   3.188   2.368   6.068
 4307WAT     H213164   3.219   2.477   5.951
 4308WAT      O13165   4.820   3.696   2.423
 4308WAT     H113166   4.756   3.770   2.446
 4308WAT     H213167   4.883   3.682   2.499
 4309WAT      O13168   7.608   5.946   9.312
 4309WAT     H113169   7.611   5.922   9.215
 4309WAT     H213170   7.533   5.897   9.356
 4310WAT      O13171   2.196   2.796   0.185
 4310WAT     H113172   2.280   2.745   0.205
 4310WAT     H213173   2.212   2.858   0.108
 4311WAT      O13174   7.122   4.582   0.348
 4311WAT     H113175   7.181   4.555   0.425
 4311WAT     H213176   7.055   4.510   0.330
 4312WAT      O13177   6.888   4.493   8.231
 4312WAT     H113178   6.868   4.588   8.207
 4312WAT     H213179   6.815   4.458   8.290
 4313WAT      O13180   0.248   7.515   1.700
 4313WAT     H113181   0.180   7.572   1.653
 4313WAT     H213182   0.339   7.534   1.663
 4314WAT      O13183   3.783   8.786   9.211
 4314WAT     H113184   3.693   8.762   9.249
 4314WAT     H213185   3.804   8.725   9.135
 4315WAT      O13186   8.406   7.717   6.676
 4315WAT     H113187   8.498   7.677   6.674
 4315WAT     H213188   8.365   7.710   6.585
 4316WAT      O13189   1.514   0.837   4.119
 4316WAT     H113190   1.576   0.882   4.183
 4316WAT     H213191   1.508   0.740   4.141
 4317WAT      O13192   7.339   7.426   2.309
 4317WAT     H113193   7.320   7.507   2.364
 4317WAT     H213194   7.255   7.372   2.298
 4318WAT      O13195   0.190   3.455   8.873
 4318WAT     H113196   0.098   3.415   8.875
 4318WAT     H213197   0.258   3.384   8.896
 4319WAT      O13198   6.494   2.953   4.721
 4319WAT     H113199   6.412   2.897   4.735
 4319WAT     H213200   6.481   3.010   4.640
 4320WAT      O13201   3.127   3.480   2.699
 4320WAT     H113202   3.158   3.385   2.688
 4320WAT     H213203   3.035   3.489   2.661
 4321WAT      O13204   5.173   2.152   6.276
 4321WAT     H113205   5.179   2.218   6.200
 4321WAT     H213206   5.080   2.115   6.280
 4322WAT      O13207   5.123   5.485   7.190
 4322WAT     H113208   5.028   5.455   7.197
 4322WAT     H213209   5.162   5.451   7.104
 4323WAT      O13210   2.361   3.416   2.397
 4323WAT     H113211   2.351   3.329   2.445
 4323WAT     H213212   2.447   3.417   2.347
 4324WAT      O13213   4.180   3.357   6.362
 4324WAT     H113214   4.159   3.435   6.421
 4324WAT     H213215   4.174   3.272   6.416
 4325WAT      O13216   4.555   4.679   9.399
 4325WAT     H113217   4.456   4.676   9.409
 4325WAT     H213218   4.585   4.774   9.392
 4326WAT      O13219   7.345   3.207   7.623
 4326WAT     H113220   7.363   3.202   7.721
 4326WAT     H213221   7.424   3.174   7.572
 4327WAT      O13222   7.860   8.562   1.499
 4327WAT     H113223   7.762   8.582   1.489
 4327WAT     H213224   7.871   8.470   1.536
 4328WAT      O13225   9.518   8.784   5.738
 4328WAT     H113226   9.531   8.695   5.782
 4328WAT     H213227   9.473   8.772   5.649
 4329WAT      O13228   3.792   5.657   3.848
 4329WAT     H113229   3.737   5.639   3.930
 4329WAT     H213230   3.882   5.690   3.876
 4330WAT      O13231   7.663   4.236   6.815
 4330WAT     H113232   7.593   4.219   6.745
 4330WAT     H213233   7.752   4.248   6.771
 4331WAT      O13234   7.593   2.365   7.559
 4331WAT     H113235   7.621   2.374   7.655
 4331WAT     H213236   7.613   2.272   7.527
 4332WAT      O13237   4.132   2.213   5.431
 4332WAT     H113238   4.064   2.224   5.358
 4332WAT     H213239   4.125   2.290   5.495
 4333WAT      O13240   2.210   0.222   8.068
 4333WAT     H113241   2.169   0.150   8.012
 4333WAT     H213242   2.299   0.190   8.102
 4334WAT      O13243   0.198   6.688   2.871
 4334WAT     H113244   0.200   6.700   2.771
 4334WAT     H213245   0.270   6.623   2.897
 4335WAT      O13246   2.093   5.319   1.446
 4335WAT     H113247   2.042   5.254   1.503
 4335WAT     H213248   2.029   5.384   1.406
 4336WAT      O13249   9.472   5.097   3.880
 4336WAT     H113250   9.431   5.093   3.972
 4336WAT     H213251   9.515   5.009   3.860
 4337WAT      O13252   8.342   4.830   8.332
 4337WAT     H113253   8.356   4.774   8.414
 4337WAT     H213254   8.335   4.926   8.358
 4338WAT      O13255   0.630   6.939   3.438
 4338WAT     H113256   0.727   6.966   3.438
 4338WAT     H213257   0.582   6.987   3.511
 4339WAT      O13258   5.454   3.408   1.198
 4339WAT     H113259   5.361   3.396   1.163
 4339WAT     H213260   5.454   3.393   1.297
 4340WAT      O13261   4.023   3.381   1.619
 4340WAT     H113262   3.961   3.352   1.691
 4340WAT     H213263   4.118   3.368   1.648
 4341WAT      O13264   1.292   1.208   3.922
 4341WAT     H113265   1.292   1.111   3.946
 4341WAT     H213266   1.355   1.257   3.983
 4342WAT      O13267   3.806   4.611   1.384
 4342WAT     H113268   3.758   4.533   1.344
 4342WAT     H213269   3.836   4.588   1.476
 4343WAT      O13270   6.203   3.721   7.331
 4343WAT     H113271   6.230   3.814   7.304
 4343WAT     H213272   6.221   3.708   7.428
 4344WAT      O13273   0.226   0.928   1.982
 4344WAT     H113274   0.246   0.867   1.904
 4344WAT     H213275   0.201   0.873   2.061
 4345WAT      O13276   0.180   1.386   1.870
 4345WAT     H113277   0.118   1.319   1.912
 4345WAT     H213278   0.267   1.387   1.920
 4346WAT      O13279   2.797   1.075   8.204
 4346WAT     H113280   2.849   1.111   8.126
 4346WAT     H213281   2.811   0.976   8.210
 4347WAT      O13282   3.403   2.945   7.601
 4347WAT     H113283   3.313   2.980   7.628
 4347WAT     H213284   3.441   2.889   7.674
 4348WAT      O13285   2.731   9.779   1.413
 4348WAT     H113286   2.752   9.876   1.429
 4348WAT     H213287   2.663   9.771   1.341
 4349WAT      O13288   4.465   5.078   8.597
 4349WAT     H113289   4.387   5.139   8.586
 4349WAT     H213290   4.503   5.054   8.507
 4350WAT      O13291   7.300   7.539   4.845
 4350WAT     H113292   7.319   7.441   4.852
 4350WAT     H213293   7.324   7.571   4.753
 4351WAT      O13294   8.758   8.896   4.615
 4351WAT     H113295   8.837   8.928   4.563
 4351WAT     H213296   8.746   8.797   4.602
 4352WAT      O13297   6.117   6.860   3.661
 4352WAT     H113298   6.212   6.829   3.666
 4352WAT     H213299   6.087   6.888   3.752
 4353WAT      O13300   5.150   5.842   5.751
 4353WAT     H113301   5.102   5.756   5.769
 4353WAT     H213302   5.136   5.904   5.828
 4354WAT      O13303   2.108   1.882   8.282
 4354WAT     H113304   2.039   1.933   8.231
 4354WAT     H213305   2.194   1.934   8.282
 4355WAT      O13306   0.884   6.425   7.654
 4355WAT     H113307   0.923   6.507   7.695
 4355WAT     H213308   0.878   6.436   7.555
 4356WAT      O13309   9.563   9.507   0.117
 4356WAT     H113310   9.541   9.411   0.133
 4356WAT     H213311   9.662   9.517   0.105
 4357WAT      O13312   7.762   1.274   7.993
 4357WAT     H113313   7.700   1.271   8.072
 4357WAT     H213314   7.828   1.200   8.001
 4358WAT      O13315   9.698   8.901   3.606
 4358WAT     H113316   9.690   8.927   3.702
 4358WAT     H213317   9.753   8.969   3.558
 4359WAT      O13318   0.251   3.089   3.061
 4359WAT     H113319   0.305   3.028   3.003
 4359WAT     H213320   0.312   3.150   3.111
 4360WAT      O13321   6.020   6.500   4.653
 4360WAT     H113322   5.983   6.490   4.745
 4360WAT     H213323   5.973   6.574   4.605
 4361WAT      O13324   5.377   5.202   8.352
 4361WAT     H113325   5.423   5.290   8.338
 4361WAT     H213326   5.387   5.174   8.447
 4362WAT      O13327   5.426   5.749   3.292
 4362WAT     H113328   5.388   5.736   3.201
 4362WAT     H213329   5.442   5.847   3.308
 4363WAT      O13330   3.123   5.216   2.776
 4363WAT     H113331   3.059   5.196   2.850
 4363WAT     H213332   3.188   5.286   2.806
 4364WAT      O13333   0.245   3.016   6.556
 4364WAT     H113334   0.158   3.046   6.594
 4364WAT     H213335   0.301   3.096   6.533
 4365WAT      O13336   1.706   3.490   3.513
 4365WAT     H113337   1.748   3.581   3.518
 4365WAT     H213338   1.656   3.471   3.598
 4366WAT      O13339   1.863   4.388   9.396
 4366WAT     H113340   1.922   4.311   9.372
 4366WAT     H213341   1.888   4.467   9.340
 4367WAT      O13342   4.247   7.086   4.384
 4367WAT     H113343   4.314   7.137   4.330
 4367WAT     H213344   4.288   7.061   4.472
 4368WAT      O13345   9.759   6.029   6.072
 4368WAT     H113346   9.746   6.058   5.977
 4368WAT     H213347   9.671   6.027   6.119
 4369WAT      O13348   9.808   8.592   0.137
 4369WAT     H113349   9.720   8.546   0.151
 4369WAT     H213350   9.873   8.528   0.095
 4370WAT      O13351   6.309   6.786   1.347
 4370WAT     H113352   6.289   6.795   1.444
 4370WAT     H213353   6.224   6.780   1.295
 4371WAT      O13354   7.777   5.262   1.327
 4371WAT     H113355   7.823   5.257   1.416
 4371WAT     H213356   7.814   5.192   1.266
 4372WAT      O13357   2.178   1.064   8.909
 4372WAT     H113358   2.103   1.129   8.896
 4372WAT     H213359   2.234   1.061   8.827
 4373WAT      O13360   6.301   8.052   7.848
 4373WAT     H113361   6.356   7.975   7.817
 4373WAT     H213362   6.224   8.066   7.786
 4374WAT      O13363   6.188   8.504   7.721
 4374WAT     H113364   6.258   8.452   7.770
 4374WAT     H213365   6.130   8.442   7.669
 4375WAT      O13366   7.238   5.576   6.608
 4375WAT     H113367   7.193   5.495   6.570
 4375WAT     H213368   7.249   5.565   6.706
 4376WAT      O13369   4.302   2.510   4.135
 4376WAT     H113370   4.208   2.475   4.133
 4376WAT     H213371   4.345   2.486   4.222
 4377WAT      O13372   1.348   4.869   4.972
 4377WAT     H113373   1.391   4.780   4.957
 4377WAT     H213374   1.328   4.911   4.883
 4378WAT      O13375   9.432   6.288   6.048
 4378WAT     H113376   9.507   6.228   6.019
 4378WAT     H213377   9.468   6.377   6.074
 4379WAT      O13378   5.534   6.806   5.806
 4379WAT     H113379   5.552   6.836   5.713
 4379WAT     H213380   5.469   6.868   5.850
 4380WAT      O13381   3.306   3.973   8.938
 4380WAT     H113382   3.300   3.946   9.034
 4380WAT     H213383   3.214   3.994   8.903
 4381WAT      O13384   1.350   6.440   4.340
 4381WAT     H113385   1.378   6.436   4.436
 4381WAT     H213386   1.424   6.405   4.283
 4382WAT      O13387   2.779   0.476   7.322
 4382WAT     H113388   2.816   0.394   7.366
 4382WAT     H213389   2.680   0.479   7.334
 4383WAT      O13390   2.374   2.384   6.711
 4383WAT     H113391   2.383   2.306   6.649
 4383WAT     H213392   2.279   2.413   6.716
 4384WAT      O13393   8.263   2.194   1.095
 4384WAT     H113394   8.289   2.181   0.999
 4384WAT     H213395   8.164   2.183   1.104
 4385WAT      O13396   5.203   4.725   3.223
 4385WAT     H113397   5.290   4.721   3.175
 4385WAT     H213398   5.158   4.636   3.218
 4386WAT      O13399   0.666   0.235   9.322
 4386WAT     H113400   0.627   0.303   9.385
 4386WAT     H213401   0.592   0.181   9.282
 4387WAT      O13402   5.274   5.415   2.592
 4387WAT     H113403   5.282   5.415   2.692
 4387WAT     H213404   5.178   5.408   2.566
 4388WAT      O13405   6.560   1.309   1.670
 4388WAT     H113406   6.544   1.398   1.628
 4388WAT     H213407   6.638   1.315   1.733
 4389WAT      O13408   9.776   1.025   5.833
 4389WAT     H113409   9.742   1.023   5.739
 4389WAT     H213410   9.861   0.973   5.839
 4390WAT      O13411   9.792   4.994   5.345
 4390WAT     H113412   9.787   4.933   5.266
 4390WAT     H213413   9.764   4.943   5.427
 4391WAT      O13414   7.083   4.712   6.524
 4391WAT     H113415   6.995   4.669   6.503
 4391WAT     H213416   7.092   4.797   6.472
 4392WAT      O13417   2.559   6.186   2.720
 4392WAT     H113418   2.629   6.115   2.711
 4392WAT     H213419   2.525   6.211   2.629
 4393WAT      O13420   4.756   8.705   7.657
 4393WAT     H113421   4.665   8.664   7.648
 4393WAT     H213422   4.826   8.635   7.641
 4394WAT      O13423   6.653   6.423   7.499
 4394WAT     H113424   6.569   6.386   7.458
 4394WAT     H213425   6.723   6.431   7.429
 4395WAT      O13426   2.897   8.821   1.952
 4395WAT     H113427   2.967   8.766   1.906
 4395WAT     H213428   2.859   8.769   2.029
 4396WAT      O13429   5.279   1.311   9.875
 4396WAT     H113430   5.378   1.312   9.889
 4396WAT     H213431   5.256   1.367   9.795
 4397WAT      O13432   0.655   4.362   8.518
 4397WAT     H113433   0.580   4.302   8.492
 4397WAT     H213434   0.646   4.449   8.470
 4398WAT      O13435   3.133   0.622   3.728
 4398WAT     H113436   3.212   0.642   3.786
 4398WAT     H213437   3.150   0.655   3.636
 4399WAT      O13438   9.585   5.220   7.973
 4399WAT     H113439   9.642   5.139   7.960
 4399WAT     H213440   9.611   5.267   8.057
 4400WAT      O13441   4.270   4.197   9.801
 4400WAT     H113442   4.180   4.168   9.768
 4400WAT     H213443   4.340   4.134   9.769
 4401WAT      O13444   5.820   7.112   3.544
 4401WAT     H113445   5.797   7.173   3.468
 4401WAT     H213446   5.777   7.023   3.529
 4402WAT      O13447   8.429   6.534   0.960
 4402WAT     H113448   8.350   6.589   0.934
 4402WAT     H213449   8.497   6.593   1.003
 4403WAT      O13450   0.215   8.329   4.941
 4403WAT     H113451   0.288   8.345   5.007
 4403WAT     H213452   0.243   8.364   4.851
 4404WAT      O13453   9.324   5.575   9.396
 4404WAT     H113454   9.317   5.578   9.296
 4404WAT     H213455   9.342   5.667   9.431
 4405WAT      O13456   5.927   9.568   4.141
 4405WAT     H113457   5.907   9.475   4.172
 4405WAT     H213458   5.843   9.621   4.139
 4406WAT      O13459   1.099   0.677   4.780
 4406WAT     H113460   0.999   0.671   4.785
 4406WAT     H213461   1.126   0.714   4.691
 4407WAT      O13462   9.040   5.744   5.371
 4407WAT     H113463   9.057   5.653   5.410
 4407WAT     H213464   9.125   5.796   5.371
 4408WAT      O13465   9.860   2.647   0.041
 4408WAT     H113466   9.878   2.560   0.087
 4408WAT     H213467   9.868   2.722   0.107
 4409WAT      O13468   5.014   0.075   5.317
 4409WAT     H113469   4.920   0.109   5.319
 4409WAT     H213470   5.065   0.112   5.394
 4410WAT      O13471   0.221   6.768   6.812
 4410WAT     H113472   0.278   6.781   6.730
 4410WAT     H213473   0.141   6.828   6.807
 4411WAT      O13474   1.422   1.674   6.403
 4411WAT     H113475   1.327   1.704   6.414
 4411WAT     H213476   1.436   1.587   6.451
 4412WAT      O13477   5.029   5.606   0.550
 4412WAT     H113478   5.114   5.560   0.525
 4412WAT     H213479   5.023   5.612   0.650
 4413WAT      O13480   8.435   8.626   0.422
 4413WAT     H113481   8.387   8.574   0.494
 4413WAT     H213482   8.532   8.633   0.445
 4414WAT      O13483   1.709   0.649   7.357
 4414WAT     H113484   1.681   0.613   7.268
 4414WAT     H213485   1.635   0.706   7.394
 4415WAT      O13486   6.655   8.612   0.608
 4415WAT     H113487   6.642   8.536   0.672
 4415WAT     H213488   6.665   8.575   0.516
 4416WAT      O13489   1.646   5.851   8.903
 4416WAT     H113490   1.709   5.927   8.889
 4416WAT     H213491   1.564   5.866   8.848
 4417WAT      O13492   8.474   8.310   4.956
 4417WAT     H113493   8.507   8.404   4.946
 4417WAT     H213494   8.375   8.310   4.968
 4418WAT      O13495   6.968   9.125   4.704
 4418WAT     H113496   6.869   9.112   4.691
 4418WAT     H213497   7.015   9.039   4.686
 4419WAT      O13498   2.185   5.320   8.009
 4419WAT     H113499   2.131   5.272   7.940
 4419WAT     H213500   2.275   5.276   8.016
 4420WAT      O13501   4.231   1.616   7.243
 4420WAT     H113502   4.190   1.560   7.315
 4420WAT     H213503   4.192   1.708   7.247
 4421WAT      O13504   3.806   8.796   5.046
 4421WAT     H113505   3.804   8.810   4.947
 4421WAT     H213506   3.793   8.884   5.092
 4422WAT      O13507   2.257   6.939   1.349
 4422WAT     H113508   2.352   6.910   1.354
 4422WAT     H213509   2.243   6.994   1.266
 4423WAT      O13510   6.886   7.114   2.262
 4423WAT     H113511   6.889   7.056   2.180
 4423WAT     H213512   6.860   7.058   2.341
 4424WAT      O13513   4.146   4.137   9.507
 4424WAT     H113514   4.064   4.156   9.561
 4424WAT     H213515   4.121   4.132   9.410
 4425WAT      O13516   9.347   8.849   9.762
 4425WAT     H113517   9.296   8.794   9.696
 4425WAT     H213518   9.432   8.881   9.720
 4426WAT      O13519   5.482   5.219   8.989
 4426WAT     H113520   5.538   5.153   9.038
 4426WAT     H213521   5.391   5.180   8.973
 4427WAT      O13522   5.321   8.182   2.314
 4427WAT     H113523   5.347   8.271   2.276
 4427WAT     H213524   5.291   8.121   2.240
 4428WAT      O13525   0.473   2.104   4.489
 4428WAT     H113526   0.571   2.102   4.473
 4428WAT     H213527   0.444   2.198   4.507
 4429WAT      O13528   9.200   8.423   0.295
 4429WAT     H113529   9.156   8.337   0.269
 4429WAT     H213530   9.297   8.406   0.314
 4430WAT      O13531   6.109   4.291   3.859
 4430WAT     H113532   6.010   4.306   3.863
 4430WAT     H213533   6.126   4.193   3.844
 4431WAT      O13534   0.514   7.599   8.409
 4431WAT     H113535   0.457   7.634   8.483
 4431WAT     H213536   0.584   7.538   8.447
 4432WAT      O13537   7.273   6.760   0.873
 4432WAT     H113538   7.301   6.839   0.928
 4432WAT     H213539   7.223   6.696   0.931
 4433WAT      O13540   3.829   4.305   5.374
 4433WAT     H113541   3.781   4.221   5.401
 4433WAT     H213542   3.923   4.300   5.406
 4434WAT      O13543   4.185   6.804   6.663
 4434WAT     H113544   4.087   6.825   6.654
 4434WAT     H213545   4.237   6.864   6.603
 4435WAT      O13546   5.251   4.629   3.866
 4435WAT     H113547   5.328   4.645   3.928
 4435WAT     H213548   5.170   4.603   3.918
 4436WAT      O13549   0.193   9.659   7.116
 4436WAT     H113550   0.146   9.716   7.048
 4436WAT     H213551   0.292   9.671   7.107
 4437WAT      O13552   7.307   2.095   7.506
 4437WAT     H113553   7.334   2.185   7.472
 4437WAT     H213554   7.333   2.085   7.602
 4438WAT      O13555   5.033   8.572   5.966
 4438WAT     H113556   4.996   8.571   5.873
 4438WAT     H213557   5.128   8.543   5.966
 4439WAT      O13558   2.944   2.835   9.113
 4439WAT     H113559   2.862   2.881   9.079
 4439WAT     H213560   3.025   2.882   9.079
 4440WAT      O13561   5.854   2.665   5.447
 4440WAT     H113562   5.756   2.665   5.431
 4440WAT     H213563   5.900   2.719   5.377
 4441WAT      O13564   9.462   1.368   1.727
 4441WAT     H113565   9.417   1.278   1.732
 4441WAT     H213566   9.561   1.356   1.734
 4442WAT      O13567   8.713   5.993   5.825
 4442WAT     H113568   8.785   6.005   5.894
 4442WAT     H213569   8.736   6.045   5.743
 4443WAT      O13570   6.951   3.241   5.597
 4443WAT     H113571   6.986   3.328   5.563
 4443WAT     H213572   6.890   3.257   5.674
 4444WAT      O13573   8.465   8.104   4.806
 4444WAT     H113574   8.444   8.127   4.711
 4444WAT     H213575   8.479   8.188   4.858
 4445WAT      O13576   8.693   9.656   0.866
 4445WAT     H113577   8.632   9.646   0.787
 4445WAT     H213578   8.780   9.695   0.837
 4446WAT      O13579   2.005   4.254   3.887
 4446WAT     H113580   2.067   4.328   3.915
 4446WAT     H213581   2.037   4.215   3.801
 4447WAT      O13582   0.071   3.245   5.686
 4447WAT     H113583  -0.011   3.242   5.743
 4447WAT     H213584   0.067   3.323   5.625
 4448WAT      O13585   5.747   0.995   0.590
 4448WAT     H113586   5.652   0.967   0.600
 4448WAT     H213587   5.805   0.937   0.647
 4449WAT      O13588   3.048   9.495   2.073
 4449WAT     H113589   3.025   9.590   2.094
 4449WAT     H213590   3.145   9.487   2.052
 4450WAT      O13591   3.639   5.741   5.128
 4450WAT     H113592   3.584   5.689   5.194
 4450WAT     H213593   3.585   5.755   5.045
 4451WAT      O13594   3.827   5.037   0.633
 4451WAT     H113595   3.784   4.949   0.611
 4451WAT     H213596   3.757   5.099   0.669
 4452WAT      O13597   3.926   5.320   4.771
 4452WAT     H113598   3.949   5.416   4.785
 4452WAT     H213599   3.870   5.311   4.688
 4453WAT      O13600   6.335   8.996   5.221
 4453WAT     H113601   6.420   8.969   5.266
 4453WAT     H213602   6.330   8.954   5.130
 4454WAT      O13603   9.751   0.194   7.096
 4454WAT     H113604   9.756   0.290   7.122
 4454WAT     H213605   9.770   0.185   6.998
 4455WAT      O13606   7.638   6.435   4.539
 4455WAT     H113607   7.639   6.336   4.525
 4455WAT     H213608   7.580   6.457   4.617
 4456WAT      O13609   3.966   6.028   7.502
 4456WAT     H113610   3.983   6.040   7.404
 4456WAT     H213611   3.870   6.048   7.521
 4457WAT      O13612   8.518   3.669   4.121
 4457WAT     H113613   8.594   3.690   4.184
 4457WAT     H213614   8.446   3.737   4.132
 4458WAT      O13615   7.481   9.325   0.919
 4458WAT     H113616   7.443   9.417   0.913
 4458WAT     H213617   7.513   9.309   1.013
 4459WAT      O13618   3.047   7.547   4.467
 4459WAT     H113619   3.038   7.630   4.522
 4459WAT     H213620   3.017   7.566   4.374
 4460WAT      O13621   8.318   9.539   9.526
 4460WAT     H113622   8.347   9.626   9.487
 4460WAT     H213623   8.231   9.512   9.487
 4461WAT      O13624   4.898   5.598   9.336
 4461WAT     H113625   4.968   5.668   9.349
 4461WAT     H213626   4.813   5.628   9.377
 4462WAT      O13627   1.864   1.104   4.168
 4462WAT     H113628   1.810   1.188   4.169
 4462WAT     H213629   1.891   1.082   4.074
 4463WAT      O13630   3.788   9.077   4.329
 4463WAT     H113631   3.859   9.035   4.271
 4463WAT     H213632   3.701   9.076   4.281
 4464WAT      O13633   9.756   5.973   3.634
 4464WAT     H113634   9.841   6.023   3.651
 4464WAT     H213635   9.692   6.033   3.586
 4465WAT      O13636   1.332   5.725   8.552
 4465WAT     H113637   1.277   5.808   8.540
 4465WAT     H213638   1.403   5.722   8.481
 4466WAT      O13639   4.020   4.094   3.345
 4466WAT     H113640   4.009   4.190   3.319
 4466WAT     H213641   3.959   4.037   3.290
 4467WAT      O13642   3.493   1.803   2.005
 4467WAT     H113643   3.459   1.803   2.099
 4467WAT     H213644   3.418   1.825   1.943
 4468WAT      O13645   7.504   0.867   6.292
 4468WAT     H113646   7.589   0.876   6.240
 4468WAT     H213647   7.497   0.940   6.359
 4469WAT      O13648   7.629   6.901   1.452
 4469WAT     H113649   7.626   6.961   1.372
 4469WAT     H213650   7.690   6.940   1.521
 4470WAT      O13651   3.075   3.840   4.954
 4470WAT     H113652   3.120   3.926   4.932
 4470WAT     H213653   3.110   3.806   5.042
 4471WAT      O13654   6.628   0.104   3.311
 4471WAT     H113655   6.587   0.048   3.383
 4471WAT     H213656   6.587   0.080   3.223
 4472WAT      O13657   2.985   2.956   2.808
 4472WAT     H113658   2.915   2.924   2.871
 4472WAT     H213659   3.043   3.023   2.855
 4473WAT      O13660   4.862   6.746   2.032
 4473WAT     H113661   4.905   6.675   1.976
 4473WAT     H213662   4.867   6.834   1.984
 4474WAT      O13663   3.106   8.780   0.186
 4474WAT     H113664   3.195   8.744   0.157
 4474WAT     H213665   3.088   8.752   0.280
 4475WAT      O13666   4.777   4.508   8.002
 4475WAT     H113667   4.762   4.510   8.101
 4475WAT     H213668   4.765   4.415   7.968
 4476WAT      O13669   6.518   0.079   5.971
 4476WAT     H113670   6.553   0.059   5.880
 4476WAT     H213671   6.568   0.026   6.039
 4477WAT      O13672   6.705   0.097   2.913
 4477WAT     H113673   6.689   0.193   2.890
 4477WAT     H213674   6.630   0.063   2.970
 4478WAT      O13675   4.870   0.578   4.258
 4478WAT     H113676   4.932   0.574   4.180
 4478WAT     H213677   4.913   0.629   4.333
 4479WAT      O13678   3.517   3.002   3.540
 4479WAT     H113679   3.448   3.073   3.550
 4479WAT     H213680   3.584   3.029   3.470
 4480WAT      O13681   0.150   8.883   5.474
 4480WAT     H113682   0.243   8.847   5.474
 4480WAT     H213683   0.089   8.817   5.517
 4481WAT      O13684   7.254   0.166   7.538
 4481WAT     H113685   7.168   0.115   7.538
 4481WAT     H213686   7.299   0.156   7.626
 4482WAT      O13687   9.265   1.311   8.667
 4482WAT     H113688   9.309   1.228   8.700
 4482WAT     H213689   9.248   1.303   8.568
 4483WAT      O13690   1.278   8.350   0.514
 4483WAT     H113691   1.254   8.366   0.610
 4483WAT     H213692   1.194   8.352   0.459
 4484WAT      O13693   1.319   3.287   5.977
 4484WAT     H113694   1.319   3.365   5.915
 4484WAT     H213695   1.395   3.295   6.041
 4485WAT      O13696   9.058   1.686   7.681
 4485WAT     H113697   9.069   1.693   7.582
 4485WAT     H213698   9.020   1.772   7.716
 4486WAT      O13699   9.795   6.389   8.205
 4486WAT     H113700   9.884   6.392   8.159
 4486WAT     H213701   9.723   6.373   8.138
 4487WAT      O13702   0.609   2.650   2.036
 4487WAT     H113703   0.540   2.659   1.965
 4487WAT     H213704   0.698   2.680   2.001
 4488WAT      O13705   1.998   4.019   5.462
 4488WAT     H113706   2.054   3.946   5.500
 4488WAT     H213707   1.920   4.036   5.521
 4489WAT      O13708   7.930   7.113   8.761
 4489WAT     H113709   7.932   7.162   8.848
 4489WAT     H213710   7.987   7.160   8.695
 4490WAT      O13711   5.338   0.701   3.439
 4490WAT     H113712   5.302   0.710   3.346
 4490WAT     H213713   5.264   0.715   3.505
 4491WAT      O13714   7.112   4.060   8.333
 4491WAT     H113715   7.203   4.018   8.336
 4491WAT     H213716   7.121   4.160   8.334
 4492WAT      O13717   2.112   4.205   7.441
 4492WAT     H113718   2.204   4.230   7.472
 4492WAT     H213719   2.074   4.278   7.384
 4493WAT      O13720   8.590   6.407   0.716
 4493WAT     H113721   8.540   6.381   0.634
 4493WAT     H213722   8.527   6.408   0.794
 4494WAT      O13723   0.998   7.307   3.983
 4494WAT     H113724   1.000   7.269   4.075
 4494WAT     H213725   0.926   7.261   3.930
 4495WAT      O13726   3.041   5.836   5.005
 4495WAT     H113727   2.984   5.782   5.067
 4495WAT     H213728   3.135   5.837   5.038
 4496WAT      O13729   7.465   6.430   2.616
 4496WAT     H113730   7.370   6.458   2.605
 4496WAT     H213731   7.522   6.510   2.634
 4497WAT      O13732   1.223   7.864   7.140
 4497WAT     H113733   1.226   7.802   7.218
 4497WAT     H213734   1.294   7.935   7.151
 4498WAT      O13735   0.988   8.233   2.903
 4498WAT     H113736   1.023   8.144   2.932
 4498WAT     H213737   1.056   8.303   2.922
 4499WAT      O13738   8.877   9.788   5.518
 4499WAT     H113739   8.834   9.746   5.437
 4499WAT     H213740   8.937   9.863   5.488
 4500WAT      O13741   0.951   6.647   6.199
 4500WAT     H113742   0.905   6.635   6.111
 4500WAT     H213743   1.003   6.732   6.198
 4501WAT      O13744   3.970   6.633   2.873
 4501WAT     H113745   3.879   6.612   2.909
 4501WAT     H213746   4.010   6.708   2.926
 4502WAT      O13747   3.667   7.278   8.331
 4502WAT     H113748   3.729   7.343   8.375
 4502WAT     H213749   3.720   7.205   8.289
 4503WAT      O13750   4.252   2.974   1.075
 4503WAT     H113751   4.189   2.896   1.072
 4503WAT     H213752   4.345   2.942   1.057
 4504WAT      O13753   8.402   2.507   8.633
 4504WAT     H113754   8.486   2.556   8.655
 4504WAT     H213755   8.340   2.508   8.712
 4505WAT      O13756   0.516   2.254   7.607
 4505WAT     H113757   0.492   2.198   7.528
 4505WAT     H213758   0.601   2.220   7.647
 4506WAT      O13759   0.680   1.518   6.994
 4506WAT     H113760   0.580   1.518   6.993
 4506WAT     H213761   0.713   1.426   6.973
 4507WAT      O13762   8.201   8.758   3.579
 4507WAT     H113763   8.157   8.824   3.518
 4507WAT     H213764   8.296   8.784   3.595
 4508WAT      O13765   8.578   5.542   4.616
 4508WAT     H113766   8.499   5.482   4.621
 4508WAT     H213767   8.593   5.586   4.705
 4509WAT      O13768   4.289   9.764   2.834
 4509WAT     H113769   4.343   9.691   2.792
 4509WAT     H213770   4.346   9.814   2.900
 4510WAT      O13771   1.062   4.797   7.086
 4510WAT     H113772   1.010   4.713   7.078
 4510WAT     H213773   1.074   4.820   7.183
 4511WAT      O13774   0.491   5.215   8.270
 4511WAT     H113775   0.507   5.185   8.364
 4511WAT     H213776   0.394   5.238   8.259
 4512WAT      O13777   7.673   0.984   0.632
 4512WAT     H113778   7.575   0.964   0.622
 4512WAT     H213779   7.698   0.977   0.728
 4513WAT      O13780   1.862   1.983   8.183
 4513WAT     H113781   1.841   2.014   8.090
 4513WAT     H213782   1.798   1.912   8.210
 4514WAT      O13783   6.428   1.364   7.066
 4514WAT     H113784   6.404   1.421   6.987
 4514WAT     H213785   6.369   1.389   7.143
 4515WAT      O13786   0.541   7.256   4.719
 4515WAT     H113787   0.564   7.231   4.625
 4515WAT     H213788   0.622   7.294   4.764
 4516WAT      O13789   5.706   6.916   1.967
 4516WAT     H113790   5.767   6.960   1.901
 4516WAT     H213791   5.614   6.910   1.930
 4517WAT      O13792   1.463   7.474   9.540
 4517WAT     H113793   1.465   7.481   9.639
 4517WAT     H213794   1.426   7.558   9.501
 4518WAT      O13795   6.639   1.524   7.536
 4518WAT     H113796   6.690   1.464   7.474
 4518WAT     H213797   6.563   1.474   7.576
 4519WAT      O13798   2.770   2.687   2.499
 4519WAT     H113799   2.778   2.690   2.599
 4519WAT     H213800   2.813   2.768   2.460
 4520WAT      O13801   3.116   6.030   8.331
 4520WAT     H113802   3.168   6.045   8.415
 4520WAT     H213803   3.173   5.984   8.263
 4521WAT      O13804   0.949   4.358   7.909
 4521WAT     H113805   0.953   4.406   7.822
 4521WAT     H213806   0.864   4.382   7.956
 4522WAT      O13807   7.166   9.051   4.466
 4522WAT     H113808   7.170   9.143   4.429
 4522WAT     H213809   7.232   8.992   4.418
 4523WAT      O13810   5.087   5.097   9.188
 4523WAT     H113811   5.013   5.084   9.122
 4523WAT     H213812   5.145   5.173   9.159
 4524WAT      O13813   1.156   0.448   3.570
 4524WAT     H113814   1.120   0.456   3.663
 4524WAT     H213815   1.085   0.415   3.509
 4525WAT      O13816   8.819   5.386   4.576
 4525WAT     H113817   8.734   5.426   4.608
 4525WAT     H213818   8.884   5.459   4.554
 4526WAT      O13819   4.778   3.727   7.624
 4526WAT     H113820   4.694   3.712   7.571
 4526WAT     H213821   4.853   3.674   7.583
 4527WAT      O13822   6.352   3.896   7.158
 4527WAT     H113823   6.370   3.985   7.118
 4527WAT     H213824   6.439   3.847   7.172
 4528WAT      O13825   1.293   0.946   4.030
 4528WAT     H113826   1.389   0.928   4.051
 4528WAT     H213827   1.256   0.869   3.977
 4529WAT      O13828   8.325   3.036   5.864
 4529WAT     H113829   8.232   3.074   5.872
 4529WAT     H213830   8.390   3.100   5.905
 4530WAT      O13831   5.534   0.462   0.918
 4530WAT     H113832   5.598   0.538   0.928
 4530WAT     H213833   5.459   0.490   0.858
 4531WAT      O13834   4.348   6.536   0.384
 4531WAT     H113835   4.249   6.530   0.389
 4531WAT     H213836   4.384   6.578   0.468
 4532WAT      O13837   8.844   3.361   3.143
 4532WAT     H113838   8.868   3.428   3.073
 4532WAT     H213839   8.767   3.396   3.197
 4533WAT      O13840   2.166   4.661   6.647
 4533WAT     H113841   2.123   4.730   6.589
 4533WAT     H213842   2.177   4.697   6.740
 4534WAT      O13843   4.283   7.496   6.505
 4534WAT     H113844   4.183   7.495   6.504
 4534WAT     H213845   4.315   7.511   6.598
 4535WAT      O13846   6.865   9.603   4.230
 4535WAT     H113847   6.897   9.605   4.325
 4535WAT     H213848   6.792   9.535   4.221
 4536WAT      O13849   8.470   8.225   7.522
 4536WAT     H113850   8.439   8.268   7.437
 4536WAT     H213851   8.565   8.252   7.540
 4537WAT      O13852   8.074   1.051   5.106
 4537WAT     H113853   8.164   1.008   5.098
 4537WAT     H213854   8.085   1.145   5.138
 4538WAT      O13855   1.367   5.250   3.721
 4538WAT     H113856   1.362   5.240   3.821
 4538WAT     H213857   1.394   5.344   3.699
 4539WAT      O13858   9.317   7.093   8.278
 4539WAT     H113859   9.308   7.180   8.230
 4539WAT     H213860   9.228   7.048   8.283
 4540WAT      O13861   7.197   8.929   0.656
 4540WAT     H113862   7.178   8.970   0.746
 4540WAT     H213863   7.173   8.995   0.584
 4541WAT      O13864   3.007   5.447   8.785
 4541WAT     H113865   2.969   5.445   8.878
 4541WAT     H213866   3.107   5.446   8.791
 4542WAT      O13867   2.969   0.421   8.697
 4542WAT     H113868   3.011   0.475   8.769
 4542WAT     H213869   3.037   0.403   8.625
 4543WAT      O13870   2.464   1.294   4.521
 4543WAT     H113871   2.454   1.213   4.462
 4543WAT     H213872   2.505   1.266   4.608
 4544WAT      O13873   8.492   5.541   7.049
 4544WAT     H113874   8.465   5.446   7.067
 4544WAT     H213875   8.413   5.591   7.013
 4545WAT      O13876   9.737   6.923   7.407
 4545WAT     H113877   9.701   6.850   7.466
 4545WAT     H213878   9.739   6.891   7.312
 4546WAT      O13879   0.692   2.963   7.288
 4546WAT     H113880   0.660   2.948   7.194
 4546WAT     H213881   0.646   2.899   7.349
 4547WAT      O13882   3.682   9.080   3.563
 4547WAT     H113883   3.647   9.007   3.504
 4547WAT     H213884   3.615   9.155   3.567
 4548WAT      O13885   1.955   1.942   1.408
 4548WAT     H113886   2.037   1.897   1.441
 4548WAT     H213887   1.957   1.948   1.308
 4549WAT      O13888   3.688   3.370   0.950
 4549WAT     H113889   3.712   3.393   1.044
 4549WAT     H213890   3.675   3.271   0.942
 4550WAT      O13891   4.761   5.404   4.708
 4550WAT     H113892   4.714   5.474   4.655
 4550WAT     H213893   4.849   5.383   4.665
 4551WAT      O13894   1.799   3.279   8.148
 4551WAT     H113895   1.857   3.277   8.230
 4551WAT     H213896   1.762   3.188   8.132
 4552WAT      O13897   3.898   5.661   4.134
 4552WAT     H113898   3.960   5.679   4.058
 4552WAT     H213899   3.943   5.688   4.220
 4553WAT      O13900   2.926   7.994   4.176
 4553WAT     H113901   2.843   7.963   4.223
 4553WAT     H213902   2.943   8.090   4.198
 4554WAT      O13903   7.122   4.138   9.885
 4554WAT     H113904   7.140   4.236   9.871
 4554WAT     H213905   7.156   4.086   9.807
 4555WAT      O13906   5.749   9.712   6.897
 4555WAT     H113907   5.671   9.768   6.925
 4555WAT     H213908   5.755   9.631   6.955
 4556WAT      O13909   6.388   0.341   8.913
 4556WAT     H113910   6.472   0.354   8.967
 4556WAT     H213911   6.385   0.247   8.879
 4557WAT      O13912   8.298   9.219   8.003
 4557WAT     H113913   8.347   9.159   7.940
 4557WAT     H213914   8.208   9.241   7.965
 4558WAT      O13915   4.002   7.448   7.097
 4558WAT     H113916   4.006   7.385   7.175
 4558WAT     H213917   3.975   7.397   7.015
 4559WAT      O13918   7.529   8.046   0.895
 4559WAT     H113919   7.439   8.002   0.902
 4559WAT     H213920   7.570   8.023   0.807
 4560WAT      O13921   8.926   6.762   2.778
 4560WAT     H113922   8.834   6.780   2.743
 4560WAT     H213923   8.920   6.724   2.870
 4561WAT      O13924   7.487   6.988   7.749
 4561WAT     H113925   7.531   6.916   7.696
 4561WAT     H213926   7.389   6.969   7.756
 4562WAT      O13927   6.719   2.868   3.225
 4562WAT     H113928   6.808   2.893   3.264
 4562WAT     H213929   6.716   2.895   3.128
 4563WAT      O13930   7.936   3.372   3.165
 4563WAT     H113931   7.980   3.282   3.170
 4563WAT     H213932   7.902   3.398   3.255
 4564WAT      O13933   8.379   3.749   6.731
 4564WAT     H113934   8.449   3.716   6.795
 4564WAT     H213935   8.314   3.806   6.780
 4565WAT      O13936   0.358   8.639   7.084
 4565WAT     H113937   0.329   8.568   7.148
 4565WAT     H213938   0.412   8.597   7.010
 4566WAT      O13939   0.020   8.033   4.181
 4566WAT     H113940   0.034   8.015   4.278
 4566WAT     H213941  -0.015   8.126   4.169
 4567WAT      O13942   3.173   0.599   2.224
 4567WAT     H113943   3.210   0.636   2.138
 4567WAT     H213944   3.105   0.529   2.204
 4568WAT      O13945   7.039   4.715   9.751
 4568WAT     H113946   6.990   4.718   9.838
 4568WAT     H213947   7.011   4.635   9.698
 4569WAT      O13948   9.679   8.673   5.423
 4569WAT     H113949   9.699   8.716   5.335
 4569WAT     H213950   9.580   8.668   5.436
 4570WAT      O13951   2.486   9.392   7.019
 4570WAT     H113952   2.407   9.444   7.049
 4570WAT     H213953   2.484   9.383   6.920
 4571WAT      O13954   6.126   9.098   6.261
 4571WAT     H113955   6.223   9.078   6.249
 4571WAT     H213956   6.096   9.162   6.191
 4572WAT      O13957   1.289   6.550   7.497
 4572WAT     H113958   1.357   6.581   7.563
 4572WAT     H213959   1.333   6.492   7.428
 4573WAT      O13960   3.149   3.998   0.272
 4573WAT     H113961   3.127   3.955   0.185
 4573WAT     H213962   3.106   3.946   0.346
 4574WAT      O13963   8.307   4.223   5.962
 4574WAT     H113964   8.401   4.228   5.928
 4574WAT     H213965   8.277   4.313   5.992
 4575WAT      O13966   5.238   9.230   9.337
 4575WAT     H113967   5.185   9.266   9.260
 4575WAT     H213968   5.334   9.225   9.311
 4576WAT      O13969   9.669   2.723   3.093
 4576WAT     H113970   9.669   2.803   3.033
 4576WAT     H213971   9.763   2.688   3.102
 4577WAT      O13972   2.146   2.058   3.380
 4577WAT     H113973   2.096   2.099   3.456
 4577WAT     H213974   2.232   2.107   3.367
 4578WAT      O13975   6.523   0.169   4.701
 4578WAT     H113976   6.543   0.134   4.792
 4578WAT     H213977   6.425   0.162   4.684
 4579WAT      O13978   8.523   5.295   1.385
 4579WAT     H113979   8.434   5.323   1.348
 4579WAT     H213980   8.554   5.212   1.338
 4580WAT      O13981   7.567   7.582   0.695
 4580WAT     H113982   7.546   7.491   0.730
 4580WAT     H213983   7.630   7.628   0.757
 4581WAT      O13984   4.884   2.528   9.116
 4581WAT     H113985   4.807   2.464   9.113
 4581WAT     H213986   4.948   2.505   9.043
 4582WAT      O13987   9.396   5.920   5.705
 4582WAT     H113988   9.358   5.828   5.716
 4582WAT     H213989   9.496   5.914   5.702
 4583WAT      O13990   1.520   5.824   5.808
 4583WAT     H113991   1.579   5.882   5.753
 4583WAT     H213992   1.483   5.876   5.885
 4584WAT      O13993   1.037   5.671   5.473
 4584WAT     H113994   1.039   5.632   5.565
 4584WAT     H213995   0.955   5.727   5.463
 4585WAT      O13996   8.141   9.724   1.867
 4585WAT     H113997   8.055   9.753   1.908
 4585WAT     H213998   8.128   9.634   1.825
 4586WAT      O13999   4.378   4.081   7.943
 4586WAT     H114000   4.457   4.076   8.004
 4586WAT     H214001   4.294   4.067   7.997
 4587WAT      O14002   6.259   1.019   2.358
 4587WAT     H114003   6.281   1.088   2.289
 4587WAT     H214004   6.164   0.989   2.346
 4588WAT      O14005   8.125   5.185   3.702
 4588WAT     H114006   8.141   5.087   3.715
 4588WAT     H214007   8.059   5.218   3.770
 4589WAT      O14008   0.411   7.401   8.249
 4589WAT     H114009   0.408   7.410   8.149
 4589WAT     H214010   0.467   7.475   8.287
 4590WAT      O14011   2.666   8.383   3.794
 4590WAT     H114012   2.586   8.324   3.782
 4590WAT     H214013   2.653   8.468   3.743
 4591WAT      O14014   7.310   9.019   8.753
 4591WAT     H114015   7.254   9.093   8.715
 4591WAT     H214016   7.303   9.020   8.853
 4592WAT      O14017   0.711   6.210   4.476
 4592WAT     H114018   0.787   6.274   4.490
 4592WAT     H214019   0.625   6.258   4.489
 4593WAT      O14020   3.326   8.217   3.614
 4593WAT     H114021   3.400   8.232   3.679
 4593WAT     H214022   3.247   8.176   3.660
 4594WAT      O14023   6.901   8.902   3.556
 4594WAT     H114024   6.845   8.844   3.615
 4594WAT     H214025   6.957   8.845   3.496
 4595WAT      O14026   1.103   1.086   8.839
 4595WAT     H114027   1.102   1.103   8.938
 4595WAT     H214028   1.013   1.109   8.801
 4596WAT      O14029   9.385   5.479   7.459
 4596WAT     H114030   9.408   5.575   7.474
 4596WAT     H214031   9.463   5.421   7.484
 4597WAT      O14032   6.417   6.275   0.960
 4597WAT     H114033   6.344   6.300   0.896
 4597WAT     H214034   6.470   6.356   0.983
 4598WAT      O14035   1.700   5.448   7.727
 4598WAT     H114036   1.786   5.408   7.696
 4598WAT     H214037   1.632   5.376   7.742
 4599WAT      O14038   0.282   3.031   9.124
 4599WAT     H114039   0.360   3.093   9.132
 4599WAT     H214040   0.265   2.987   9.212
 4600WAT      O14041   1.231   7.669   9.834
 4600WAT     H114042   1.198   7.742   9.893
 4600WAT     H214043   1.157   7.606   9.812
 4601WAT      O14044   4.653   2.334   2.197
 4601WAT     H114045   4.686   2.324   2.103
 4601WAT     H214046   4.696   2.415   2.238
 4602WAT      O14047   6.662   7.109   7.335
 4602WAT     H114048   6.619   7.036   7.388
 4602WAT     H214049   6.720   7.069   7.264
 4603WAT      O14050   0.020   9.477   7.218
 4603WAT     H114051   0.001   9.498   7.314
 4603WAT     H214052   0.094   9.535   7.186
 4604WAT      O14053   4.172   8.901   6.012
 4604WAT     H114054   4.197   8.939   5.923
 4604WAT     H214055   4.166   8.974   6.079
 4605WAT      O14056   3.219   9.010   5.434
 4605WAT     H114057   3.178   9.097   5.463
 4605WAT     H214058   3.318   9.013   5.449
 4606WAT      O14059   4.562   6.338   0.464
 4606WAT     H114060   4.512   6.413   0.421
 4606WAT     H214061   4.581   6.267   0.396
 4607WAT      O14062   3.362   3.562   9.646
 4607WAT     H114063   3.448   3.602   9.679
 4607WAT     H214064   3.328   3.616   9.569
 4608WAT      O14065   5.512   0.754   3.681
 4608WAT     H114066   5.472   0.746   3.589
 4608WAT     H214067   5.507   0.665   3.727
 4609WAT      O14068   9.547   5.186   3.052
 4609WAT     H114069   9.575   5.131   2.973
 4609WAT     H214070   9.472   5.140   3.099
 4610WAT      O14071   3.396   3.550   9.180
 4610WAT     H114072   3.349   3.596   9.256
 4610WAT     H214073   3.329   3.513   9.117
 4611WAT      O14074   5.473   1.596   8.682
 4611WAT     H114075   5.419   1.626   8.603
 4611WAT     H214076   5.482   1.672   8.747
 4612WAT      O14077   5.560   8.446   1.232
 4612WAT     H114078   5.617   8.364   1.229
 4612WAT     H214079   5.591   8.511   1.162
 4613WAT      O14080   2.395   8.000   0.666
 4613WAT     H114081   2.376   8.040   0.577
 4613WAT     H214082   2.309   7.971   0.709
 4614WAT      O14083   1.095   2.906   9.268
 4614WAT     H114084   1.074   3.004   9.266
 4614WAT     H214085   1.168   2.886   9.202
 4615WAT      O14086   0.560   0.631   6.461
 4615WAT     H114087   0.513   0.719   6.456
 4615WAT     H214088   0.633   0.628   6.394
 4616WAT      O14089   1.519   6.259   6.987
 4616WAT     H114090   1.593   6.254   6.920
 4616WAT     H214091   1.460   6.337   6.965
 4617WAT      O14092   5.890   7.221   9.135
 4617WAT     H114093   5.837   7.180   9.062
 4617WAT     H214094   5.834   7.288   9.184
 4618WAT      O14095   6.721   1.359   0.754
 4618WAT     H114096   6.791   1.431   0.759
 4618WAT     H214097   6.651   1.386   0.688
 4619WAT      O14098   6.826   2.968   6.412
 4619WAT     H114099   6.807   3.062   6.381
 4619WAT     H214100   6.925   2.952   6.410
 4620WAT      O14101   5.682   4.785   6.835
 4620WAT     H114102   5.628   4.731   6.771
 4620WAT     H214103   5.624   4.813   6.912
 4621WAT      O14104   5.477   0.260   6.506
 4621WAT     H114105   5.445   0.327   6.574
 4621WAT     H214106   5.509   0.309   6.425
 4622WAT      O14107   7.290   8.247   1.894
 4622WAT     H114108   7.209   8.253   1.835
 4622WAT     H214109   7.266   8.278   1.986
 4623WAT      O14110   8.155   7.726   0.263
 4623WAT     H114111   8.097   7.803   0.237
 4623WAT     H214112   8.196   7.686   0.182
 4624WAT      O14113   7.714   3.943   9.801
 4624WAT     H114114   7.812   3.963   9.806
 4624WAT     H214115   7.692   3.906   9.711
 4625WAT      O14116   7.859   9.817   5.605
 4625WAT     H114117   7.892   9.912   5.605
 4625WAT     H214118   7.759   9.817   5.605
 4626WAT      O14119   7.295   0.323   1.260
 4626WAT     H114120   7.313   0.350   1.354
 4626WAT     H214121   7.374   0.276   1.222
 4627WAT      O14122   4.576   2.926   5.817
 4627WAT     H114123   4.532   2.976   5.892
 4627WAT     H214124   4.599   2.990   5.744
 4628WAT      O14125   6.246   0.123   3.033
 4628WAT     H114126   6.226   0.163   2.944
 4628WAT     H214127   6.183   0.160   3.101
 4629WAT      O14128   3.471   7.875   1.431
 4629WAT     H114129   3.509   7.945   1.370
 4629WAT     H214130   3.445   7.794   1.377
 4630WAT      O14131   0.269   8.992   9.154
 4630WAT     H114132   0.347   8.962   9.100
 4630WAT     H214133   0.216   8.912   9.183
 4631WAT      O14134   9.025   4.970   5.127
 4631WAT     H114135   9.032   5.067   5.102
 4631WAT     H214136   8.951   4.927   5.076
 4632WAT      O14137   1.929   4.067   7.743
 4632WAT     H114138   1.924   3.996   7.672
 4632WAT     H214139   1.852   4.056   7.806
 4633WAT      O14140   7.630   1.154   8.440
 4633WAT     H114141   7.560   1.140   8.510
 4633WAT     H214142   7.702   1.086   8.450
 4634WAT      O14143   2.716   5.834   9.405
 4634WAT     H114144   2.688   5.807   9.313
 4634WAT     H214145   2.780   5.910   9.400
 4635WAT      O14146   6.261   5.916   8.806
 4635WAT     H114147   6.344   5.895   8.755
 4635WAT     H214148   6.252   6.015   8.816
 4636WAT      O14149   3.884   8.542   7.469
 4636WAT     H114150   3.789   8.574   7.479
 4636WAT     H214151   3.946   8.619   7.480
 4637WAT      O14152   8.897   4.705   6.361
 4637WAT     H114153   8.841   4.774   6.316
 4637WAT     H214154   8.886   4.712   6.460
 4638WAT      O14155   8.984   6.620   6.121
 4638WAT     H114156   8.913   6.654   6.059
 4638WAT     H214157   9.033   6.697   6.160
 4639WAT      O14158   7.656   1.125   5.657
 4639WAT     H114159   7.617   1.114   5.565
 4639WAT     H214160   7.582   1.141   5.723
 4640WAT      O14161   0.863   5.351   1.018
 4640WAT     H114162   0.930   5.421   1.045
 4640WAT     H214163   0.816   5.318   1.099
 4641WAT      O14164   7.182   6.974   3.260
 4641WAT     H114165   7.272   6.989   3.302
 4641WAT     H214166   7.136   7.062   3.248
 4642WAT      O14167   2.525   7.143   1.476
 4642WAT     H114168   2.437   7.191   1.466
 4642WAT     H214169   2.598   7.198   1.435
 4643WAT      O14170   0.438   6.411   3.420
 4643WAT     H114171   0.391   6.342   3.366
 4643WAT     H214172   0.409   6.503   3.392
 4644WAT      O14173   6.284   2.169   0.610
 4644WAT     H114174   6.196   2.132   0.643
 4644WAT     H214175   6.271   2.262   0.577
 4645WAT      O14176   2.918   8.398   9.672
 4645WAT     H114177   2.967   8.459   9.734
 4645WAT     H214178   2.853   8.450   9.618
 4646WAT      O14179   7.557   6.033   0.677
 4646WAT     H114180   7.601   6.089   0.607
 4646WAT     H214181   7.511   5.956   0.634
 4647WAT      O14182   6.746   2.918   8.877
 4647WAT     H114183   6.651   2.917   8.845
 4647WAT     H214184   6.761   2.842   8.940
 4648WAT      O14185   1.779   0.254   6.685
 4648WAT     H114186   1.860   0.196   6.697
 4648WAT     H214187   1.697   0.198   6.688
 4649WAT      O14188   1.833   7.984   0.315
 4649WAT     H114189   1.781   8.032   0.244
 4649WAT     H214190   1.798   8.010   0.405
 4650WAT      O14191   4.785   9.439   7.740
 4650WAT     H114192   4.721   9.362   7.748
 4650WAT     H214193   4.798   9.461   7.643
 4651WAT      O14194   4.190   7.059   4.881
 4651WAT     H114195   4.224   7.145   4.921
 4651WAT     H214196   4.190   6.988   4.950
 4652WAT      O14197   1.950   9.236   1.738
 4652WAT     H114198   1.882   9.258   1.667
 4652WAT     H214199   2.019   9.174   1.699
 4653WAT      O14200   8.182   5.794   0.598
 4653WAT     H114201   8.145   5.883   0.569
 4653WAT     H214202   8.275   5.784   0.562
 4654WAT      O14203   0.198   5.214   8.448
 4654WAT     H114204   0.140   5.152   8.501
 4654WAT     H214205   0.260   5.263   8.509
 4655WAT      O14206   1.289   7.499   6.377
 4655WAT     H114207   1.304   7.403   6.398
 4655WAT     H214208   1.194   7.513   6.350
 4656WAT      O14209   4.776   8.436   5.004
 4656WAT     H114210   4.681   8.454   4.980
 4656WAT     H214211   4.780   8.386   5.091
 4657WAT      O14212   2.131   0.167   6.611
 4657WAT     H114213   2.072   0.168   6.692
 4657WAT     H214214   2.134   0.075   6.573
 4658WAT      O14215   1.510   2.244   1.163
 4658WAT     H114216   1.550   2.299   1.089
 4658WAT     H214217   1.446   2.178   1.124
 4659WAT      O14218   6.558   7.728   0.392
 4659WAT     H114219   6.524   7.723   0.299
 4659WAT     H214220   6.650   7.767   0.392
 4660WAT      O14221   9.027   3.309   1.685
 4660WAT     H114222   9.119   3.269   1.685
 4660WAT     H214223   9.026   3.390   1.744
 4661WAT      O14224   4.269   5.929   7.581
 4661WAT     H114225   4.361   5.891   7.576
 4661WAT     H214226   4.202   5.860   7.554
 4662WAT      O14227   7.711   5.714   0.434
 4662WAT     H114228   7.642   5.674   0.374
 4662WAT     H214229   7.706   5.671   0.524
 4663WAT      O14230   2.978   2.574   9.152
 4663WAT     H114231   2.935   2.660   9.128
 4663WAT     H214232   2.923   2.526   9.220
 4664WAT      O14233   5.638   5.745   7.196
 4664WAT     H114234   5.590   5.753   7.108
 4664WAT     H214235   5.595   5.805   7.263
 4665WAT      O14236   5.780   5.394   5.161
 4665WAT     H114237   5.769   5.400   5.062
 4665WAT     H214238   5.754   5.481   5.202
 4666WAT      O14239   2.513   6.086   7.687
 4666WAT     H114240   2.543   6.154   7.754
 4666WAT     H214241   2.427   6.116   7.644
 4667WAT      O14242   8.495   6.809   1.840
 4667WAT     H114243   8.460   6.742   1.775
 4667WAT     H214244   8.513   6.895   1.792
 4668WAT      O14245   7.619   2.435   1.389
 4668WAT     H114246   7.629   2.528   1.424
 4668WAT     H214247   7.536   2.430   1.333
 4669WAT      O14248   2.019   8.385   5.751
 4669WAT     H114249   2.011   8.384   5.850
 4669WAT     H214250   2.009   8.478   5.717
 4670WAT      O14251   7.955   8.054   6.994
 4670WAT     H114252   8.022   7.989   7.030
 4670WAT     H214253   7.906   8.013   6.917
 4671WAT      O14254   3.164   0.216   4.457
 4671WAT     H114255   3.077   0.258   4.430
 4671WAT     H214256   3.237   0.250   4.396
 4672WAT      O14257   7.001   2.957   1.694
 4672WAT     H114258   6.960   2.996   1.611
 4672WAT     H214259   7.044   2.869   1.672
 4673WAT      O14260   7.402   9.712   2.047
 4673WAT     H114261   7.490   9.757   2.033
 4673WAT     H214262   7.417   9.626   2.096
 4674WAT      O14263   0.917   5.023   3.133
 4674WAT     H114264   0.881   4.996   3.043
 4674WAT     H214265   1.016   5.037   3.126
 4675WAT      O14266   9.443   4.733   8.086
 4675WAT     H114267   9.395   4.719   7.999
 4675WAT     H214268   9.421   4.824   8.121
 4676WAT      O14269   3.997   2.458   1.229
 4676WAT     H114270   4.028   2.374   1.184
 4676WAT     H214271   4.030   2.459   1.324
 4677WAT      O14272   3.047   4.969   6.664
 4677WAT     H114273   2.976   4.991   6.730
 4677WAT     H214274   3.029   4.879   6.624
 4678WAT      O14275   6.875   4.444   2.755
 4678WAT     H114276   6.847   4.471   2.847
 4678WAT     H214277   6.829   4.502   2.687
 4679WAT      O14278   0.026   0.932   8.816
 4679WAT     H114279  -0.065   0.898   8.841
 4679WAT     H214280   0.030   1.031   8.834
 4680WAT      O14281   5.783   7.425   6.256
 4680WAT     H114282   5.687   7.403   6.271
 4680WAT     H214283   5.790   7.515   6.212
 4681WAT      O14284   6.691   4.020   0.495
 4681WAT     H114285   6.627   4.042   0.568
 4681WAT     H214286   6.641   4.009   0.409
 4682WAT      O14287   1.165   3.991   7.965
 4682WAT     H114288   1.138   3.973   8.059
 4682WAT     H214289   1.083   4.001   7.908
 4683WAT      O14290   6.449   1.297   5.041
 4683WAT     H114291   6.518   1.230   5.070
 4683WAT     H214292   6.425   1.356   5.118
 4684WAT      O14293   4.641   9.721   0.519
 4684WAT     H114294   4.716   9.782   0.494
 4684WAT     H214295   4.599   9.753   0.605
 4685WAT      O14296   9.703   3.819   0.387
 4685WAT     H114297   9.640   3.882   0.342
 4685WAT     H214298   9.699   3.730   0.342
 4686WAT      O14299   7.712   3.349   1.045
 4686WAT     H114300   7.648   3.373   1.118
 4686WAT     H214301   7.804   3.341   1.082
 4687WAT      O14302   7.849   6.951   4.843
 4687WAT     H114303   7.837   7.046   4.812
 4687WAT     H214304   7.933   6.944   4.897
 4688WAT      O14305   2.077   5.747   8.782
 4688WAT     H114306   2.088   5.839   8.819
 4688WAT     H214307   1.998   5.745   8.721
 4689WAT      O14308   2.959   3.837   3.361
 4689WAT     H114309   2.876   3.887   3.386
 4689WAT     H214310   3.007   3.888   3.289
 4690WAT      O14311   7.415   6.046   8.724
 4690WAT     H114312   7.423   5.982   8.647
 4690WAT     H214313   7.417   5.994   8.810
 4691WAT      O14314   0.115   1.363   9.581
 4691WAT     H114315   0.187   1.318   9.529
 4691WAT     H214316   0.148   1.385   9.673
 4692WAT      O14317   0.015   7.998   4.451
 4692WAT     H114318   0.020   8.050   4.536
 4692WAT     H214319  -0.081   7.984   4.426
 4693WAT      O14320   4.296   6.052   8.241
 4693WAT     H114321   4.256   6.080   8.329
 4693WAT     H214322   4.258   5.963   8.215
 4694WAT      O14323   3.501   0.466   3.047
 4694WAT     H114324   3.514   0.370   3.073
 4694WAT     H214325   3.538   0.482   2.955
 4695WAT      O14326   3.456   8.396   1.203
 4695WAT     H114327   3.377   8.396   1.265
 4695WAT     H214328   3.448   8.473   1.139
 4696WAT      O14329   8.985   6.757   0.821
 4696WAT     H114330   9.040   6.691   0.770
 4696WAT     H214331   8.924   6.709   0.884
 4697WAT      O14332   2.402   9.724   1.449
 4697WAT     H114333   2.343   9.691   1.375
 4697WAT     H214334   2.394   9.662   1.527
 4698WAT      O14335   4.356   8.557   0.063
 4698WAT     H114336   4.433   8.514   0.016
 4698WAT     H214337   4.272   8.507   0.043
 4699WAT      O14338   4.210   4.839   7.627
 4699WAT     H114339   4.267   4.775   7.576
 4699WAT     H214340   4.268   4.905   7.674
 4700WAT      O14341   0.554   1.827   9.406
 4700WAT     H114342   0.478   1.784   9.358
 4700WAT     H214343   0.563   1.922   9.376
 4701WAT      O14344   1.833   8.369   0.876
 4701WAT     H114345   1.757   8.309   0.851
 4701WAT     H214346   1.854   8.357   0.973
 4702WAT      O14347   1.385   4.508   8.333
 4702WAT     H114348   1.385   4.414   8.299
 4702WAT     H214349   1.338   4.512   8.421
 4703WAT      O14350   7.992   3.401   9.133
 4703WAT     H114351   8.018   3.406   9.229
 4703WAT     H214352   8.062   3.446   9.077
 4704WAT      O14353   2.401   6.405   9.137
 4704WAT     H114354   2.484   6.361   9.171
 4704WAT     H214355   2.425   6.465   9.061
 4705WAT      O14356   3.420   7.765   8.905
 4705WAT     H114357   3.367   7.734   8.827
 4705WAT     H214358   3.515   7.735   8.895
 4706WAT      O14359   4.644   9.063   9.688
 4706WAT     H114360   4.570   9.054   9.754
 4706WAT     H214361   4.704   8.982   9.693
 4707WAT      O14362   8.006   5.668   0.987
 4707WAT     H114363   8.097   5.676   0.945
 4707WAT     H214364   8.014   5.622   1.075
 4708WAT      O14365   7.458   7.779   0.526
 4708WAT     H114366   7.499   7.712   0.588
 4708WAT     H214367   7.378   7.738   0.481
 4709WAT      O14368   8.784   9.299   2.061
 4709WAT     H114369   8.764   9.201   2.057
 4709WAT     H214370   8.849   9.322   1.989
 4710WAT      O14371   0.630   5.515   0.642
 4710WAT     H114372   0.724   5.529   0.673
 4710WAT     H214373   0.631   5.468   0.554
 4711WAT      O14374   7.237   4.830   0.659
 4711WAT     H114375   7.215   4.845   0.755
 4711WAT     H214376   7.162   4.863   0.602
 4712WAT      O14377   0.882   9.295   4.284
 4712WAT     H114378   0.956   9.330   4.341
 4712WAT     H214379   0.823   9.371   4.256
 4713WAT      O14380   7.006   6.892   8.225
 4713WAT     H114381   7.030   6.942   8.141
 4713WAT     H214382   6.936   6.824   8.204
 4714WAT      O14383   4.483   0.875   1.251
 4714WAT     H114384   4.466   0.844   1.158
 4714WAT     H214385   4.462   0.801   1.315
 4715WAT      O14386   4.354   6.578   6.454
 4715WAT     H114387   4.326   6.595   6.548
 4715WAT     H214388   4.433   6.516   6.453
 4716WAT      O14389   1.716   3.993   7.322
 4716WAT     H114390   1.636   4.048   7.346
 4716WAT     H214391   1.686   3.909   7.277
 4717WAT      O14392   4.585   7.808   2.535
 4717WAT     H114393   4.507   7.747   2.523
 4717WAT     H214394   4.669   7.755   2.538
 4718WAT      O14395   6.344   4.793   8.622
 4718WAT     H114396   6.362   4.696   8.604
 4718WAT     H214397   6.264   4.822   8.569
 4719WAT      O14398   8.428   7.728   3.734
 4719WAT     H114399   8.336   7.695   3.709
 4719WAT     H214400   8.431   7.748   3.831
 4720WAT      O14401   3.593   4.905   1.097
 4720WAT     H114402   3.671   4.846   1.116
 4720WAT     H214403   3.624   4.998   1.081
 4721WAT      O14404   5.115   5.610   4.564
 4721WAT     H114405   5.040   5.676   4.567
 4721WAT     H214406   5.080   5.520   4.540
 4722WAT      O14407   7.903   6.551   1.117
 4722WAT     H114408   7.833   6.566   1.187
 4722WAT     H214409   7.985   6.514   1.160
 4723WAT      O14410   8.370   5.615   0.298
 4723WAT     H114411   8.280   5.650   0.273
 4723WAT     H214412   8.392   5.642   0.392
 4724WAT      O14413   5.795   4.725   1.979
 4724WAT     H114414   5.854   4.804   1.996
 4724WAT     H214415   5.735   4.710   2.058
 4725WAT      O14416   1.078   4.859   3.912
 4725WAT     H114417   1.075   4.792   3.838
 4725WAT     H214418   1.148   4.832   3.979
 4726WAT      O14419   6.098   0.972   5.953
 4726WAT     H114420   6.182   0.946   5.905
 4726WAT     H214421   6.022   0.972   5.888
 4727WAT      O14422   0.607   8.692   5.171
 4727WAT     H114423   0.668   8.614   5.158
 4727WAT     H214424   0.589   8.734   5.082
 4728WAT      O14425   5.270   1.707   9.018
 4728WAT     H114426   5.367   1.688   9.000
 4728WAT     H214427   5.243   1.665   9.104
 4729WAT      O14428   4.694   3.155   8.793
 4729WAT     H114429   4.757   3.212   8.845
 4729WAT     H214430   4.726   3.146   8.698
 4730WAT      O14431   1.685   5.683   1.676
 4730WAT     H114432   1.614   5.626   1.634
 4730WAT     H214433   1.775   5.652   1.644
 4731WAT      O14434   0.703   3.081   7.686
 4731WAT     H114435   0.693   2.991   7.728
 4731WAT     H214436   0.634   3.143   7.724
 4732WAT      O14437   2.856   8.059   4.554
 4732WAT     H114438   2.829   8.012   4.470
 4732WAT     H214439   2.950   8.093   4.544
 4733WAT      O14440   9.669   6.479   6.862
 4733WAT     H114441   9.660   6.574   6.890
 4733WAT     H214442   9.766   6.453   6.865
 4734WAT      O14443   2.583   2.417   5.044
 4734WAT     H114444   2.680   2.430   5.026
 4734WAT     H214445   2.571   2.352   5.119
 4735WAT      O14446   1.496   3.622   3.866
 4735WAT     H114447   1.559   3.545   3.855
 4735WAT     H214448   1.537   3.691   3.924
 4736WAT      O14449   4.636   2.173   4.231
 4736WAT     H114450   4.681   2.240   4.290
 4736WAT     H214451   4.542   2.159   4.263
 4737WAT      O14452   4.483   4.714   0.910
 4737WAT     H114453   4.426   4.772   0.852
 4737WAT     H214454   4.482   4.620   0.876
 4738WAT      O14455   7.360   0.843   1.050
 4738WAT     H114456   7.366   0.889   0.962
 4738WAT     H214457   7.343   0.746   1.037
 4739WAT      O14458   8.400   8.293   0.926
 4739WAT     H114459   8.359   8.206   0.899
 4739WAT     H214460   8.357   8.325   1.010
 4740WAT      O14461   8.298   1.826   3.253
 4740WAT     H114462   8.314   1.739   3.206
 4740WAT     H214463   8.241   1.885   3.196
 4741WAT      O14464   5.688   5.483   2.121
 4741WAT     H114465   5.709   5.406   2.061
 4741WAT     H214466   5.706   5.457   2.216
 4742WAT      O14467   3.880   6.696   7.128
 4742WAT     H114468   3.832   6.609   7.114
 4742WAT     H214469   3.926   6.695   7.217
 4743WAT      O14470   0.358   7.391   8.788
 4743WAT     H114471   0.437   7.421   8.840
 4743WAT     H214472   0.283   7.370   8.850
 4744WAT      O14473   7.612   0.853   5.519
 4744WAT     H114474   7.593   0.793   5.442
 4744WAT     H214475   7.621   0.947   5.488
 4745WAT      O14476   7.540   0.605   4.393
 4745WAT     H114477   7.547   0.702   4.418
 4745WAT     H214478   7.514   0.551   4.473
 4746WAT      O14479   2.602   9.186   9.719
 4746WAT     H114480   2.583   9.120   9.647
 4746WAT     H214481   2.638   9.270   9.678
 4747WAT      O14482   5.527   8.111   4.556
 4747WAT     H114483   5.565   8.179   4.493
 4747WAT     H214484   5.503   8.028   4.505
 4748WAT      O14485   9.871   0.820   7.798
 4748WAT     H114486   9.781   0.793   7.764
 4748WAT     H214487   9.935   0.743   7.787
 4749WAT      O14488   8.862   5.597   5.216
 4749WAT     H114489   8.911   5.538   5.152
 4749WAT     H214490   8.928   5.655   5.265
 4750WAT      O14491   9.713   7.561   1.894
 4750WAT     H114492   9.749   7.640   1.845
 4750WAT     H214493   9.697   7.586   1.990
 4751WAT      O14494   0.647   5.562   4.618
 4751WAT     H114495   0.595   5.646   4.605
 4751WAT     H214496   0.738   5.571   4.577
 4752WAT      O14497   2.504   5.719   8.749
 4752WAT     H114498   2.413   5.678   8.755
 4752WAT     H214499   2.553   5.703   8.834
 4753WAT      O14500   9.500   0.302   2.411
 4753WAT     H114501   9.419   0.245   2.399
 4753WAT     H214502   9.563   0.288   2.335
 4754WAT      O14503   5.782   2.702   0.024
 4754WAT     H114504   5.694   2.744   0.045
 4754WAT     H214505   5.856   2.765   0.050
 4755WAT      O14506   7.156   7.749   6.040
 4755WAT     H114507   7.119   7.779   6.128
 4755WAT     H214508   7.083   7.747   5.971
 4756WAT      O14509   0.958   1.609   5.463
 4756WAT     H114510   0.944   1.708   5.459
 4756WAT     H214511   0.911   1.565   5.387
 4757WAT      O14512   7.930   2.847   9.175
 4757WAT     H114513   7.920   2.756   9.134
 4757WAT     H214514   7.862   2.858   9.247
 4758WAT      O14515   8.284   3.183   1.543
 4758WAT     H114516   8.377   3.200   1.576
 4758WAT     H214517   8.245   3.268   1.508
 4759WAT      O14518   1.409   9.509   2.778
 4759WAT     H114519   1.485   9.496   2.714
 4759WAT     H214520   1.377   9.604   2.772
 4760WAT      O14521   7.982   2.394   5.535
 4760WAT     H114522   7.957   2.467   5.470
 4760WAT     H214523   7.949   2.306   5.500
 4761WAT      O14524   8.819   9.795   7.067
 4761WAT     H114525   8.869   9.869   7.022
 4761WAT     H214526   8.885   9.730   7.106
 4762WAT      O14527   2.913   9.785   1.809
 4762WAT     H114528   2.920   9.688   1.785
 4762WAT     H214529   2.976   9.838   1.752
 4763WAT      O14530   3.618   6.859   1.484
 4763WAT     H114531   3.646   6.900   1.571
 4763WAT     H214532   3.665   6.905   1.409
 4764WAT      O14533   7.550   4.717   6.586
 4764WAT     H114534   7.590   4.626   6.592
 4764WAT     H214535   7.456   4.714   6.620
 4765WAT      O14536   7.151   8.463   0.080
 4765WAT     H114537   7.120   8.542   0.027
 4765WAT     H214538   7.233   8.424   0.038
 4766WAT      O14539   8.657   6.885   1.103
 4766WAT     H114540   8.680   6.886   1.005
 4766WAT     H214541   8.694   6.966   1.147
 4767WAT      O14542   5.357   6.602   9.849
 4767WAT     H114543   5.423   6.676   9.835
 4767WAT     H214544   5.398   6.532   9.908
 4768WAT      O14545   4.202   4.120   1.599
 4768WAT     H114546   4.295   4.155   1.584
 4768WAT     H214547   4.149   4.131   1.515
 4769WAT      O14548   0.106   6.097   8.264
 4769WAT     H114549   0.172   6.026   8.288
 4769WAT     H214550   0.132   6.184   8.307
 4770WAT      O14551   9.448   2.494   6.274
 4770WAT     H114552   9.434   2.521   6.370
 4770WAT     H214553   9.416   2.566   6.214
 4771WAT      O14554   6.970   8.122   5.347
 4771WAT     H114555   6.973   8.038   5.293
 4771WAT     H214556   6.898   8.182   5.311
 4772WAT      O14557   7.383   5.979   5.177
 4772WAT     H114558   7.359   6.075   5.190
 4772WAT     H214559   7.471   5.961   5.221
 4773WAT      O14560   9.007   1.490   3.209
 4773WAT     H114561   8.924   1.436   3.220
 4773WAT     H214562   9.060   1.488   3.294
 4774WAT      O14563   6.193   8.384   4.231
 4774WAT     H114564   6.213   8.482   4.237
 4774WAT     H214565   6.097   8.371   4.207
 4775WAT      O14566   5.034   2.057   9.122
 4775WAT     H114567   4.991   2.117   9.054
 4775WAT     H214568   4.996   1.964   9.112
 4776WAT      O14569   4.826   7.202   0.523
 4776WAT     H114570   4.835   7.185   0.425
 4776WAT     H214571   4.850   7.120   0.574
 4777WAT      O14572   1.614   3.605   0.477
 4777WAT     H114573   1.523   3.628   0.442
 4777WAT     H214574   1.657   3.688   0.513
 4778WAT      O14575   4.362   7.881   0.975
 4778WAT     H114576   4.395   7.907   1.065
 4778WAT     H214577   4.265   7.905   0.967
 4779WAT      O14578   9.274   8.928   5.433
 4779WAT     H114579   9.207   8.896   5.366
 4779WAT     H214580   9.292   9.025   5.419
 4780WAT      O14581   9.141   3.761   9.370
 4780WAT     H114582   9.076   3.833   9.345
 4780WAT     H214583   9.225   3.803   9.404
 4781WAT      O14584   7.882   5.434   0.228
 4781WAT     H114585   7.791   5.470   0.210
 4781WAT     H214586   7.904   5.443   0.325
 4782WAT      O14587   4.552   6.337   6.474
 4782WAT     H114588   4.598   6.370   6.556
 4782WAT     H214589   4.520   6.244   6.489
 4783WAT      O14590   8.043   2.718   3.261
 4783WAT     H114591   7.961   2.770   3.286
 4783WAT     H214592   8.122   2.757   3.309
 4784WAT      O14593   5.325   5.132   6.567
 4784WAT     H114594   5.333   5.203   6.497
 4784WAT     H214595   5.404   5.070   6.561
 4785WAT      O14596   1.062   2.834   4.848
 4785WAT     H114597   1.011   2.872   4.772
 4785WAT     H214598   1.113   2.753   4.818
 4786WAT      O14599   0.846   7.110   4.959
 4786WAT     H114600   0.860   7.192   4.904
 4786WAT     H214601   0.881   7.126   5.052
 4787WAT      O14602   1.169   4.431   2.452
 4787WAT     H114603   1.196   4.414   2.358
 4787WAT     H214604   1.239   4.394   2.514
 4788WAT      O14605   4.492   8.308   9.877
 4788WAT     H114606   4.547   8.225   9.885
 4788WAT     H214607   4.494   8.339   9.782
 4789WAT      O14608   2.072   3.749   2.234
 4789WAT     H114609   2.017   3.797   2.165
 4789WAT     H214610   2.036   3.656   2.245
 4790WAT      O14611   7.292   5.740   1.190
 4790WAT     H114612   7.280   5.641   1.190
 4790WAT     H214613   7.204   5.784   1.209
 4791WAT      O14614   8.543   0.457   1.447
 4791WAT     H114615   8.531   0.548   1.486
 4791WAT     H214616   8.491   0.451   1.361
 4792WAT      O14617   0.151   7.212   0.708
 4792WAT     H114618   0.095   7.212   0.791
 4792WAT     H214619   0.247   7.223   0.732
 4793WAT      O14620   6.285   7.299   6.015
 4793WAT     H114621   6.200   7.352   6.011
 4793WAT     H214622   6.270   7.216   6.069
 4794WAT      O14623   6.201   1.403   0.043
 4794WAT     H114624   6.148   1.319   0.035
 4794WAT     H214625   6.147   1.473   0.090
 4795WAT      O14626   8.340   1.191   1.921
 4795WAT     H114627   8.246   1.206   1.890
 4795WAT     H214628   8.339   1.143   2.008
 4796WAT      O14629   8.558   4.324   8.007
 4796WAT     H114630   8.547   4.250   8.075
 4796WAT     H214631   8.470   4.369   7.994
 4797WAT      O14632   3.697   7.338   6.363
 4797WAT     H114633   3.749   7.253   6.365
 4797WAT     H214634   3.730   7.398   6.436
 4798WAT      O14635   9.213   7.514   4.085
 4798WAT     H114636   9.298   7.491   4.132
 4798WAT     H214637   9.223   7.497   3.987
 4799WAT      O14638   1.280   0.665   3.476
 4799WAT     H114639   1.350   0.643   3.409
 4799WAT     H214640   1.241   0.580   3.513
 4800WAT      O14641   6.767   1.529   2.229
 4800WAT     H114642   6.847   1.470   2.220
 4800WAT     H214643   6.770   1.576   2.317
 4801WAT      O14644   1.018   5.403   7.189
 4801WAT     H114645   1.113   5.418   7.164
 4801WAT     H214646   1.006   5.310   7.222
 4802WAT      O14647   0.221   2.648   0.715
 4802WAT     H114648   0.174   2.603   0.791
 4802WAT     H214649   0.310   2.682   0.746
 4803WAT      O14650   0.633   8.947   2.874
 4803WAT     H114651   0.561   8.880   2.893
 4803WAT     H214652   0.699   8.945   2.949
 4804WAT      O14653   6.676   0.202   1.386
 4804WAT     H114654   6.755   0.254   1.352
 4804WAT     H214655   6.611   0.264   1.428
 4805WAT      O14656   3.572   3.292   9.435
 4805WAT     H114657   3.612   3.383   9.433
 4805WAT     H214658   3.509   3.285   9.512
 4806WAT      O14659   6.783   5.733   9.301
 4806WAT     H114660   6.796   5.660   9.368
 4806WAT     H214661   6.825   5.817   9.335
 4807WAT      O14662   6.998   8.026   6.055
 4807WAT     H114663   6.931   7.957   6.083
 4807WAT     H214664   7.066   8.037   6.128
 4808WAT      O14665   5.862   6.962   5.022
 4808WAT     H114666   5.829   7.056   5.020
 4808WAT     H214667   5.921   6.949   5.102
 4809WAT      O14668   2.487   6.340   7.417
 4809WAT     H114669   2.473   6.242   7.404
 4809WAT     H214670   2.399   6.386   7.423
 4810WAT      O14671   2.008   0.660   2.450
 4810WAT     H114672   2.007   0.636   2.547
 4810WAT     H214673   1.982   0.756   2.439
 4811WAT      O14674   7.871   0.742   2.778
 4811WAT     H114675   7.878   0.727   2.877
 4811WAT     H214676   7.908   0.832   2.755
 4812WAT      O14677   0.687   5.800   6.243
 4812WAT     H114678   0.686   5.885   6.296
 4812WAT     H214679   0.601   5.790   6.194
 4813WAT      O14680   9.025   8.691   1.902
 4813WAT     H114681   8.998   8.661   1.811
 4813WAT     H214682   8.946   8.685   1.964
 4814WAT      O14683   1.001   3.186   2.677
 4814WAT     H114684   0.921   3.135   2.708
 4814WAT     H214685   0.981   3.229   2.588
 4815WAT      O14686   7.059   7.776   1.417
 4815WAT     H114687   7.066   7.874   1.398
 4815WAT     H214688   7.106   7.725   1.345
 4816WAT      O14689   3.161   1.412   5.528
 4816WAT     H114690   3.125   1.504   5.541
 4816WAT     H214691   3.089   1.344   5.544
 4817WAT      O14692   4.082   4.116   9.245
 4817WAT     H114693   4.154   4.179   9.216
 4817WAT     H214694   4.082   4.036   9.185
 4818WAT      O14695   2.180   2.525   3.950
 4818WAT     H114696   2.179   2.596   3.880
 4818WAT     H214697   2.088   2.511   3.986
 4819WAT      O14698   3.918   5.386   0.070
 4819WAT     H114699   3.968   5.472   0.078
 4819WAT     H214700   3.926   5.334   0.155
 4820WAT      O14701   6.350   0.075   8.814
 4820WAT     H114702   6.342   0.094   8.716
 4820WAT     H214703   6.428   0.014   8.829
 4821WAT      O14704   8.573   0.642   6.936
 4821WAT     H114705   8.620   0.677   6.854
 4821WAT     H214706   8.487   0.598   6.909
 4822WAT      O14707   0.674   1.471   2.861
 4822WAT     H114708   0.714   1.510   2.944
 4822WAT     H214709   0.746   1.437   2.802
 4823WAT      O14710   9.663   1.587   2.293
 4823WAT     H114711   9.568   1.609   2.318
 4823WAT     H214712   9.705   1.667   2.250
 4824WAT      O14713   6.179   7.185   2.045
 4824WAT     H114714   6.188   7.230   1.956
 4824WAT     H214715   6.084   7.155   2.058
 4825WAT      O14716   3.570   3.613   4.044
 4825WAT     H114717   3.639   3.686   4.049
 4825WAT     H214718   3.591   3.553   3.967
 4826WAT      O14719   5.384   5.181   9.303
 4826WAT     H114720   5.375   5.100   9.361
 4826WAT     H214721   5.453   5.164   9.233
 4827WAT      O14722   5.684   5.546   4.442
 4827WAT     H114723   5.615   5.587   4.501
 4827WAT     H214724   5.741   5.617   4.402
 4828WAT      O14725   7.796   2.856   3.177
 4828WAT     H114726   7.820   2.802   3.096
 4828WAT     H214727   7.702   2.834   3.205
 4829WAT      O14728   0.511   0.688   5.815
 4829WAT     H114729   0.559   0.652   5.735
 4829WAT     H214730   0.468   0.776   5.791
 4830WAT      O14731   5.560   7.651   7.544
 4830WAT     H114732   5.545   7.710   7.465
 4830WAT     H214733   5.472   7.620   7.579
 4831WAT      O14734   8.115   2.842   3.688
 4831WAT     H114735   8.083   2.820   3.780
 4831WAT     H214736   8.103   2.763   3.628
 4832WAT      O14737   5.770   0.319   9.037
 4832WAT     H114738   5.761   0.239   9.096
 4832WAT     H214739   5.735   0.298   8.946
 4833WAT      O14740   4.934   8.475   9.238
 4833WAT     H114741   4.847   8.486   9.191
 4833WAT     H214742   4.941   8.544   9.311
 4834WAT      O14743   6.149   8.371   4.911
 4834WAT     H114744   6.190   8.290   4.954
 4834WAT     H214745   6.050   8.366   4.917
 4835WAT      O14746   8.657   3.425   3.330
 4835WAT     H114747   8.558   3.434   3.333
 4835WAT     H214748   8.686   3.355   3.395
 4836WAT      O14749   9.390   4.276   2.552
 4836WAT     H114750   9.463   4.324   2.504
 4836WAT     H214751   9.430   4.209   2.615
 4837WAT      O14752   2.697   6.612   2.120
 4837WAT     H114753   2.633   6.656   2.057
 4837WAT     H214754   2.779   6.585   2.070
 4838WAT      O14755   6.122   3.454   3.031
 4838WAT     H114756   6.158   3.508   3.107
 4838WAT     H214757   6.190   3.451   2.958
 4839WAT      O14758   0.017   3.795   8.497
 4839WAT     H114759  -0.076   3.832   8.496
 4839WAT     H214760   0.028   3.735   8.576
 4840WAT      O14761   0.560   7.713   1.166
 4840WAT     H114762   0.603   7.628   1.197
 4840WAT     H214763   0.532   7.702   1.070
 4841WAT      O14764   0.346   2.692   7.747
 4841WAT     H114765   0.329   2.740   7.661
 4841WAT     H214766   0.443   2.669   7.755
 4842WAT      O14767   6.413   4.440   8.117
 4842WAT     H114768   6.428   4.535   8.090
 4842WAT     H214769   6.347   4.437   8.192
 4843WAT      O14770   4.910   4.747   4.100
 4843WAT     H114771   4.956   4.658   4.098
 4843WAT     H214772   4.899   4.781   4.007
 4844WAT      O14773   1.558   4.857   6.357
 4844WAT     H114774   1.578   4.883   6.451
 4844WAT     H214775   1.538   4.939   6.303
 4845WAT      O14776   3.703   2.353   3.598
 4845WAT     H114777   3.726   2.310   3.686
 4845WAT     H214778   3.616   2.402   3.607
 4846WAT      O14779   5.302   9.190   4.226
 4846WAT     H114780   5.242   9.248   4.281
 4846WAT     H214781   5.374   9.246   4.185
 4847WAT      O14782   2.806   3.366   5.162
 4847WAT     H114783   2.779   3.308   5.238
 4847WAT     H214784   2.741   3.355   5.087
 4848WAT      O14785   1.949   0.861   8.925
 4848WAT     H114786   1.867   0.918   8.928
 4848WAT     H214787   2.027   0.914   8.959
 4849WAT      O14788   4.862   0.081   9.584
 4849WAT     H114789   4.782   0.032   9.620
 4849WAT     H214790   4.934   0.081   9.654
 4850WAT      O14791   4.309   6.685   8.440
 4850WAT     H114792   4.393   6.735   8.461
 4850WAT     H214793   4.250   6.742   8.383
 4851WAT      O14794   6.132   0.168   0.695
 4851WAT     H114795   6.084   0.227   0.760
 4851WAT     H214796   6.082   0.165   0.608
 4852WAT      O14797   2.523   9.103   7.078
 4852WAT     H114798   2.623   9.095   7.084
 4852WAT     H214799   2.496   9.199   7.089
 4853WAT      O14800   2.389   5.046   8.846
 4853WAT     H114801   2.404   5.051   8.945
 4853WAT     H214802   2.464   5.092   8.798
 4854WAT      O14803   1.611   5.601   8.997
 4854WAT     H114804   1.601   5.683   8.941
 4854WAT     H214805   1.703   5.597   9.035
 4855WAT      O14806   3.502   8.945   5.807
 4855WAT     H114807   3.554   9.012   5.754
 4855WAT     H214808   3.409   8.979   5.820
 4856WAT      O14809   8.885   3.817   8.147
 4856WAT     H114810   8.982   3.824   8.168
 4856WAT     H214811   8.840   3.759   8.215
 4857WAT      O14812   7.769   0.959   6.637
 4857WAT     H114813   7.713   1.010   6.702
 4857WAT     H214814   7.803   1.020   6.566
 4858WAT      O14815   6.158   9.022   7.910
 4858WAT     H114816   6.168   8.932   7.867
 4858WAT     H214817   6.249   9.055   7.937
 4859WAT      O14818   3.619   8.957   0.630
 4859WAT     H114819   3.717   8.977   0.634
 4859WAT     H214820   3.596   8.925   0.538
 4860WAT      O14821   9.622   9.793   7.074
 4860WAT     H114822   9.647   9.889   7.084
 4860WAT     H214823   9.544   9.785   7.013
 4861WAT      O14824   5.647   3.560   8.066
 4861WAT     H114825   5.567   3.620   8.063
 4861WAT     H214826   5.628   3.482   8.127
 4862WAT      O14827   6.449   7.332   3.224
 4862WAT     H114828   6.549   7.328   3.227
 4862WAT     H214829   6.416   7.279   3.146
 4863WAT      O14830   8.971   8.703   8.641
 4863WAT     H114831   8.924   8.789   8.662
 4863WAT     H214832   9.032   8.680   8.717
 4864WAT      O14833   8.855   7.638   6.964
 4864WAT     H114834   8.871   7.692   7.047
 4864WAT     H214835   8.756   7.631   6.948
 4865WAT      O14836   2.858   1.110   0.612
 4865WAT     H114837   2.782   1.085   0.552
 4865WAT     H214838   2.908   1.187   0.571
 4866WAT      O14839   2.624   9.114   8.287
 4866WAT     H114840   2.544   9.160   8.325
 4866WAT     H214841   2.667   9.058   8.358
 4867WAT      O14842   5.765   8.435   4.658
 4867WAT     H114843   5.827   8.514   4.660
 4867WAT     H214844   5.678   8.462   4.618
 4868WAT      O14845   3.569   8.266   7.615
 4868WAT     H114846   3.502   8.311   7.555
 4868WAT     H214847   3.536   8.173   7.637
 4869WAT      O14848   3.660   5.267   4.926
 4869WAT     H114849   3.728   5.305   4.864
 4869WAT     H214850   3.691   5.177   4.958
 4870WAT      O14851   4.114   7.996   2.954
 4870WAT     H114852   4.025   7.986   2.911
 4870WAT     H214853   4.173   7.919   2.926
 4871WAT      O14854   9.389   6.643   2.394
 4871WAT     H114855   9.393   6.735   2.433
 4871WAT     H214856   9.430   6.578   2.458
 4872WAT      O14857   4.884   1.535   8.822
 4872WAT     H114858   4.842   1.452   8.860
 4872WAT     H214859   4.814   1.606   8.813
 4873WAT      O14860   6.173   6.505   8.768
 4873WAT     H114861   6.096   6.466   8.819
 4873WAT     H214862   6.196   6.445   8.691
 4874WAT      O14863   7.209   8.601   2.511
 4874WAT     H114864   7.286   8.537   2.506
 4874WAT     H214865   7.225   8.677   2.448
 4875WAT      O14866   5.451   6.000   4.614
 4875WAT     H114867   5.494   6.033   4.530
 4875WAT     H214868   5.464   6.067   4.687
 4876WAT      O14869   7.648   6.568   3.568
 4876WAT     H114870   7.612   6.484   3.527
 4876WAT     H214871   7.582   6.642   3.558
 4877WAT      O14872   1.610   5.321   3.092
 4877WAT     H114873   1.601   5.245   3.027
 4877WAT     H214874   1.519   5.347   3.124
 4878WAT      O14875   3.459   7.502   1.584
 4878WAT     H114876   3.492   7.553   1.664
 4878WAT     H214877   3.363   7.526   1.567
 4879WAT      O14878   6.694   1.507   7.179
 4879WAT     H114879   6.749   1.444   7.232
 4879WAT     H214880   6.608   1.463   7.152
 4880WAT      O14881   0.852   2.420   2.841
 4880WAT     H114882   0.952   2.424   2.850
 4880WAT     H214883   0.821   2.495   2.783
 4881WAT      O14884   6.381   4.512   3.236
 4881WAT     H114885   6.325   4.510   3.319
 4881WAT     H214886   6.370   4.601   3.191
 4882WAT      O14887   4.717   5.587   8.641
 4882WAT     H114888   4.739   5.573   8.545
 4882WAT     H214889   4.663   5.510   8.675
 4883WAT      O14890   1.321   7.569   7.390
 4883WAT     H114891   1.245   7.596   7.448
 4883WAT     H214892   1.294   7.576   7.294
 4884WAT      O14893   7.564   0.745   9.345
 4884WAT     H114894   7.624   0.824   9.333
 4884WAT     H214895   7.533   0.741   9.440
 4885WAT      O14896   2.275   2.280   7.744
 4885WAT     H114897   2.221   2.219   7.802
 4885WAT     H214898   2.214   2.340   7.693
 4886WAT      O14899   9.061   5.142   2.555
 4886WAT     H114900   8.974   5.190   2.570
 4886WAT     H214901   9.120   5.199   2.498
 4887WAT      O14902   8.416   1.149   7.005
 4887WAT     H114903   8.471   1.072   7.037
 4887WAT     H214904   8.475   1.228   6.989
 4888WAT      O14905   8.571   6.897   0.571
 4888WAT     H114906   8.528   6.836   0.505
 4888WAT     H214907   8.658   6.929   0.534
 4889WAT      O14908   1.819   9.669   3.437
 4889WAT     H114909   1.796   9.718   3.520
 4889WAT     H214910   1.812   9.570   3.453
 4890WAT      O14911   9.887   6.413   9.207
 4890WAT     H114912   9.895   6.393   9.304
 4890WAT     H214913   9.797   6.383   9.174
 4891WAT      O14914   7.903   7.766   6.457
 4891WAT     H114915   7.901   7.720   6.545
 4891WAT     H214916   7.963   7.846   6.463
 4892WAT      O14917   8.922   3.731   6.934
 4892WAT     H114918   8.859   3.729   7.011
 4892WAT     H214919   8.987   3.807   6.945
 4893WAT      O14920   2.109   8.208   3.433
 4893WAT     H114921   2.132   8.112   3.449
 4893WAT     H214922   2.193   8.260   3.415
 4894WAT      O14923   4.712   2.000   7.384
 4894WAT     H114924   4.714   1.962   7.476
 4894WAT     H214925   4.806   2.006   7.348
 4895WAT      O14926   2.814   2.847   7.136
 4895WAT     H114927   2.902   2.882   7.170
 4895WAT     H214928   2.793   2.890   7.048
 4896WAT      O14929   2.991   5.431   3.518
 4896WAT     H114930   3.005   5.361   3.449
 4896WAT     H214931   2.916   5.491   3.491
 4897WAT      O14932   5.020   7.313   4.066
 4897WAT     H114933   4.964   7.325   4.148
 4897WAT     H214934   5.117   7.310   4.092
 4898WAT      O14935   5.561   1.158   1.905
 4898WAT     H114936   5.514   1.246   1.898
 4898WAT     H214937   5.501   1.093   1.951
 4899WAT      O14938   3.907   7.404   8.456
 4899WAT     H114939   3.932   7.308   8.470
 4899WAT     H214940   3.918   7.454   8.541
 4900WAT      O14941   0.550   3.971   3.182
 4900WAT     H114942   0.476   3.926   3.232
 4900WAT     H214943   0.607   4.023   3.246
 4901WAT      O14944   6.287   3.319   6.038
 4901WAT     H114945   6.298   3.226   6.075
 4901WAT     H214946   6.368   3.344   5.986
 4902WAT      O14947   6.245   6.354   4.590
 4902WAT     H114948   6.309   6.399   4.527
 4902WAT     H214949   6.179   6.421   4.623
 4903WAT      O14950   3.572   8.878   1.506
 4903WAT     H114951   3.610   8.970   1.511
 4903WAT     H214952   3.526   8.865   1.418
 4904WAT      O14953   8.017   8.396   7.236
 4904WAT     H114954   8.001   8.312   7.287
 4904WAT     H214955   8.103   8.389   7.185
 4905WAT      O14956   9.223   3.499   5.754
 4905WAT     H114957   9.284   3.509   5.832
 4905WAT     H214958   9.271   3.452   5.680
 4906WAT      O14959   8.845   7.975   5.072
 4906WAT     H114960   8.816   8.014   5.159
 4906WAT     H214961   8.905   8.040   5.025
 4907WAT      O14962   5.538   4.267   2.061
 4907WAT     H114963   5.492   4.210   2.128
 4907WAT     H214964   5.637   4.264   2.075
 4908WAT      O14965   0.630   6.739   0.626
 4908WAT     H114966   0.533   6.756   0.642
 4908WAT     H214967   0.685   6.808   0.674
 4909WAT      O14968   7.399   5.259   2.225
 4909WAT     H114969   7.367   5.300   2.140
 4909WAT     H214970   7.499   5.270   2.232
 4910WAT      O14971   6.147   9.304   6.827
 4910WAT     H114972   6.228   9.248   6.811
 4910WAT     H214973   6.161   9.360   6.909
 4911WAT      O14974   1.921   5.083   2.799
 4911WAT     H114975   1.881   5.014   2.738
 4911WAT     H214976   1.892   5.174   2.770
 4912WAT      O14977   6.187   9.518   5.891
 4912WAT     H114978   6.247   9.588   5.851
 4912WAT     H214979   6.092   9.544   5.875
 4913WAT      O14980   8.038   8.301   5.384
 4913WAT     H114981   7.982   8.321   5.304
 4913WAT     H214982   8.126   8.264   5.355
 4914WAT      O14983   9.444   3.983   6.157
 4914WAT     H114984   9.441   4.083   6.155
 4914WAT     H214985   9.373   3.949   6.218
 4915WAT      O14986   3.647   8.486   3.173
 4915WAT     H114987   3.701   8.549   3.118
 4915WAT     H214988   3.684   8.394   3.164
 4916WAT      O14989   6.204   3.949   5.428
 4916WAT     H114990   6.170   3.936   5.521
 4916WAT     H214991   6.130   3.983   5.370
 4917WAT      O14992   7.354   0.289   7.325
 4917WAT     H114993   7.336   0.217   7.392
 4917WAT     H214994   7.272   0.343   7.311
 4918WAT      O14995   3.029   5.821   0.126
 4918WAT     H114996   3.024   5.798   0.223
 4918WAT     H214997   2.941   5.800   0.082
 4919WAT      O14998   4.515   5.002   2.972
 4919WAT     H114999   4.424   4.992   3.012
 4919WAT     H215000   4.514   4.972   2.877
 4920WAT      O15001   6.090   7.632   0.403
 4920WAT     H115002   6.075   7.551   0.460
 4920WAT     H215003   6.100   7.604   0.307
 4921WAT      O15004   9.459   0.189   3.704
 4921WAT     H115005   9.500   0.121   3.765
 4921WAT     H215006   9.526   0.260   3.682
 4922WAT      O15007   5.654   1.543   7.300
 4922WAT     H115008   5.709   1.563   7.380
 4922WAT     H215009   5.708   1.559   7.217
 4923WAT      O15010   8.329   3.136   0.496
 4923WAT     H115011   8.386   3.064   0.456
 4923WAT     H215012   8.294   3.106   0.585
 4924WAT      O15013   5.400   5.830   7.315
 4924WAT     H115014   5.373   5.833   7.411
 4924WAT     H215015   5.352   5.902   7.265
 4925WAT      O15016   1.634   0.070   4.569
 4925WAT     H115017   1.539   0.095   4.554
 4925WAT     H215018   1.690   0.153   4.576
 4926WAT      O15019   7.223   9.625   1.702
 4926WAT     H115020   7.146   9.571   1.737
 4926WAT     H215021   7.304   9.566   1.693
 4927WAT      O15022   4.852   1.159   0.474
 4927WAT     H115023   4.783   1.094   0.440
 4927WAT     H215024   4.899   1.201   0.396
 4928WAT      O15025   9.148   7.425   3.438
 4928WAT     H115026   9.141   7.501   3.374
 4928WAT     H215027   9.240   7.424   3.478
 4929WAT      O15028   7.884   3.661   0.431
 4929WAT     H115029   7.792   3.665   0.391
 4929WAT     H215030   7.915   3.753   0.452
 4930WAT      O15031   0.138   9.503   5.715
 4930WAT     H115032   0.043   9.497   5.747
 4930WAT     H215033   0.141   9.552   5.628
 4931WAT      O15034   6.169   0.151   1.941
 4931WAT     H115035   6.233   0.187   1.873
 4931WAT     H215036   6.158   0.218   2.015
 4932WAT      O15037   9.740   1.206   2.088
 4932WAT     H115038   9.731   1.263   2.169
 4932WAT     H215039   9.836   1.204   2.059
 4933WAT      O15040   8.837   6.764   4.323
 4933WAT     H115041   8.885   6.841   4.363
 4933WAT     H215042   8.894   6.682   4.329
 4934WAT      O15043   4.065   0.809   9.778
 4934WAT     H115044   3.991   0.876   9.780
 4934WAT     H215045   4.113   0.809   9.866
 4935WAT      O15046   6.187   6.011   7.744
 4935WAT     H115047   6.149   5.938   7.688
 4935WAT     H215048   6.132   6.094   7.733
 4936WAT      O15049   4.533   5.985   0.485
 4936WAT     H115050   4.536   5.885   0.483
 4936WAT     H215051   4.439   6.015   0.466
 4937WAT      O15052   0.824   0.680   4.805
 4937WAT     H115053   0.733   0.648   4.830
 4937WAT     H215054   0.836   0.673   4.706
 4938WAT      O15055   0.641   1.899   2.035
 4938WAT     H115056   0.725   1.885   2.087
 4938WAT     H215057   0.604   1.989   2.056
 4939WAT      O15058   1.154   1.847   1.091
 4939WAT     H115059   1.062   1.811   1.075
 4939WAT     H215060   1.160   1.880   1.185
 4940WAT      O15061   3.455   6.012   5.864
 4940WAT     H115062   3.530   6.008   5.799
 4940WAT     H215063   3.368   6.018   5.814
 4941WAT      O15064   6.223   4.163   6.811
 4941WAT     H115065   6.298   4.164   6.745
 4941WAT     H215066   6.252   4.114   6.894
 4942WAT      O15067   1.166   2.916   4.342
 4942WAT     H115068   1.077   2.885   4.307
 4942WAT     H215069   1.168   3.016   4.344
 4943WAT      O15070   1.396   6.076   6.350
 4943WAT     H115071   1.425   6.044   6.260
 4943WAT     H215072   1.306   6.038   6.371
 4944WAT      O15073   3.610   9.375   1.297
 4944WAT     H115074   3.601   9.304   1.367
 4944WAT     H215075   3.622   9.332   1.207
 4945WAT      O15076   2.403   6.363   8.012
 4945WAT     H115077   2.383   6.272   8.050
 4945WAT     H215078   2.413   6.428   8.087
 4946WAT      O15079   5.100   4.003   6.425
 4946WAT     H115080   5.117   3.905   6.413
 4946WAT     H215081   5.007   4.025   6.393
 4947WAT      O15082   8.823   0.417   1.419
 4947WAT     H115083   8.850   0.510   1.445
 4947WAT     H215084   8.724   0.412   1.409
 4948WAT      O15085   8.679   2.574   1.119
 4948WAT     H115086   8.705   2.487   1.161
 4948WAT     H215087   8.731   2.648   1.161
 4949WAT      O15088   8.777   5.906   8.821
 4949WAT     H115089   8.771   5.933   8.918
 4949WAT     H215090   8.693   5.935   8.774
 4950WAT      O15091   4.276   5.845   2.791
 4950WAT     H115092   4.268   5.922   2.728
 4950WAT     H215093   4.323   5.874   2.874
 4951WAT      O15094   4.882   6.292   6.886
 4951WAT     H115095   4.896   6.391   6.893
 4951WAT     H215096   4.787   6.271   6.911
 4952WAT      O15097   7.303   7.013   7.116
 4952WAT     H115098   7.224   6.957   7.139
 4952WAT     H215099   7.289   7.106   7.151
 4953WAT      O15100   9.520   5.073   0.077
 4953WAT     H115101   9.463   5.062   0.158
 4953WAT     H215102   9.466   5.113   0.003
 4954WAT      O15103   1.483   4.071   5.495
 4954WAT     H115104   1.470   4.066   5.396
 4954WAT     H215105   1.478   3.979   5.534
 4955WAT      O15106   8.324   3.443   8.343
 4955WAT     H115107   8.420   3.460   8.320
 4955WAT     H215108   8.276   3.409   8.263
 4956WAT      O15109   4.118   4.319   6.595
 4956WAT     H115110   4.099   4.236   6.543
 4956WAT     H215111   4.032   4.363   6.621
 4957WAT      O15112   1.070   3.448   7.366
 4957WAT     H115113   0.973   3.462   7.383
 4957WAT     H215114   1.096   3.355   7.392
 4958WAT      O15115   1.849   7.540   5.374
 4958WAT     H115116   1.882   7.452   5.341
 4958WAT     H215117   1.910   7.613   5.342
 4959WAT      O15118   6.854   3.808   8.039
 4959WAT     H115119   6.849   3.877   8.112
 4959WAT     H215120   6.810   3.843   7.957
 4960WAT      O15121   0.096   5.385   9.777
 4960WAT     H115122   0.004   5.369   9.744
 4960WAT     H215123   0.103   5.477   9.815
 4961WAT      O15124   2.043   0.365   9.616
 4961WAT     H115125   1.958   0.404   9.581
 4961WAT     H215126   2.101   0.337   9.540
 4962WAT      O15127   0.350   1.235   7.915
 4962WAT     H115128   0.436   1.279   7.942
 4962WAT     H215129   0.281   1.305   7.898
 4963WAT      O15130   5.919   4.146   4.163
 4963WAT     H115131   5.913   4.070   4.099
 4963WAT     H215132   5.846   4.139   4.230
 4964WAT      O15133   5.178   0.083   1.999
 4964WAT     H115134   5.108   0.037   2.054
 4964WAT     H215135   5.226   0.017   1.942
 4965WAT      O15136   5.870   5.677   7.452
 4965WAT     H115137   5.902   5.675   7.357
 4965WAT     H215138   5.804   5.751   7.463
 4966WAT      O15139   7.061   8.787   2.017
 4966WAT     H115140   7.114   8.865   1.984
 4966WAT     H215141   7.012   8.744   1.941
 4967WAT      O15142   3.044   1.039   6.152
 4967WAT     H115143   3.041   1.027   6.052
 4967WAT     H215144   3.137   1.023   6.185
 4968WAT      O15145   0.095   6.916   4.785
 4968WAT     H115146   0.073   6.997   4.839
 4968WAT     H215147   0.191   6.890   4.801
 4969WAT      O15148   7.612   3.042   9.438
 4969WAT     H115149   7.669   2.961   9.448
 4969WAT     H215150   7.614   3.096   9.522
 4970WAT      O15151   3.806   2.780   1.945
 4970WAT     H115152   3.772   2.810   1.855
 4970WAT     H215153   3.885   2.836   1.970
 4971WAT      O15154   1.564   0.914   1.020
 4971WAT     H115155   1.494   0.917   0.948
 4971WAT     H215156   1.621   0.995   1.013
 4972WAT      O15157   5.713   2.567   2.270
 4972WAT     H115158   5.781   2.517   2.217
 4972WAT     H215159   5.655   2.502   2.319
 4973WAT      O15160   4.126   1.570   6.647
 4973WAT     H115161   4.142   1.593   6.743
 4973WAT     H215162   4.167   1.480   6.627
 4974WAT      O15163   4.773   4.511   3.135
 4974WAT     H115164   4.781   4.569   3.054
 4974WAT     H215165   4.749   4.418   3.108
 4975WAT      O15166   0.894   7.821   2.493
 4975WAT     H115167   0.978   7.766   2.493
 4975WAT     H215168   0.909   7.903   2.438
 4976WAT      O15169   0.831   4.518   3.309
 4976WAT     H115170   0.867   4.608   3.285
 4976WAT     H215171   0.793   4.475   3.227
 4977WAT      O15172   7.527   2.156   3.082
 4977WAT     H115173   7.434   2.137   3.049
 4977WAT     H215174   7.592   2.142   3.008
 4978WAT      O15175   7.750   4.096   5.564
 4978WAT     H115176   7.733   4.000   5.584
 4978WAT     H215177   7.667   4.149   5.583
 4979WAT      O15178   4.592   5.199   6.395
 4979WAT     H115179   4.611   5.103   6.374
 4979WAT     H215180   4.591   5.212   6.494
 4980WAT      O15181   2.870   0.067   0.985
 4980WAT     H115182   2.918   0.044   1.069
 4980WAT     H215183   2.935   0.099   0.916
 4981WAT      O15184   3.788   3.316   9.130
 4981WAT     H115185   3.819   3.314   9.225
 4981WAT     H215186   3.859   3.279   9.071
 4982WAT      O15187   7.863   2.132   3.438
 4982WAT     H115188   7.767   2.131   3.410
 4982WAT     H215189   7.884   2.220   3.481
 4983WAT      O15190   2.825   4.079   5.173
 4983WAT     H115191   2.814   4.115   5.266
 4983WAT     H215192   2.739   4.037   5.144
 4984WAT      O15193   5.116   2.748   2.252
 4984WAT     H115194   5.045   2.755   2.322
 4984WAT     H215195   5.206   2.757   2.295
 4985WAT      O15196   0.321   6.764   6.544
 4985WAT     H115197   0.315   6.853   6.498
 4985WAT     H215198   0.408   6.721   6.522
 4986WAT      O15199   9.442   5.731   3.392
 4986WAT     H115200   9.540   5.729   3.416
 4986WAT     H215201   9.403   5.819   3.418
 4987WAT      O15202   0.050   3.674   3.875
 4987WAT     H115203   0.024   3.755   3.823
 4987WAT     H215204   0.142   3.685   3.911
 4988WAT      O15205   0.466   8.838   4.296
 4988WAT     H115206   0.374   8.805   4.277
 4988WAT     H215207   0.534   8.771   4.264
 4989WAT      O15208   1.380   5.564   1.442
 4989WAT     H115209   1.439   5.504   1.388
 4989WAT     H215210   1.395   5.546   1.539
 4990WAT      O15211   7.227   5.460   1.165
 4990WAT     H115212   7.245   5.363   1.151
 4990WAT     H215213   7.146   5.472   1.222
 4991WAT      O15214   2.306   2.443   6.162
 4991WAT     H115215   2.207   2.427   6.151
 4991WAT     H215216   2.353   2.355   6.164
 4992WAT      O15217   0.498   5.368   1.345
 4992WAT     H115218   0.543   5.454   1.368
 4992WAT     H215219   0.447   5.335   1.425
 4993WAT      O15220   4.851   9.687   8.500
 4993WAT     H115221   4.770   9.648   8.455
 4993WAT     H215222   4.852   9.786   8.485
 4994WAT      O15223   6.391   6.399   7.372
 4994WAT     H115224   6.296   6.422   7.396
 4994WAT     H215225   6.403   6.300   7.373
 4995WAT      O15226   5.135   2.713   5.798
 4995WAT     H115227   5.093   2.723   5.888
 4995WAT     H215228   5.216   2.655   5.806
 4996WAT      O15229   4.231   2.012   8.091
 4996WAT     H115230   4.323   2.047   8.112
 4996WAT     H215231   4.199   2.052   8.005
 4997WAT      O15232   0.785   1.685   4.868
 4997WAT     H115233   0.757   1.720   4.778
 4997WAT     H215234   0.726   1.724   4.939
 4998WAT      O15235   7.738   0.609   2.572
 4998WAT     H115236   7.816   0.629   2.631
 4998WAT     H215237   7.741   0.668   2.491
 4999WAT      O15238   4.220   0.485   9.657
 4999WAT     H115239   4.171   0.488   9.745
 4999WAT     H215240   4.154   0.499   9.583
 5000WAT      O15241   9.416   8.800   8.710
 5000WAT     H115242   9.360   8.876   8.678
 5000WAT     H215243   9.489   8.783   8.644
 5001WAT      O15244   3.150   5.261   0.897
 5001WAT     H115245   3.244   5.228   0.907
 5001WAT     H215246   3.138   5.303   0.807
 5002WAT      O15247   9.554   6.497   3.340
 5002WAT     H115248   9.616   6.573   3.322
 5002WAT     H215249   9.585   6.416   3.292
 5003WAT      O15250   1.037   8.410   2.139
 5003WAT     H115251   1.029   8.324   2.089
 5003WAT     H215252   0.949   8.434   2.179
 5004WAT      O15253   2.444   4.790   7.021
 5004WAT     H115254   2.516   4.777   6.954
 5004WAT     H215255   2.461   4.732   7.100
 5005WAT      O15256   6.906   0.418   5.148
 5005WAT     H115257   6.862   0.344   5.097
 5005WAT     H215258   6.926   0.494   5.085
 5006WAT      O15259   3.197   9.459   2.985
 5006WAT     H115260   3.290   9.426   2.971
 5006WAT     H215261   3.133   9.398   2.936
 5007WAT      O15262   9.682   8.950   2.774
 5007WAT     H115263   9.671   8.932   2.871
 5007WAT     H215264   9.620   9.023   2.746
 5008WAT      O15265   0.206   1.635   9.897
 5008WAT     H115266   0.275   1.629   9.825
 5008WAT     H215267   0.138   1.704   9.871
 5009WAT      O15268   8.683   0.264   2.515
 5009WAT     H115269   8.683   0.317   2.431
 5009WAT     H215270   8.765   0.285   2.568
 5010WAT      O15271   5.010   5.040   0.838
 5010WAT     H115272   5.003   5.126   0.889
 5010WAT     H215273   5.061   4.973   0.892
 5011WAT      O15274   4.195   0.127   4.196
 5011WAT     H115275   4.240   0.215   4.181
 5011WAT     H215276   4.099   0.134   4.168
 5012WAT      O15277   6.991   9.004   2.835
 5012WAT     H115278   6.917   9.059   2.796
 5012WAT     H215279   7.048   8.969   2.761
 5013WAT      O15280   2.287   1.783   9.458
 5013WAT     H115281   2.207   1.774   9.518
 5013WAT     H215282   2.282   1.715   9.386
 5014WAT      O15283   2.151   3.756   1.458
 5014WAT     H115284   2.084   3.748   1.532
 5014WAT     H215285   2.209   3.675   1.457
 5015WAT      O15286   3.979   5.348   5.501
 5015WAT     H115287   4.040   5.347   5.422
 5015WAT     H215288   3.929   5.262   5.506
 5016WAT      O15289   9.679   4.097   4.705
 5016WAT     H115290   9.713   4.023   4.647
 5016WAT     H215291   9.756   4.151   4.739
 5017WAT      O15292   1.303   3.691   0.108
 5017WAT     H115293   1.238   3.634   0.057
 5017WAT     H215294   1.361   3.633   0.164
 5018WAT      O15295   3.957   7.189   3.491
 5018WAT     H115296   3.858   7.202   3.479
 5018WAT     H215297   3.993   7.263   3.547
 5019WAT      O15298   6.424   0.034   6.507
 5019WAT     H115299   6.427  -0.066   6.494
 5019WAT     H215300   6.500   0.076   6.459
 5020WAT      O15301   6.705   0.375   6.652
 5020WAT     H115302   6.630   0.310   6.660
 5020WAT     H215303   6.700   0.442   6.726
 5021WAT      O15304   5.058   2.329   1.616
 5021WAT     H115305   4.992   2.398   1.646
 5021WAT     H215306   5.024   2.238   1.639
 5022WAT      O15307   5.823   6.150   5.256
 5022WAT     H115308   5.901   6.088   5.267
 5022WAT     H215309   5.799   6.156   5.159
 5023WAT      O15310   0.971   9.187   3.328
 5023WAT     H115311   1.068   9.211   3.320
 5023WAT     H215312   0.926   9.202   3.240
 5024WAT      O15313   9.610   6.757   6.968
 5024WAT     H115314   9.539   6.795   7.028
 5024WAT     H215315   9.612   6.808   6.882
 5025WAT      O15316   3.746   2.506   6.493
 5025WAT     H115317   3.749   2.443   6.570
 5025WAT     H215318   3.670   2.570   6.505
 5026WAT      O15319   9.749   5.154   8.960
 5026WAT     H115320   9.776   5.187   8.869
 5026WAT     H215321   9.650   5.163   8.971
 5027WAT      O15322   6.908   8.697   7.232
 5027WAT     H115323   7.005   8.698   7.209
 5027WAT     H215324   6.885   8.780   7.283
 5028WAT      O15325   4.640   2.683   4.347
 5028WAT     H115326   4.669   2.696   4.442
 5028WAT     H215327   4.645   2.770   4.298
 5029WAT      O15328   6.438   3.659   2.314
 5029WAT     H115329   6.476   3.567   2.304
 5029WAT     H215330   6.509   3.726   2.293
 5030WAT      O15331   2.718   1.117   2.154
 5030WAT     H115332   2.813   1.094   2.132
 5030WAT     H215333   2.716   1.187   2.226
 5031WAT      O15334   5.177   2.283   2.975
 5031WAT     H115335   5.092   2.330   3.000
 5031WAT     H215336   5.223   2.334   2.902
 5032WAT      O15337   1.528   0.124   5.340
 5032WAT     H115338   1.599   0.125   5.270
 5032WAT     H215339   1.476   0.210   5.336
 5033WAT      O15340   4.657   1.764   4.110
 5033WAT     H115341   4.698   1.729   4.026
 5033WAT     H215342   4.566   1.801   4.089
 5034WAT      O15343   6.999   8.439   9.096
 5034WAT     H115344   6.949   8.524   9.111
 5034WAT     H215345   6.936   8.362   9.101
 5035WAT      O15346   8.237   2.868   3.362
 5035WAT     H115347   8.258   2.933   3.435
 5035WAT     H215348   8.322   2.834   3.322
 5036WAT      O15349   6.407   3.516   1.928
 5036WAT     H115350   6.415   3.511   1.828
 5036WAT     H215351   6.498   3.518   1.969
 5037WAT      O15352   1.697   3.242   1.471
 5037WAT     H115353   1.733   3.239   1.564
 5037WAT     H215354   1.740   3.317   1.421
 5038WAT      O15355   1.584   8.411   1.100
 5038WAT     H115356   1.654   8.474   1.065
 5038WAT     H215357   1.568   8.430   1.197
 5039WAT      O15358   9.231   3.337   6.112
 5039WAT     H115359   9.303   3.389   6.065
 5039WAT     H215360   9.167   3.301   6.044
 5040WAT      O15361   3.260   2.492   7.107
 5040WAT     H115362   3.354   2.482   7.139
 5040WAT     H215363   3.212   2.560   7.163
 5041WAT      O15364   5.866   8.100   7.074
 5041WAT     H115365   5.844   8.070   7.167
 5041WAT     H215366   5.896   8.195   7.077
 5042WAT      O15367   5.037   3.201   0.073
 5042WAT     H115368   5.019   3.299   0.061
 5042WAT     H215369   5.090   3.188   0.157
 5043WAT      O15370   7.412   4.667   2.999
 5043WAT     H115371   7.497   4.618   3.020
 5043WAT     H215372   7.416   4.702   2.905
 5044WAT      O15373   8.789   3.740   4.594
 5044WAT     H115374   8.796   3.826   4.544
 5044WAT     H215375   8.848   3.743   4.675
 5045WAT      O15376   9.465   4.055   9.049
 5045WAT     H115377   9.546   3.996   9.052
 5045WAT     H215378   9.382   3.999   9.053
 5046WAT      O15379   6.903   5.757   0.881
 5046WAT     H115380   6.892   5.684   0.814
 5046WAT     H215381   6.850   5.736   0.964
 5047WAT      O15382   9.173   3.074   8.375
 5047WAT     H115383   9.144   3.104   8.465
 5047WAT     H215384   9.135   3.136   8.305
 5048WAT      O15385   8.570   1.596   5.816
 5048WAT     H115386   8.634   1.574   5.743
 5048WAT     H215387   8.605   1.561   5.903
 5049WAT      O15388   2.760   8.149   1.589
 5049WAT     H115389   2.783   8.153   1.492
 5049WAT     H215390   2.662   8.131   1.598
 5050WAT      O15391   5.166   0.882   4.579
 5050WAT     H115392   5.232   0.926   4.640
 5050WAT     H215393   5.195   0.894   4.484
 5051WAT      O15394   3.662   6.970   1.726
 5051WAT     H115395   3.604   6.958   1.807
 5051WAT     H215396   3.751   7.005   1.754
 5052WAT      O15397   4.451   6.468   7.841
 5052WAT     H115398   4.527   6.424   7.793
 5052WAT     H215399   4.455   6.567   7.825
 5053WAT      O15400   3.443   6.027   8.033
 5053WAT     H115401   3.537   6.037   8.001
 5053WAT     H215402   3.399   6.117   8.035
 5054WAT      O15403   7.599   1.913   7.382
 5054WAT     H115404   7.621   2.010   7.373
 5054WAT     H215405   7.512   1.894   7.336
 5055WAT      O15406   7.007   9.551   5.392
 5055WAT     H115407   6.986   9.587   5.483
 5055WAT     H215408   6.946   9.593   5.325
 5056WAT      O15409   8.631   5.843   0.001
 5056WAT     H115410   8.693   5.906  -0.046
 5056WAT     H215411   8.611   5.878   0.092
 5057WAT      O15412   8.065   6.643   3.263
 5057WAT     H115413   8.065   6.689   3.352
 5057WAT     H215414   8.024   6.552   3.272
 5058WAT      O15415   2.903   1.974   2.892
 5058WAT     H115416   2.912   1.888   2.843
 5058WAT     H215417   2.852   2.040   2.837
 5059WAT      O15418   4.436   1.563   8.333
 5059WAT     H115419   4.421   1.634   8.402
 5059WAT     H215420   4.368   1.490   8.345
 5060WAT      O15421   2.646   4.385   1.905
 5060WAT     H115422   2.673   4.315   1.970
 5060WAT     H215423   2.679   4.474   1.936
 5061WAT      O15424   6.026   1.296   5.045
 5061WAT     H115425   6.098   1.295   4.975
 5061WAT     H215426   6.066   1.279   5.135
 5062WAT      O15427   9.078   1.884   8.021
 5062WAT     H115428   9.097   1.927   7.933
 5062WAT     H215429   9.154   1.824   8.046
 5063WAT      O15430   5.517   7.931   3.970
 5063WAT     H115431   5.612   7.957   3.955
 5063WAT     H215432   5.469   8.006   4.017
 5064WAT      O15433   3.711   4.255   4.898
 5064WAT     H115434   3.619   4.234   4.931
 5064WAT     H215435   3.766   4.291   4.973
 5065WAT      O15436   5.152   9.271   6.318
 5065WAT     H115437   5.134   9.182   6.360
 5065WAT     H215438   5.174   9.338   6.390
 5066WAT      O15439   8.511   7.943   5.288
 5066WAT     H115440   8.485   7.878   5.216
 5066WAT     H215441   8.571   8.013   5.249
 5067WAT      O15442   4.584   1.822   6.030
 5067WAT     H115443   4.622   1.913   6.015
 5067WAT     H215444   4.562   1.811   6.127
 5068WAT      O15445   1.069   3.550   3.056
 5068WAT     H115446   1.059   3.491   2.976
 5068WAT     H215447   0.988   3.540   3.115
 5069WAT      O15448   2.107   8.794   5.087
 5069WAT     H115449   2.184   8.817   5.147
 5069WAT     H215450   2.126   8.826   4.995
 5070WAT      O15451   0.598   9.193   1.837
 5070WAT     H115452   0.537   9.251   1.891
 5070WAT     H215453   0.592   9.099   1.870
 5071WAT      O15454   3.312   9.457   4.630
 5071WAT     H115455   3.285   9.490   4.720
 5071WAT     H215456   3.404   9.489   4.609
 5072WAT      O15457   6.131   1.778   3.681
 5072WAT     H115458   6.221   1.811   3.708
 5072WAT     H215459   6.066   1.796   3.755
 5073WAT      O15460   7.303   1.371   2.305
 5073WAT     H115461   7.371   1.341   2.237
 5073WAT     H215462   7.341   1.447   2.358
 5074WAT      O15463   2.689   0.580   9.418
 5074WAT     H115464   2.788   0.564   9.427
 5074WAT     H215465   2.643   0.550   9.501
 5075WAT      O15466   9.596   4.696   5.248
 5075WAT     H115467   9.688   4.686   5.209
 5075WAT     H215468   9.545   4.765   5.197
 5076WAT      O15469   6.920   2.073   6.007
 5076WAT     H115470   6.834   2.051   5.960
 5076WAT     H215471   6.964   2.151   5.961
 5077WAT      O15472   1.467   4.361   8.007
 5077WAT     H115473   1.378   4.343   7.966
 5077WAT     H215474   1.467   4.330   8.102
 5078WAT      O15475   8.378   6.353   3.368
 5078WAT     H115476   8.292   6.323   3.409
 5078WAT     H215477   8.437   6.274   3.353
 5079WAT      O15478   7.778   1.421   6.254
 5079WAT     H115479   7.779   1.470   6.341
 5079WAT     H215480   7.837   1.468   6.188
 5080WAT      O15481   2.483   9.564   1.041
 5080WAT     H115482   2.425   9.493   1.082
 5080WAT     H215483   2.501   9.540   0.945
 5081WAT      O15484   7.752   9.201   3.874
 5081WAT     H115485   7.683   9.140   3.834
 5081WAT     H215486   7.706   9.275   3.923
 5082WAT      O15487   6.436   0.062   2.412
 5082WAT     H115488   6.343   0.070   2.376
 5082WAT     H215489   6.493   0.013   2.346
 5083WAT      O15490   0.111   9.309   1.355
 5083WAT     H115491   0.204   9.341   1.374
 5083WAT     H215492   0.052   9.388   1.340
 5084WAT      O15493   3.055   5.050   1.886
 5084WAT     H115494   3.042   5.142   1.848
 5084WAT     H215495   3.050   5.055   1.986
 5085WAT      O15496   0.081   4.364   2.815
 5085WAT     H115497   0.005   4.303   2.793
 5085WAT     H215498   0.154   4.352   2.747
 5086WAT      O15499   2.897   5.405   6.913
 5086WAT     H115500   2.813   5.416   6.861
 5086WAT     H215501   2.913   5.485   6.970
 5087WAT      O15502   1.440   5.585   5.725
 5087WAT     H115503   1.359   5.565   5.780
 5087WAT     H215504   1.476   5.675   5.751
 5088WAT      O15505   6.871   1.884   9.107
 5088WAT     H115506   6.943   1.819   9.083
 5088WAT     H215507   6.781   1.845   9.084
 5089WAT      O15508   2.846   5.886   4.590
 5089WAT     H115509   2.815   5.855   4.680
 5089WAT     H215510   2.895   5.812   4.544
 5090WAT      O15511   7.901   0.998   0.231
 5090WAT     H115512   7.949   0.916   0.200
 5090WAT     H215513   7.947   1.037   0.310
 5091WAT      O15514   4.671   1.496   7.889
 5091WAT     H115515   4.600   1.555   7.851
 5091WAT     H215516   4.645   1.467   7.981
 5092WAT      O15517   2.603   7.174   6.351
 5092WAT     H115518   2.557   7.244   6.406
 5092WAT     H215519   2.641   7.104   6.411
 5093WAT      O15520   0.844   8.978   5.360
 5093WAT     H115521   0.780   9.039   5.313
 5093WAT     H215522   0.922   9.031   5.394
 5094WAT      O15523   4.855   1.266   9.281
 5094WAT     H115524   4.917   1.307   9.215
 5094WAT     H215525   4.788   1.209   9.232
 5095WAT      O15526   3.585   8.011   2.429
 5095WAT     H115527   3.521   8.022   2.352
 5095WAT     H215528   3.666   8.067   2.413
 5096WAT      O15529   3.527   6.214   6.844
 5096WAT     H115530   3.451   6.235   6.905
 5096WAT     H215531   3.586   6.294   6.835
 5097WAT      O15532   3.929   7.428   6.064
 5097WAT     H115533   3.906   7.497   6.133
 5097WAT     H215534   3.887   7.454   5.976
 5098WAT      O15535   6.051   0.204   5.603
 5098WAT     H115536   6.101   0.275   5.653
 5098WAT     H215537   6.100   0.117   5.611
 5099WAT      O15538   2.681   7.444   6.850
 5099WAT     H115539   2.706   7.399   6.936
 5099WAT     H215540   2.719   7.536   6.848
 5100WAT      O15541   8.555   6.081   4.238
 5100WAT     H115542   8.617   6.068   4.316
 5100WAT     H215543   8.602   6.056   4.154
 5101WAT      O15544   7.340   1.000   0.826
 5101WAT     H115545   7.340   0.919   0.768
 5101WAT     H215546   7.310   1.080   0.773
 5102WAT      O15547   9.058   2.911   5.520
 5102WAT     H115548   9.147   2.949   5.547
 5102WAT     H215549   9.037   2.832   5.578
 5103WAT      O15550   4.042   7.185   2.453
 5103WAT     H115551   4.052   7.266   2.395
 5103WAT     H215552   4.014   7.213   2.545
 5104WAT      O15553   0.775   8.773   7.487
 5104WAT     H115554   0.691   8.742   7.529
 5104WAT     H215555   0.765   8.868   7.458
 5105WAT      O15556   6.181   9.634   5.270
 5105WAT     H115557   6.101   9.605   5.321
 5105WAT     H215558   6.187   9.581   5.185
 5106WAT      O15559   4.071   7.424   3.657
 5106WAT     H115560   4.143   7.480   3.616
 5106WAT     H215561   3.984   7.473   3.651
 5107WAT      O15562   0.600   1.492   7.826
 5107WAT     H115563   0.635   1.512   7.735
 5107WAT     H215564   0.602   1.575   7.882
 5108WAT      O15565   1.723   5.228   7.986
 5108WAT     H115566   1.677   5.220   8.074
 5108WAT     H215567   1.656   5.237   7.913
 5109WAT      O15568   2.004   9.520   7.779
 5109WAT     H115569   2.102   9.504   7.769
 5109WAT     H215570   1.970   9.466   7.856
 5110WAT      O15571   8.559   7.670   8.060
 5110WAT     H115572   8.490   7.600   8.044
 5110WAT     H215573   8.558   7.736   7.986
 5111WAT      O15574   9.095   8.996   9.706
 5111WAT     H115575   9.179   8.947   9.729
 5111WAT     H215576   9.021   8.931   9.691
 5112WAT      O15577   8.052   5.544   6.852
 5112WAT     H115578   7.968   5.501   6.819
 5112WAT     H215579   8.042   5.570   6.948
 5113WAT      O15580   1.758   0.679   5.688
 5113WAT     H115581   1.785   0.697   5.782
 5113WAT     H215582   1.839   0.658   5.633
 5114WAT      O15583   5.911   5.618   3.790
 5114WAT     H115584   5.912   5.668   3.703
 5114WAT     H215585   5.817   5.611   3.823
 5115WAT      O15586   2.605   7.539   1.468
 5115WAT     H115587   2.671   7.481   1.420
 5115WAT     H215588   2.587   7.621   1.414
 5116WAT      O15589   7.996   5.102   2.536
 5116WAT     H115590   7.935   5.178   2.513
 5116WAT     H215591   8.053   5.128   2.614
 5117WAT      O15592   7.781   2.836   8.829
 5117WAT     H115593   7.733   2.889   8.899
 5117WAT     H215594   7.732   2.844   8.742
 5118WAT      O15595   1.776   5.620   6.329
 5118WAT     H115596   1.742   5.713   6.342
 5118WAT     H215597   1.780   5.599   6.232
 5119WAT      O15598   5.261   9.491   4.371
 5119WAT     H115599   5.173   9.535   4.387
 5119WAT     H215600   5.318   9.499   4.453
 5120WAT      O15601   2.868   4.961   8.777
 5120WAT     H115602   2.961   4.972   8.741
 5120WAT     H215603   2.872   4.961   8.877
 5121WAT      O15604   0.454   7.600   6.904
 5121WAT     H115605   0.526   7.549   6.953
 5121WAT     H215606   0.439   7.558   6.815
 5122WAT      O15607   2.258   7.272   1.471
 5122WAT     H115608   2.238   7.175   1.458
 5122WAT     H215609   2.230   7.299   1.563
 5123WAT      O15610   6.624   9.292   0.683
 5123WAT     H115611   6.647   9.198   0.660
 5123WAT     H215612   6.593   9.296   0.778
 5124WAT      O15613   6.592   8.569   4.655
 5124WAT     H115614   6.518   8.502   4.667
 5124WAT     H215615   6.583   8.612   4.565
 5125WAT      O15616   3.115   3.164   7.275
 5125WAT     H115617   3.170   3.189   7.196
 5125WAT     H215618   3.074   3.247   7.315
 5126WAT      O15619   1.097   0.037   5.498
 5126WAT     H115620   1.155   0.109   5.461
 5126WAT     H215621   1.124   0.017   5.592
 5127WAT      O15622   1.435   0.651   0.291
 5127WAT     H115623   1.389   0.633   0.378
 5127WAT     H215624   1.450   0.750   0.281
 5128WAT      O15625   1.301   9.605   7.491
 5128WAT     H115626   1.247   9.597   7.574
 5128WAT     H215627   1.398   9.612   7.514
 5129WAT      O15628   1.643   4.553   4.452
 5129WAT     H115629   1.623   4.475   4.511
 5129WAT     H215630   1.601   4.538   4.362
 5130WAT      O15631   2.081   3.945   7.431
 5130WAT     H115632   2.078   4.045   7.437
 5130WAT     H215633   1.999   3.906   7.473
 5131WAT      O15634   6.103   6.668   1.548
 5131WAT     H115635   6.017   6.643   1.592
 5131WAT     H215636   6.090   6.672   1.449
 5132WAT      O15637   7.304   5.623   5.899
 5132WAT     H115638   7.254   5.543   5.866
 5132WAT     H215639   7.254   5.706   5.873
 5133WAT      O15640   8.951   3.400   9.648
 5133WAT     H115641   8.961   3.481   9.591
 5133WAT     H215642   8.943   3.428   9.744
 5134WAT      O15643   0.414   3.853   7.603
 5134WAT     H115644   0.421   3.762   7.644
 5134WAT     H215645   0.494   3.870   7.545
 5135WAT      O15646   1.536   0.920   0.275
 5135WAT     H115647   1.626   0.962   0.264
 5135WAT     H215648   1.485   0.928   0.190
 5136WAT      O15649   0.904   3.287   2.452
 5136WAT     H115650   0.862   3.204   2.417
 5136WAT     H215651   0.874   3.365   2.398
 5137WAT      O15652   4.295   9.673   7.960
 5137WAT     H115653   4.237   9.754   7.948
 5137WAT     H215654   4.239   9.590   7.949
 5138WAT      O15655   7.299   5.910   2.234
 5138WAT     H115656   7.238   5.908   2.313
 5138WAT     H215657   7.272   5.983   2.172
 5139WAT      O15658   1.013   7.325   8.272
 5139WAT     H115659   1.056   7.409   8.237
 5139WAT     H215660   0.992   7.337   8.369
 5140WAT      O15661   9.786   6.090   0.607
 5140WAT     H115662   9.736   6.149   0.671
 5140WAT     H215663   9.726   6.016   0.577
 5141WAT      O15664   6.374   7.058   8.089
 5141WAT     H115665   6.381   7.097   7.997
 5141WAT     H215666   6.354   7.131   8.154
 5142WAT      O15667   3.637   3.975   0.659
 5142WAT     H115668   3.563   3.909   0.664
 5142WAT     H215669   3.720   3.930   0.626
 5143WAT      O15670   5.260   8.856   3.875
 5143WAT     H115671   5.346   8.902   3.850
 5143WAT     H215672   5.280   8.777   3.933
 5144WAT      O15673   3.749   6.065   8.697
 5144WAT     H115674   3.713   6.156   8.678
 5144WAT     H215675   3.830   6.072   8.754
 5145WAT      O15676   7.310   3.358   3.214
 5145WAT     H115677   7.357   3.427   3.270
 5145WAT     H215678   7.223   3.334   3.257
 5146WAT      O15679   5.855   8.712   2.215
 5146WAT     H115680   5.762   8.710   2.178
 5146WAT     H215681   5.917   8.666   2.152
 5147WAT      O15682   4.486   2.094   2.703
 5147WAT     H115683   4.554   2.116   2.633
 5147WAT     H215684   4.403   2.061   2.659
 5148WAT      O15685   9.288   4.349   5.307
 5148WAT     H115686   9.263   4.303   5.392
 5148WAT     H215687   9.240   4.306   5.231
 5149WAT      O15688   4.876   4.654   2.919
 5149WAT     H115689   4.808   4.682   2.850
 5149WAT     H215690   4.946   4.725   2.927
 5150WAT      O15691   5.670   9.160   5.082
 5150WAT     H115692   5.753   9.121   5.122
 5150WAT     H215693   5.622   9.214   5.151
 5151WAT      O15694   3.339   8.137   3.115
 5151WAT     H115695   3.306   8.194   3.190
 5151WAT     H215696   3.424   8.092   3.142
 5152WAT      O15697   3.025   3.118   5.396
 5152WAT     H115698   2.950   3.166   5.442
 5152WAT     H215699   2.992   3.078   5.310
 5153WAT      O15700   2.901   7.549   8.861
 5153WAT     H115701   2.931   7.570   8.768
 5153WAT     H215702   2.806   7.578   8.873
 5154WAT      O15703   4.328   9.360   8.673
 5154WAT     H115704   4.420   9.379   8.639
 5154WAT     H215705   4.316   9.401   8.763
 5155WAT      O15706   1.942   3.767   1.269
 5155WAT     H115707   1.866   3.730   1.322
 5155WAT     H215708   2.017   3.792   1.330
 5156WAT      O15709   2.648   5.529   5.901
 5156WAT     H115710   2.608   5.528   5.992
 5156WAT     H215711   2.748   5.531   5.909
 5157WAT      O15712   8.697   0.196   5.666
 5157WAT     H115713   8.643   0.183   5.748
 5157WAT     H215714   8.756   0.116   5.651
 5158WAT      O15715   0.036   9.307   9.423
 5158WAT     H115716  -0.027   9.369   9.471
 5158WAT     H215717   0.020   9.213   9.453
 5159WAT      O15718   4.562   9.158   7.008
 5159WAT     H115719   4.608   9.069   7.004
 5159WAT     H215720   4.487   9.153   7.073
 5160WAT      O15721   7.227   6.404   6.502
 5160WAT     H115722   7.287   6.483   6.514
 5160WAT     H215723   7.244   6.362   6.413
 5161WAT      O15724   0.860   6.360   8.910
 5161WAT     H115725   0.887   6.455   8.898
 5161WAT     H215726   0.930   6.300   8.869
 5162WAT      O15727   1.485   1.847   5.380
 5162WAT     H115728   1.512   1.783   5.308
 5162WAT     H215729   1.563   1.904   5.405
 5163WAT      O15730   2.485   0.536   5.292
 5163WAT     H115731   2.537   0.569   5.371
 5163WAT     H215732   2.387   0.536   5.314
 5164WAT      O15733   7.946   0.354   4.828
 5164WAT     H115734   7.936   0.287   4.755
 5164WAT     H215735   7.879   0.428   4.815
 5165WAT      O15736   9.057   5.221   5.399
 5165WAT     H115737   9.137   5.164   5.379
 5165WAT     H215738   9.031   5.209   5.495
 5166WAT      O15739   9.405   8.684   5.497
 5166WAT     H115740   9.350   8.768   5.491
 5166WAT     H215741   9.347   8.610   5.530
 5167WAT      O15742   4.104   9.678   1.574
 5167WAT     H115743   4.109   9.709   1.479
 5167WAT     H215744   4.019   9.709   1.615
 5168WAT      O15745   2.918   3.457   7.592
 5168WAT     H115746   2.855   3.532   7.613
 5168WAT     H215747   3.012   3.492   7.590
 5169WAT      O15748   3.683   4.514   3.316
 5169WAT     H115749   3.699   4.566   3.233
 5169WAT     H215750   3.738   4.552   3.391
 5170WAT      O15751   7.097   8.737   9.013
 5170WAT     H115752   7.091   8.830   8.976
 5170WAT     H215753   7.097   8.671   8.939
 5171WAT      O15754   5.271   4.721   3.620
 5171WAT     H115755   5.247   4.678   3.707
 5171WAT     H215756   5.363   4.758   3.625
 5172WAT      O15757   1.955   6.035   4.733
 5172WAT     H115758   1.970   6.086   4.648
 5172WAT     H215759   2.033   5.976   4.750
 5173WAT      O15760   7.824   5.785   6.567
 5173WAT     H115761   7.779   5.754   6.484
 5173WAT     H215762   7.755   5.804   6.637
 5174WAT      O15763   7.037   8.142   8.359
 5174WAT     H115764   6.954   8.177   8.315
 5174WAT     H215765   7.012   8.090   8.440
 5175WAT      O15766   5.195   7.612   0.933
 5175WAT     H115767   5.208   7.698   0.885
 5175WAT     H215768   5.281   7.562   0.936
 5176WAT      O15769   7.297   2.976   0.685
 5176WAT     H115770   7.206   2.949   0.715
 5176WAT     H215771   7.366   2.937   0.747
 5177WAT      O15772   7.586   7.422   6.100
 5177WAT     H115773   7.550   7.515   6.104
 5177WAT     H215774   7.686   7.425   6.092
 5178WAT      O15775   5.336   2.351   8.957
 5178WAT     H115776   5.426   2.339   8.997
 5178WAT     H215777   5.339   2.328   8.860
 5179WAT      O15778   2.256   1.189   7.823
 5179WAT     H115779   2.174   1.246   7.815
 5179WAT     H215780   2.279   1.152   7.733
 5180WAT      O15781   0.480   9.645   2.366
 5180WAT     H115782   0.427   9.575   2.414
 5180WAT     H215783   0.566   9.605   2.334
 5181WAT      O15784   2.365   2.893   9.243
 5181WAT     H115785   2.410   2.843   9.169
 5181WAT     H215786   2.368   2.991   9.224
 5182WAT      O15787   9.363   3.738   5.060
 5182WAT     H115788   9.345   3.806   5.132
 5182WAT     H215789   9.374   3.648   5.102
 5183WAT      O15790   5.596   2.593   5.441
 5183WAT     H115791   5.587   2.577   5.343
 5183WAT     H215792   5.585   2.506   5.490
 5184WAT      O15793   1.638   0.871   9.006
 5184WAT     H115794   1.644   0.806   8.930
 5184WAT     H215795   1.586   0.830   9.081
 5185WAT      O15796   4.563   0.605   3.631
 5185WAT     H115797   4.546   0.546   3.552
 5185WAT     H215798   4.504   0.686   3.625
 5186WAT      O15799   3.023   0.958   5.479
 5186WAT     H115800   2.969   0.874   5.468
 5186WAT     H215801   3.078   0.952   5.562
 5187WAT      O15802   9.784   8.502   3.328
 5187WAT     H115803   9.814   8.564   3.401
 5187WAT     H215804   9.815   8.538   3.240
 5188WAT      O15805   3.784   4.745   2.654
 5188WAT     H115806   3.826   4.815   2.711
 5188WAT     H215807   3.727   4.788   2.583
 5189WAT      O15808   3.196   8.648   5.698
 5189WAT     H115809   3.135   8.726   5.683
 5189WAT     H215810   3.145   8.563   5.689
 5190WAT      O15811   1.381   8.096   0.481
 5190WAT     H115812   1.335   8.184   0.475
 5190WAT     H215813   1.337   8.031   0.420
 5191WAT      O15814   0.173   5.273   0.231
 5191WAT     H115815   0.181   5.366   0.196
 5191WAT     H215816   0.166   5.209   0.155
 5192WAT      O15817   3.894   4.295   3.921
 5192WAT     H115818   3.962   4.235   3.879
 5192WAT     H215819   3.939   4.363   3.978
 5193WAT      O15820   3.792   7.243   3.826
 5193WAT     H115821   3.836   7.309   3.764
 5193WAT     H215822   3.792   7.153   3.784
 5194WAT      O15823   3.060   6.983   0.161
 5194WAT     H115824   3.012   6.918   0.102
 5194WAT     H215825   3.159   6.969   0.153
 5195WAT      O15826   3.312   0.792   9.244
 5195WAT     H115827   3.391   0.846   9.271
 5195WAT     H215828   3.324   0.697   9.275
 5196WAT      O15829   2.589   2.516   1.215
 5196WAT     H115830   2.560   2.561   1.130
 5196WAT     H215831   2.604   2.586   1.285
 5197WAT      O15832   8.551   9.040   6.123
 5197WAT     H115833   8.505   9.014   6.038
 5197WAT     H215834   8.588   9.132   6.114
 5198WAT      O15835   9.041   9.389   6.087
 5198WAT     H115836   9.012   9.327   6.160
 5198WAT     H215837   9.140   9.386   6.078
 5199WAT      O15838   5.276   5.204   1.505
 5199WAT     H115839   5.296   5.107   1.495
 5199WAT     H215840   5.236   5.239   1.420
 5200WAT      O15841   2.107   3.054   2.318
 5200WAT     H115842   2.119   2.957   2.337
 5200WAT     H215843   2.043   3.094   2.384
 5201WAT      O15844   5.632   3.935   9.032
 5201WAT     H115845   5.608   4.026   8.999
 5201WAT     H215846   5.702   3.895   8.972
 5202WAT      O15847   6.446   8.806   8.269
 5202WAT     H115848   6.478   8.712   8.260
 5202WAT     H215849   6.400   8.817   8.357
 5203WAT      O15850   6.881   0.643   5.554
 5203WAT     H115851   6.825   0.656   5.636
 5203WAT     H215852   6.873   0.548   5.523
 5204WAT      O15853   9.799   5.030   7.944
 5204WAT     H115854   9.851   5.037   8.030
 5204WAT     H215855   9.853   4.980   7.877
 5205WAT      O15856   2.750   8.063   3.999
 5205WAT     H115857   2.818   8.023   4.061
 5205WAT     H215858   2.708   8.142   4.044
 5206WAT      O15859   5.347   2.166   7.573
 5206WAT     H115860   5.249   2.185   7.580
 5206WAT     H215861   5.374   2.102   7.644
 5207WAT      O15862   8.652   3.421   6.808
 5207WAT     H115863   8.662   3.356   6.884
 5207WAT     H215864   8.622   3.509   6.844
 5208WAT      O15865   4.582   4.355   5.831
 5208WAT     H115866   4.545   4.325   5.743
 5208WAT     H215867   4.510   4.354   5.900
 5209WAT      O15868   8.135   7.259   6.982
 5209WAT     H115869   8.059   7.315   7.013
 5209WAT     H215870   8.200   7.316   6.932
 5210WAT      O15871   3.128   7.157   4.414
 5210WAT     H115872   3.082   7.077   4.452
 5210WAT     H215873   3.063   7.208   4.356
 5211WAT      O15874   1.293   0.134   5.111
 5211WAT     H115875   1.374   0.163   5.059
 5211WAT     H215876   1.321   0.100   5.201
 5212WAT      O15877   3.749   9.421   7.379
 5212WAT     H115878   3.657   9.427   7.340
 5212WAT     H215879   3.784   9.513   7.396
 5213WAT      O15880   2.536   9.032   1.345
 5213WAT     H115881   2.630   9.058   1.326
 5213WAT     H215882   2.534   8.954   1.407
 5214WAT      O15883   0.892   9.751   9.565
 5214WAT     H115884   0.969   9.688   9.557
 5214WAT     H215885   0.879   9.800   9.479
 5215WAT      O15886   7.492   4.311   1.559
 5215WAT     H115887   7.555   4.353   1.494
 5215WAT     H215888   7.409   4.282   1.511
 5216WAT      O15889   1.638   6.560   6.132
 5216WAT     H115890   1.671   6.516   6.049
 5216WAT     H215891   1.553   6.517   6.162
 5217WAT      O15892   8.878   0.174   9.881
 5217WAT     H115893   8.792   0.209   9.917
 5217WAT     H215894   8.861   0.085   9.837
 5218WAT      O15895   9.372   5.439   5.355
 5218WAT     H115896   9.447   5.391   5.400
 5218WAT     H215897   9.359   5.401   5.263
 5219WAT      O15898   9.212   3.326   2.531
 5219WAT     H115899   9.221   3.295   2.436
 5219WAT     H215900   9.205   3.246   2.591
 5220WAT      O15901   1.318   8.280   2.846
 5220WAT     H115902   1.370   8.327   2.774
 5220WAT     H215903   1.248   8.342   2.881
 5221WAT      O15904   1.561   2.192   7.777
 5221WAT     H115905   1.479   2.248   7.783
 5221WAT     H215906   1.628   2.237   7.719
 5222WAT      O15907   1.120   6.781   3.126
 5222WAT     H115908   1.062   6.724   3.184
 5222WAT     H215909   1.078   6.791   3.036
 5223WAT      O15910   4.092   6.197   2.182
 5223WAT     H115911   4.026   6.235   2.247
 5223WAT     H215912   4.075   6.235   2.091
 5224WAT      O15913   2.076   8.533   5.147
 5224WAT     H115914   2.103   8.627   5.127
 5224WAT     H215915   2.154   8.484   5.186
 5225WAT      O15916   7.607   5.535   7.211
 5225WAT     H115917   7.671   5.491   7.275
 5225WAT     H215918   7.513   5.512   7.237
 5226WAT      O15919   9.833   1.579   6.916
 5226WAT     H115920   9.885   1.538   6.991
 5226WAT     H215921   9.827   1.514   6.840
 5227WAT      O15922   8.541   8.737   1.109
 5227WAT     H115923   8.584   8.648   1.092
 5227WAT     H215924   8.443   8.730   1.088
 5228WAT      O15925   9.711   2.264   3.495
 5228WAT     H115926   9.778   2.275   3.569
 5228WAT     H215927   9.749   2.301   3.411
 5229WAT      O15928   3.892   5.181   1.866
 5229WAT     H115929   3.887   5.121   1.786
 5229WAT     H215930   3.953   5.258   1.846
 5230WAT      O15931   7.565   1.400   5.397
 5230WAT     H115932   7.641   1.444   5.446
 5230WAT     H215933   7.562   1.434   5.303
 5231WAT      O15934   9.205   6.833   6.236
 5231WAT     H115935   9.248   6.822   6.147
 5231WAT     H215936   9.123   6.890   6.227
 5232WAT      O15937   2.771   3.182   5.484
 5232WAT     H115938   2.726   3.095   5.466
 5232WAT     H215939   2.705   3.256   5.479
 5233WAT      O15940   5.384   4.430   8.926
 5233WAT     H115941   5.372   4.529   8.937
 5233WAT     H215942   5.331   4.382   8.995
 5234WAT      O15943   1.643   8.852   8.800
 5234WAT     H115944   1.641   8.845   8.700
 5234WAT     H215945   1.597   8.772   8.840
 5235WAT      O15946   7.574   9.787   5.596
 5235WAT     H115947   7.502   9.845   5.559
 5235WAT     H215948   7.539   9.736   5.674
 5236WAT      O15949   0.633   4.634   2.183
 5236WAT     H115950   0.691   4.685   2.246
 5236WAT     H215951   0.539   4.634   2.217
 5237WAT      O15952   6.579   1.625   5.327
 5237WAT     H115953   6.521   1.681   5.387
 5237WAT     H215954   6.661   1.597   5.377
 5238WAT      O15955   1.482   2.602   6.754
 5238WAT     H115956   1.519   2.683   6.800
 5238WAT     H215957   1.413   2.559   6.813
 5239WAT      O15958   2.936   0.013   2.091
 5239WAT     H115959   2.950   0.022   1.992
 5239WAT     H215960   2.863  -0.054   2.108
 5240WAT      O15961   3.872   4.877   9.535
 5240WAT     H115962   3.923   4.792   9.520
 5240WAT     H215963   3.923   4.935   9.598
 5241WAT      O15964   4.479   8.768   4.856
 5241WAT     H115965   4.461   8.671   4.865
 5241WAT     H215966   4.460   8.814   4.943
 5242WAT      O15967   2.496   2.929   1.564
 5242WAT     H115968   2.583   2.955   1.605
 5242WAT     H215969   2.428   3.000   1.582
 5243WAT      O15970   4.323   3.828   2.777
 5243WAT     H115971   4.329   3.754   2.844
 5243WAT     H215972   4.355   3.796   2.688
 5244WAT      O15973   9.785   1.326   4.972
 5244WAT     H115974   9.839   1.272   4.907
 5244WAT     H215975   9.758   1.269   5.049
 5245WAT      O15976   7.954   7.858   0.511
 5245WAT     H115977   7.867   7.832   0.470
 5245WAT     H215978   7.972   7.800   0.591
 5246WAT      O15979   9.819   7.403   2.320
 5246WAT     H115980   9.905   7.383   2.366
 5246WAT     H215981   9.817   7.500   2.296
 5247WAT      O15982   0.911   1.869   5.423
 5247WAT     H115983   0.919   1.920   5.509
 5247WAT     H215984   0.823   1.889   5.381
 5248WAT      O15985   5.056   2.309   9.232
 5248WAT     H115986   5.073   2.376   9.160
 5248WAT     H215987   5.077   2.217   9.198
 5249WAT      O15988   5.310   0.687   4.993
 5249WAT     H115989   5.283   0.783   4.985
 5249WAT     H215990   5.236   0.628   4.959
 5250WAT      O15991   2.521   6.504   1.822
 5250WAT     H115992   2.505   6.589   1.872
 5250WAT     H215993   2.435   6.473   1.781
 5251WAT      O15994   4.272   5.046   0.630
 5251WAT     H115995   4.273   4.979   0.704
 5251WAT     H215996   4.365   5.059   0.595
 5252WAT      O15997   2.623   4.216   6.607
 5252WAT     H115998   2.581   4.280   6.672
 5252WAT     H215999   2.571   4.215   6.522
 5253WAT      O16000   6.184   9.572   9.079
 5253WAT     H116001   6.276   9.554   9.042
 5253WAT     H216002   6.187   9.565   9.179
 5254WAT      O16003   6.171   2.942   5.203
 5254WAT     H116004   6.221   2.855   5.200
 5254WAT     H216005   6.201   2.995   5.282
 5255WAT      O16006   3.737   9.736   9.043
 5255WAT     H116007   3.682   9.672   9.097
 5255WAT     H216008   3.823   9.692   9.018
 5256WAT      O16009   9.570   6.036   1.416
 5256WAT     H116010   9.526   5.994   1.496
 5256WAT     H216011   9.507   6.101   1.374
 5257WAT      O16012   1.245   3.929   4.863
 5257WAT     H116013   1.299   3.873   4.925
 5257WAT     H216014   1.148   3.921   4.886
 5258WAT      O16015   7.378   4.788   6.967
 5258WAT     H116016   7.363   4.696   6.930
 5258WAT     H216017   7.301   4.846   6.940
 5259WAT      O16018   5.749   0.265   0.769
 5259WAT     H116019   5.681   0.198   0.741
 5259WAT     H216020   5.712   0.322   0.843
 5260WAT      O16021   8.055   5.764   2.107
 5260WAT     H116022   8.034   5.857   2.078
 5260WAT     H216023   7.974   5.725   2.153
 5261WAT      O16024   7.162   8.584   2.197
 5261WAT     H116025   7.154   8.656   2.127
 5261WAT     H216026   7.258   8.570   2.219
 5262WAT      O16027   4.405   2.516   4.409
 5262WAT     H116028   4.356   2.588   4.458
 5262WAT     H216029   4.498   2.547   4.389
 5263WAT      O16030   9.110   0.948   9.256
 5263WAT     H116031   9.156   1.036   9.244
 5263WAT     H216032   9.179   0.877   9.273
 5264WAT      O16033   8.522   5.620   9.787
 5264WAT     H116034   8.583   5.540   9.782
 5264WAT     H216035   8.573   5.699   9.820
 5265WAT      O16036   6.743   2.294   5.504
 5265WAT     H116037   6.696   2.207   5.487
 5265WAT     H216038   6.719   2.327   5.595
 5266WAT      O16039   1.873   1.920   2.888
 5266WAT     H116040   1.886   1.821   2.895
 5266WAT     H216041   1.819   1.952   2.966
 5267WAT      O16042   7.863   4.895   9.848
 5267WAT     H116043   7.778   4.851   9.821
 5267WAT     H216044   7.883   4.875   9.944
 5268WAT      O16045   4.978   2.598   7.144
 5268WAT     H116046   4.925   2.676   7.176
 5268WAT     H216047   5.037   2.626   7.068
 5269WAT      O16048   8.213   7.707   5.201
 5269WAT     H116049   8.312   7.705   5.191
 5269WAT     H216050   8.181   7.801   5.192
 5270WAT      O16051   5.240   2.059   1.259
 5270WAT     H116052   5.293   2.125   1.313
 5270WAT     H216053   5.188   1.999   1.320
 5271WAT      O16054   0.567   6.721   4.456
 5271WAT     H116055   0.525   6.640   4.416
 5271WAT     H216056   0.582   6.789   4.384
 5272WAT      O16057   2.726   7.553   8.134
 5272WAT     H116058   2.670   7.634   8.118
 5272WAT     H216059   2.822   7.576   8.121
 5273WAT      O16060   2.930   7.893   7.198
 5273WAT     H116061   2.894   7.896   7.291
 5273WAT     H216062   3.030   7.888   7.200
 5274WAT      O16063   7.451   8.523   9.333
 5274WAT     H116064   7.474   8.618   9.310
 5274WAT     H216065   7.400   8.482   9.257
 5275WAT      O16066   4.217   6.955   7.518
 5275WAT     H116067   4.185   6.938   7.425
 5275WAT     H216068   4.215   7.053   7.536
 5276WAT      O16069   7.443   6.892   0.173
 5276WAT     H116070   7.536   6.853   0.177
 5276WAT     H216071   7.384   6.840   0.235
 5277WAT      O16072   5.742   1.715   6.443
 5277WAT     H116073   5.806   1.760   6.505
 5277WAT     H216074   5.649   1.748   6.459
 5278WAT      O16075   6.903   0.343   0.907
 5278WAT     H116076   6.971   0.384   0.967
 5278WAT     H216077   6.909   0.384   0.816
 5279WAT      O16078   6.739   3.690   6.940
 5279WAT     H116079   6.647   3.658   6.918
 5279WAT     H216080   6.783   3.726   6.858
 5280WAT      O16081   7.438   9.651   8.031
 5280WAT     H116082   7.471   9.557   8.017
 5280WAT     H216083   7.466   9.683   8.122
 5281WAT      O16084   7.109   1.481   0.117
 5281WAT     H116085   7.055   1.535   0.052
 5281WAT     H216086   7.049   1.420   0.169
 5282WAT      O16087   9.155   2.347   4.670
 5282WAT     H116088   9.139   2.425   4.731
 5282WAT     H216089   9.199   2.274   4.722
 5283WAT      O16090   5.723   8.910   2.978
 5283WAT     H116091   5.787   8.868   2.915
 5283WAT     H216092   5.629   8.887   2.950
 5284WAT      O16093   9.385   5.184   9.708
 5284WAT     H116094   9.364   5.281   9.696
 5284WAT     H216095   9.423   5.147   9.623
 5285WAT      O16096   7.763   7.858   7.626
 5285WAT     H116097   7.690   7.795   7.598
 5285WAT     H216098   7.722   7.942   7.660
 5286WAT      O16099   0.402   3.817   8.967
 5286WAT     H116100   0.323   3.807   8.907
 5286WAT     H216101   0.484   3.832   8.911
 5287WAT      O16102   8.228   9.199   5.319
 5287WAT     H116103   8.217   9.276   5.256
 5287WAT     H216104   8.142   9.185   5.369
 5288WAT      O16105   8.268   3.755   7.814
 5288WAT     H116106   8.346   3.715   7.863
 5288WAT     H216107   8.301   3.817   7.743
 5289WAT      O16108   8.697   2.881   6.791
 5289WAT     H116109   8.753   2.954   6.749
 5289WAT     H216110   8.617   2.865   6.734
 5290WAT      O16111   1.939   8.733   4.522
 5290WAT     H116112   1.852   8.690   4.546
 5290WAT     H216113   1.922   8.827   4.492
 5291WAT      O16114   2.317   5.773   3.399
 5291WAT     H116115   2.358   5.790   3.488
 5291WAT     H216116   2.390   5.764   3.330
 5292WAT      O16117   3.718   4.844   8.729
 5292WAT     H116118   3.758   4.857   8.638
 5292WAT     H216119   3.667   4.758   8.730
 5293WAT      O16120   6.550   5.385   2.637
 5293WAT     H116121   6.596   5.372   2.724
 5293WAT     H216122   6.515   5.478   2.631
 5294WAT      O16123   1.829   4.730   0.397
 5294WAT     H116124   1.883   4.664   0.449
 5294WAT     H216125   1.731   4.713   0.412
 5295WAT      O16126   3.259   1.096   7.742
 5295WAT     H116127   3.241   1.015   7.798
 5295WAT     H216128   3.274   1.068   7.647
 5296WAT      O16129   9.119   6.603   1.422
 5296WAT     H116130   9.137   6.674   1.490
 5296WAT     H216131   9.075   6.525   1.467
 5297WAT      O16132   9.369   0.988   1.886
 5297WAT     H116133   9.468   0.989   1.900
 5297WAT     H216134   9.323   1.005   1.974
 5298WAT      O16135   8.120   1.798   1.077
 5298WAT     H116136   8.106   1.877   1.017
 5298WAT     H216137   8.066   1.721   1.044
 5299WAT      O16138   8.549   3.826   0.966
 5299WAT     H116139   8.493   3.744   0.972
 5299WAT     H216140   8.609   3.831   1.046
 5300WAT      O16141   0.182   2.274   6.350
 5300WAT     H116142   0.237   2.357   6.349
 5300WAT     H216143   0.126   2.272   6.432
 5301WAT      O16144   1.580   0.766   9.738
 5301WAT     H116145   1.581   0.827   9.659
 5301WAT     H216146   1.489   0.725   9.747
 5302WAT      O16147   2.060   1.804   6.519
 5302WAT     H116148   2.058   1.770   6.613
 5302WAT     H216149   2.084   1.901   6.520
 5303WAT      O16150   4.644   5.764   4.944
 5303WAT     H116151   4.703   5.684   4.941
 5303WAT     H216152   4.552   5.737   4.972
 5304WAT      O16153   7.256   4.707   7.513
 5304WAT     H116154   7.245   4.616   7.554
 5304WAT     H216155   7.294   4.697   7.421
 5305WAT      O16156   6.052   5.250   0.544
 5305WAT     H116157   6.018   5.185   0.476
 5305WAT     H216158   6.094   5.328   0.498
 5306WAT      O16159   1.767   2.155   5.760
 5306WAT     H116160   1.698   2.157   5.832
 5306WAT     H216161   1.824   2.237   5.765
 5307WAT      O16162   9.242   8.340   8.665
 5307WAT     H116163   9.162   8.337   8.726
 5307WAT     H216164   9.229   8.412   8.597
 5308WAT      O16165   1.892   6.433   2.565
 5308WAT     H116166   1.822   6.469   2.627
 5308WAT     H216167   1.967   6.393   2.618
 5309WAT      O16168   1.674   2.508   7.239
 5309WAT     H116169   1.713   2.579   7.181
 5309WAT     H216170   1.697   2.418   7.201
 5310WAT      O16171   1.362   8.180   5.881
 5310WAT     H116172   1.368   8.160   5.783
 5310WAT     H216173   1.312   8.265   5.895
 5311WAT      O16174   4.364   1.151   7.189
 5311WAT     H116175   4.389   1.063   7.229
 5311WAT     H216176   4.439   1.184   7.132
 5312WAT      O16177   4.932   8.531   7.197
 5312WAT     H116178   4.942   8.476   7.114
 5312WAT     H216179   4.947   8.473   7.277
 5313WAT      O16180   2.155   3.276   0.368
 5313WAT     H116181   2.102   3.192   0.359
 5313WAT     H216182   2.147   3.310   0.462
 5314WAT      O16183   2.499   6.940   2.179
 5314WAT     H116184   2.508   6.865   2.245
 5314WAT     H216185   2.590   6.974   2.155
 5315WAT      O16186   3.114   9.247   5.555
 5315WAT     H116187   3.161   9.335   5.560
 5315WAT     H216188   3.029   9.252   5.608
 5316WAT      O16189   2.765   0.227   1.510
 5316WAT     H116190   2.805   0.312   1.544
 5316WAT     H216191   2.729   0.241   1.417
 5317WAT      O16192   7.229   2.386   0.355
 5317WAT     H116193   7.201   2.294   0.385
 5317WAT     H216194   7.191   2.454   0.417
 5318WAT      O16195   2.313   3.199   5.764
 5318WAT     H116196   2.234   3.252   5.794
 5318WAT     H216197   2.331   3.125   5.829
 5319WAT      O16198   7.790   9.150   7.374
 5319WAT     H116199   7.770   9.054   7.351
 5319WAT     H216200   7.888   9.159   7.393
 5320WAT      O16201   5.697   0.739   0.703
 5320WAT     H116202   5.760   0.687   0.760
 5320WAT     H216203   5.628   0.782   0.761
 5321WAT      O16204   6.077   5.120   1.471
 5321WAT     H116205   6.169   5.151   1.445
 5321WAT     H216206   6.025   5.097   1.389
 5322WAT      O16207   1.758   4.908   4.612
 5322WAT     H116208   1.812   4.825   4.626
 5322WAT     H216209   1.675   4.885   4.561
 5323WAT      O16210   0.963   7.453   6.379
 5323WAT     H116211   0.931   7.543   6.409
 5323WAT     H216212   0.927   7.434   6.288
 5324WAT      O16213   0.950   7.779   3.169
 5324WAT     H116214   0.978   7.765   3.264
 5324WAT     H216215   0.951   7.691   3.121
 5325WAT      O16216   8.593   4.657   5.564
 5325WAT     H116217   8.555   4.730   5.621
 5325WAT     H216218   8.617   4.693   5.474
 5326WAT      O16219   2.422   2.186   3.338
 5326WAT     H116220   2.445   2.222   3.248
 5326WAT     H216221   2.493   2.122   3.368
 5327WAT      O16222   5.407   1.036   4.657
 5327WAT     H116223   5.452   1.077   4.736
 5327WAT     H216224   5.460   0.958   4.625
 5328WAT      O16225   4.080   0.416   5.683
 5328WAT     H116226   4.097   0.490   5.748
 5328WAT     H216227   4.141   0.427   5.604
 5329WAT      O16228   5.853   6.852   9.164
 5329WAT     H116229   5.771   6.795   9.170
 5329WAT     H216230   5.888   6.851   9.071
 5330WAT      O16231   6.553   4.692   8.053
 5330WAT     H116232   6.627   4.651   8.108
 5330WAT     H216233   6.592   4.738   7.973
 5331WAT      O16234   8.083   4.713   9.719
 5331WAT     H116235   8.070   4.744   9.625
 5331WAT     H216236   8.029   4.771   9.780
 5332WAT      O16237   1.543   1.078   5.137
 5332WAT     H116238   1.525   1.078   5.039
 5332WAT     H216239   1.507   0.994   5.178
 5333WAT      O16240   6.685   4.247   4.779
 5333WAT     H116241   6.697   4.345   4.764
 5333WAT     H216242   6.757   4.214   4.840
 5334WAT      O16243   5.784   8.257   1.325
 5334WAT     H116244   5.882   8.277   1.323
 5334WAT     H216245   5.755   8.241   1.419
 5335WAT      O16246   5.760   0.609   0.958
 5335WAT     H116247   5.850   0.570   0.978
 5335WAT     H216248   5.728   0.661   1.037
 5336WAT      O16249   3.468   8.494   4.136
 5336WAT     H116250   3.425   8.411   4.099
 5336WAT     H216251   3.567   8.484   4.133
 5337WAT      O16252   2.476   1.221   7.999
 5337WAT     H116253   2.406   1.194   7.933
 5337WAT     H216254   2.551   1.155   7.998
 5338WAT      O16255   3.446   1.571   6.778
 5338WAT     H116256   3.380   1.599   6.848
 5338WAT     H216257   3.519   1.516   6.820
 5339WAT      O16258   2.389   3.409   4.676
 5339WAT     H116259   2.406   3.480   4.744
 5339WAT     H216260   2.312   3.436   4.617
 5340WAT      O16261   2.086   9.022   2.843
 5340WAT     H116262   2.133   9.087   2.784
 5340WAT     H216263   2.044   9.071   2.920
 5341WAT      O16264   2.892   8.470   4.662
 5341WAT     H116265   2.916   8.550   4.608
 5341WAT     H216266   2.835   8.409   4.607
 5342WAT      O16267   3.323   2.598   2.991
 5342WAT     H116268   3.242   2.601   2.933
 5342WAT     H216269   3.333   2.506   3.029
 5343WAT      O16270   6.117   6.093   6.013
 5343WAT     H116271   6.152   6.186   6.005
 5343WAT     H216272   6.092   6.075   6.108
 5344WAT      O16273   9.100   6.929   8.023
 5344WAT     H116274   9.169   6.863   7.991
 5344WAT     H216275   9.108   6.941   8.121
 5345WAT      O16276   2.268   2.518   1.054
 5345WAT     H116277   2.280   2.496   1.151
 5345WAT     H216278   2.210   2.448   1.011
 5346WAT      O16279   1.894   7.136   8.248
 5346WAT     H116280   1.902   7.129   8.148
 5346WAT     H216281   1.932   7.224   8.278
 5347WAT      O16282   6.088   9.569   0.462
 5347WAT     H116283   6.173   9.621   0.472
 5347WAT     H216284   6.093   9.487   0.518
 5348WAT      O16285   7.746   4.045   4.998
 5348WAT     H116286   7.665   4.101   4.978
 5348WAT     H216287   7.751   3.970   4.932
 5349WAT      O16288   7.545   4.921   9.196
 5349WAT     H116289   7.500   4.856   9.135
 5349WAT     H216290   7.477   4.962   9.257
 5350WAT      O16291   8.388   2.808   5.976
 5350WAT     H116292   8.347   2.885   5.928
 5350WAT     H216293   8.483   2.798   5.948
 5351WAT      O16294   0.966   6.767   2.029
 5351WAT     H116295   1.009   6.801   2.112
 5351WAT     H216296   0.883   6.717   2.053
 5352WAT      O16297   4.982   6.130   5.693
 5352WAT     H116298   4.916   6.191   5.737
 5352WAT     H216299   4.947   6.036   5.694
 5353WAT      O16300   2.581   6.745   7.844
 5353WAT     H116301   2.586   6.672   7.775
 5353WAT     H216302   2.486   6.755   7.874
 5354WAT      O16303   9.834   5.444   5.450
 5354WAT     H116304   9.898   5.427   5.525
 5354WAT     H216305   9.883   5.484   5.373
 5355WAT      O16306   6.720   9.720   7.214
 5355WAT     H116307   6.820   9.730   7.218
 5355WAT     H216308   6.678   9.807   7.239
 5356WAT      O16309   9.017   4.730   4.244
 5356WAT     H116310   9.035   4.679   4.159
 5356WAT     H216311   9.040   4.826   4.231
 5357WAT      O16312   5.029   9.833   9.270
 5357WAT     H116313   4.948   9.886   9.294
 5357WAT     H216314   5.002   9.744   9.234
 5358WAT      O16315   7.232   6.628   1.998
 5358WAT     H116316   7.136   6.597   1.998
 5358WAT     H216317   7.242   6.703   1.933
 5359WAT      O16318   5.297   5.974   4.083
 5359WAT     H116319   5.350   5.892   4.103
 5359WAT     H216320   5.269   6.017   4.168
 5360WAT      O16321   8.095   2.736   6.862
 5360WAT     H116322   8.184   2.735   6.908
 5360WAT     H216323   8.054   2.827   6.872
 5361WAT      O16324   5.790   1.389   5.156
 5361WAT     H116325   5.807   1.376   5.253
 5361WAT     H216326   5.864   1.346   5.103
 5362WAT      O16327   0.180   0.204   8.186
 5362WAT     H116328   0.174   0.293   8.232
 5362WAT     H216329   0.090   0.161   8.186
 5363WAT      O16330   6.664   8.975   4.966
 5363WAT     H116331   6.642   9.053   5.024
 5363WAT     H216332   6.663   8.891   5.021
 5364WAT      O16333   0.900   6.652   4.841
 5364WAT     H116334   0.863   6.729   4.789
 5364WAT     H216335   0.966   6.602   4.785
 5365WAT      O16336   7.786   2.673   3.842
 5365WAT     H116337   7.883   2.661   3.866
 5365WAT     H216338   7.730   2.654   3.923
 5366WAT      O16339   0.485   4.775   6.003
 5366WAT     H116340   0.516   4.683   5.976
 5366WAT     H216341   0.476   4.832   5.922
 5367WAT      O16342   2.343   4.945   2.905
 5367WAT     H116343   2.341   4.858   2.953
 5367WAT     H216344   2.311   4.932   2.811
 5368WAT      O16345   0.099   1.880   8.164
 5368WAT     H116346   0.190   1.853   8.132
 5368WAT     H216347   0.060   1.946   8.100
 5369WAT      O16348   5.278   6.826   1.634
 5369WAT     H116349   5.309   6.761   1.704
 5369WAT     H216350   5.342   6.826   1.558
 5370WAT      O16351   7.342   0.484   5.687
 5370WAT     H116352   7.274   0.539   5.736
 5370WAT     H216353   7.433   0.509   5.719
 5371WAT      O16354   0.215   0.343   8.525
 5371WAT     H116355   0.306   0.322   8.489
 5371WAT     H216356   0.155   0.264   8.510
 5372WAT      O16357   1.681   6.812   6.198
 5372WAT     H116358   1.628   6.858   6.127
 5372WAT     H216359   1.674   6.713   6.186
 5373WAT      O16360   0.520   6.061   3.768
 5373WAT     H116361   0.577   6.005   3.709
 5373WAT     H216362   0.471   6.128   3.713
 5374WAT      O16363   7.001   7.047   6.767
 5374WAT     H116364   6.924   7.002   6.813
 5374WAT     H216365   7.064   7.083   6.837
 5375WAT      O16366   8.033   8.029   7.968
 5375WAT     H116367   7.972   8.016   7.889
 5375WAT     H216368   8.034   7.946   8.023
 5376WAT      O16369   1.940   8.296   1.117
 5376WAT     H116370   1.968   8.200   1.113
 5376WAT     H216371   1.887   8.312   1.201
 5377WAT      O16372   3.917   0.834   8.679
 5377WAT     H116373   3.926   0.920   8.728
 5377WAT     H216374   3.822   0.803   8.682
 5378WAT      O16375   2.838   1.102   3.488
 5378WAT     H116376   2.782   1.075   3.410
 5378WAT     H216377   2.934   1.107   3.459
 5379WAT      O16378   5.715   7.880   2.888
 5379WAT     H116379   5.783   7.811   2.864
 5379WAT     H216380   5.624   7.838   2.891
 5380WAT      O16381   7.337   9.278   7.463
 5380WAT     H116382   7.252   9.312   7.423
 5380WAT     H216383   7.331   9.179   7.475
 5381WAT      O16384   9.533   1.598   2.930
 5381WAT     H116385   9.521   1.556   2.840
 5381WAT     H216386   9.447   1.592   2.981
 5382WAT      O16387   8.503   3.613   9.563
 5382WAT     H116388   8.431   3.682   9.559
 5382WAT     H216389   8.464   3.526   9.593
 5383WAT      O16390   5.189   1.666   9.423
 5383WAT     H116391   5.276   1.675   9.375
 5383WAT     H216392   5.114   1.680   9.358
 5384WAT      O16393   6.446   7.591   1.111
 5384WAT     H116394   6.532   7.576   1.160
 5384WAT     H216395   6.464   7.602   1.013
 5385WAT      O16396   6.700   5.523   6.042
 5385WAT     H116397   6.701   5.468   6.125
 5385WAT     H216398   6.789   5.517   5.997
 5386WAT      O16399   3.033   0.953   8.363
 5386WAT     H116400   2.984   0.881   8.314
 5386WAT     H216401   2.972   0.994   8.431
 5387WAT      O16402   2.296   5.380   7.728
 5387WAT     H116403   2.306   5.294   7.677
 5387WAT     H216404   2.206   5.382   7.771
 5388WAT      O16405   5.291   1.096   2.406
 5388WAT     H116406   5.241   1.119   2.489
 5388WAT     H216407   5.289   1.174   2.343
 5389WAT      O16408   3.168   8.839   7.671
 5389WAT     H116409   3.104   8.824   7.595
 5389WAT     H216410   3.158   8.932   7.705
 5390WAT      O16411   3.739   9.044   9.017
 5390WAT     H116412   3.731   8.965   9.078
 5390WAT     H216413   3.805   9.023   8.945
 5391WAT      O16414   3.989   0.925   6.720
 5391WAT     H116415   3.956   1.010   6.677
 5391WAT     H216416   4.064   0.888   6.665
 5392WAT      O16417   0.206   7.543   3.506
 5392WAT     H116418   0.143   7.612   3.541
 5392WAT     H216419   0.167   7.452   3.520
 5393WAT      O16420   4.151   7.093   5.924
 5393WAT     H116421   4.144   7.160   5.998
 5393WAT     H216422   4.205   7.015   5.955
 5394WAT      O16423   0.918   0.610   2.346
 5394WAT     H116424   0.975   0.587   2.268
 5394WAT     H216425   0.940   0.550   2.423
 5395WAT      O16426   1.576   5.947   6.900
 5395WAT     H116427   1.549   5.913   6.990
 5395WAT     H216428   1.506   6.010   6.866
 5396WAT      O16429   0.078   2.267   1.862
 5396WAT     H116430   0.126   2.282   1.775
 5396WAT     H216431   0.012   2.193   1.850
 5397WAT      O16432   6.203   2.697   7.938
 5397WAT     H116433   6.156   2.616   7.900
 5397WAT     H216434   6.241   2.674   8.027
 5398WAT      O16435   3.193   0.252   0.107
 5398WAT     H116436   3.292   0.244   0.105
 5398WAT     H216437   3.155   0.179   0.165
 5399WAT      O16438   4.954   6.030   3.717
 5399WAT     H116439   4.857   6.023   3.741
 5399WAT     H216440   5.008   5.978   3.782
 5400WAT      O16441   5.936   3.346   3.465
 5400WAT     H116442   5.926   3.344   3.565
 5400WAT     H216443   5.845   3.350   3.423
 5401WAT      O16444   3.104   9.535   9.280
 5401WAT     H116445   3.113   9.471   9.357
 5401WAT     H216446   3.119   9.485   9.194
 5402WAT      O16447   3.333   6.369   4.462
 5402WAT     H116448   3.370   6.410   4.545
 5402WAT     H216449   3.292   6.281   4.483
 5403WAT      O16450   3.689   3.797   3.540
 5403WAT     H116451   3.591   3.807   3.519
 5403WAT     H216452   3.712   3.857   3.616
 5404WAT      O16453   6.645   6.029   7.730
 5404WAT     H116454   6.633   6.036   7.829
 5404WAT     H216455   6.562   5.992   7.689
 5405WAT      O16456   8.980   7.954   4.132
 5405WAT     H116457   9.035   8.029   4.095
 5405WAT     H216458   8.952   7.977   4.226
 5406WAT      O16459   7.292   7.704   2.170
 5406WAT     H116460   7.225   7.635   2.142
 5406WAT     H216461   7.285   7.784   2.111
 5407WAT      O16462   8.593   8.330   7.085
 5407WAT     H116463   8.640   8.242   7.078
 5407WAT     H216464   8.566   8.360   6.993
 5408WAT      O16465   6.683   6.372   3.096
 5408WAT     H116466   6.660   6.275   3.098
 5408WAT     H216467   6.777   6.384   3.127
 5409WAT      O16468   7.556   0.148   0.116
 5409WAT     H116469   7.510   0.065   0.083
 5409WAT     H216470   7.503   0.228   0.090
 5410WAT      O16471   5.406   5.529   3.459
 5410WAT     H116472   5.411   5.605   3.394
 5410WAT     H216473   5.370   5.448   3.414
 5411WAT      O16474   7.616   5.641   7.682
 5411WAT     H116475   7.658   5.686   7.603
 5411WAT     H216476   7.675   5.650   7.761
 5412WAT      O16477   1.257   0.281   3.149
 5412WAT     H116478   1.349   0.302   3.118
 5412WAT     H216479   1.259   0.259   3.247
 5413WAT      O16480   6.591   2.114   2.160
 5413WAT     H116481   6.597   2.124   2.060
 5413WAT     H216482   6.645   2.036   2.189
 5414WAT      O16483   7.443   4.521   9.405
 5414WAT     H116484   7.478   4.615   9.400
 5414WAT     H216485   7.480   4.468   9.329
 5415WAT      O16486   8.167   0.232   6.791
 5415WAT     H116487   8.252   0.221   6.741
 5415WAT     H216488   8.131   0.142   6.816
 5416WAT      O16489   8.589   2.500   1.874
 5416WAT     H116490   8.582   2.463   1.966
 5416WAT     H216491   8.546   2.590   1.871
 5417WAT      O16492   6.252   3.200   7.347
 5417WAT     H116493   6.334   3.257   7.337
 5417WAT     H216494   6.228   3.160   7.258
 5418WAT      O16495   8.188   5.251   1.557
 5418WAT     H116496   8.224   5.288   1.471
 5418WAT     H216497   8.145   5.324   1.610
 5419WAT      O16498   0.674   5.599   1.395
 5419WAT     H116499   0.732   5.520   1.415
 5419WAT     H216500   0.660   5.606   1.296
 5420WAT      O16501   8.174   4.465   3.772
 5420WAT     H116502   8.174   4.453   3.672
 5420WAT     H216503   8.080   4.456   3.805
 5421WAT      O16504   8.566   3.350   0.540
 5421WAT     H116505   8.570   3.353   0.640
 5421WAT     H216506   8.472   3.334   0.510
 5422WAT      O16507   1.545   5.041   3.033
 5422WAT     H116508   1.492   5.065   3.114
 5422WAT     H216509   1.595   4.956   3.050
 5423WAT      O16510   5.036   3.343   0.842
 5423WAT     H116511   5.054   3.432   0.802
 5423WAT     H216512   4.967   3.352   0.914
 5424WAT      O16513   2.355   7.031   0.261
 5424WAT     H116514   2.414   7.110   0.278
 5424WAT     H216515   2.259   7.060   0.263
 5425WAT      O16516   8.656   1.637   1.716
 5425WAT     H116517   8.734   1.668   1.770
 5425WAT     H216518   8.573   1.639   1.773
 5426WAT      O16519   0.169   7.801   8.938
 5426WAT     H116520   0.268   7.793   8.928
 5426WAT     H216521   0.131   7.713   8.967
 5427WAT      O16522   6.438   3.008   2.423
 5427WAT     H116523   6.343   3.037   2.431
 5427WAT     H216524   6.447   2.915   2.460
 5428WAT      O16525   2.200   0.340   0.950
 5428WAT     H116526   2.114   0.380   0.982
 5428WAT     H216527   2.259   0.321   1.028
 5429WAT      O16528   9.752   3.779   3.120
 5429WAT     H116529   9.722   3.724   3.042
 5429WAT     H216530   9.696   3.862   3.126
 5430WAT      O16531   4.355   0.535   6.801
 5430WAT     H116532   4.257   0.514   6.794
 5430WAT     H216533   4.368   0.634   6.808
 5431WAT      O16534   6.297   9.277   5.217
 5431WAT     H116535   6.302   9.180   5.195
 5431WAT     H216536   6.221   9.319   5.168
 5432WAT      O16537   3.569   6.172   1.476
 5432WAT     H116538   3.618   6.248   1.518
 5432WAT     H216539   3.634   6.111   1.431
 5433WAT      O16540   2.459   2.451   9.236
 5433WAT     H116541   2.416   2.384   9.297
 5433WAT     H216542   2.417   2.444   9.145
 5434WAT      O16543   4.090   8.698   4.032
 5434WAT     H116544   4.164   8.765   4.026
 5434WAT     H216545   4.068   8.664   3.940
 5435WAT      O16546   9.078   7.154   8.610
 5435WAT     H116547   9.173   7.157   8.577
 5435WAT     H216548   9.016   7.162   8.532
 5436WAT      O16549   3.838   8.159   6.445
 5436WAT     H116550   3.827   8.223   6.370
 5436WAT     H216551   3.828   8.065   6.411
 5437WAT      O16552   1.717   3.827   9.863
 5437WAT     H116553   1.717   3.729   9.884
 5437WAT     H216554   1.652   3.844   9.789
 5438WAT      O16555   6.728   5.684   1.095
 5438WAT     H116556   6.759   5.593   1.066
 5438WAT     H216557   6.629   5.692   1.079
 5439WAT      O16558   4.245   9.281   4.472
 5439WAT     H116559   4.211   9.300   4.564
 5439WAT     H216560   4.167   9.269   4.410
 5440WAT      O16561   4.289   7.292   2.276
 5440WAT     H116562   4.364   7.357   2.288
 5440WAT     H216563   4.203   7.336   2.299
 5441WAT      O16564   8.579   4.568   2.367
 5441WAT     H116565   8.479   4.567   2.366
 5441WAT     H216566   8.613   4.565   2.273
 5442WAT      O16567   7.040   6.405   6.169
 5442WAT     H116568   6.980   6.411   6.090
 5442WAT     H216569   7.091   6.319   6.167
 5443WAT      O16570   5.934   9.625   5.870
 5443WAT     H116571   5.885   9.610   5.955
 5443WAT     H216572   5.894   9.702   5.821
 5444WAT      O16573   9.073   8.475   2.257
 5444WAT     H116574   9.161   8.455   2.299
 5444WAT     H216575   8.999   8.453   2.320
 5445WAT      O16576   4.444   0.963   9.034
 5445WAT     H116577   4.417   1.024   8.959
 5445WAT     H216578   4.363   0.915   9.069
 5446WAT      O16579   4.347   4.340   8.167
 5446WAT     H116580   4.286   4.270   8.129
 5446WAT     H216581   4.437   4.333   8.123
 5447WAT      O16582   3.149   2.552   5.467
 5447WAT     H116583   3.217   2.490   5.429
 5447WAT     H216584   3.127   2.623   5.400
 5448WAT      O16585   2.963   3.594   4.872
 5448WAT     H116586   3.015   3.679   4.884
 5448WAT     H216587   3.001   3.543   4.795
 5449WAT      O16588   6.079   7.679   4.564
 5449WAT     H116589   6.086   7.580   4.580
 5449WAT     H216590   6.131   7.728   4.634
 5450WAT      O16591   0.059   7.400   7.853
 5450WAT     H116592   0.091   7.494   7.865
 5450WAT     H216593   0.138   7.340   7.841
 5451WAT      O16594   3.509   4.714   3.003
 5451WAT     H116595   3.561   4.779   3.059
 5451WAT     H216596   3.560   4.629   2.994
 5452WAT      O16597   4.867   5.126   9.024
 5452WAT     H116598   4.885   5.084   8.935
 5452WAT     H216599   4.893   5.223   9.021
 5453WAT      O16600   6.519   3.630   3.826
 5453WAT     H116601   6.600   3.571   3.822
 5453WAT     H216602   6.536   3.705   3.890
 5454WAT      O16603   1.858   2.435   3.221
 5454WAT     H116604   1.943   2.466   3.263
 5454WAT     H216605   1.783   2.497   3.247
 5455WAT      O16606   0.833   1.749   0.443
 5455WAT     H116607   0.786   1.810   0.380
 5455WAT     H216608   0.778   1.667   0.458
 5456WAT      O16609   3.960   4.589   2.539
 5456WAT     H116610   3.910   4.659   2.590
 5456WAT     H216611   3.943   4.601   2.441
 5457WAT      O16612   1.762   4.161   8.778
 5457WAT     H116613   1.821   4.091   8.738
 5457WAT     H216614   1.734   4.225   8.706
 5458WAT      O16615   2.223   6.729   7.657
 5458WAT     H116616   2.266   6.779   7.733
 5458WAT     H216617   2.208   6.634   7.684
 5459WAT      O16618   4.179   3.545   2.194
 5459WAT     H116619   4.216   3.499   2.113
 5459WAT     H216620   4.113   3.485   2.239
 5460WAT      O16621   5.751   8.982   2.344
 5460WAT     H116622   5.779   8.886   2.346
 5460WAT     H216623   5.782   9.026   2.429
 5461WAT      O16624   5.452   7.423   9.234
 5461WAT     H116625   5.363   7.378   9.222
 5461WAT     H216626   5.449   7.483   9.314
 5462WAT      O16627   5.009   2.701   5.364
 5462WAT     H116628   4.912   2.705   5.339
 5462WAT     H216629   5.064   2.697   5.282
 5463WAT      O16630   8.301   8.535   9.591
 5463WAT     H116631   8.242   8.595   9.646
 5463WAT     H216632   8.307   8.445   9.634
 5464WAT      O16633   5.592   4.088   1.357
 5464WAT     H116634   5.679   4.138   1.348
 5464WAT     H216635   5.516   4.152   1.345
 5465WAT      O16636   3.549   6.440   2.345
 5465WAT     H116637   3.599   6.483   2.420
 5465WAT     H216638   3.460   6.483   2.336
 5466WAT      O16639   1.309   3.728   8.543
 5466WAT     H116640   1.376   3.719   8.616
 5466WAT     H216641   1.276   3.822   8.539
 5467WAT      O16642   6.082   7.558   3.890
 5467WAT     H116643   6.104   7.654   3.909
 5467WAT     H216644   6.011   7.554   3.819
 5468WAT      O16645   6.281   5.314   1.048
 5468WAT     H116646   6.318   5.222   1.058
 5468WAT     H216647   6.211   5.330   1.117
 5469WAT      O16648   7.188   0.829   9.381
 5469WAT     H116649   7.239   0.908   9.415
 5469WAT     H216650   7.111   0.861   9.326
 5470WAT      O16651   4.748   8.396   0.187
 5470WAT     H116652   4.825   8.333   0.174
 5470WAT     H216653   4.681   8.381   0.114
 5471WAT      O16654   0.522   3.243   2.898
 5471WAT     H116655   0.428   3.277   2.886
 5471WAT     H216656   0.519   3.148   2.927
 5472WAT      O16657   5.584   4.248   0.529
 5472WAT     H116658   5.509   4.297   0.486
 5472WAT     H216659   5.663   4.247   0.468
 5473WAT      O16660   9.759   4.938   7.265
 5473WAT     H116661   9.826   4.986   7.321
 5473WAT     H216662   9.787   4.844   7.252
 5474WAT      O16663   7.725   1.483   7.564
 5474WAT     H116664   7.708   1.394   7.523
 5474WAT     H216665   7.645   1.512   7.617
 5475WAT      O16666   0.939   4.027   3.427
 5475WAT     H116667   0.901   4.114   3.460
 5475WAT     H216668   0.968   3.972   3.505
 5476WAT      O16669   8.675   3.860   2.770
 5476WAT     H116670   8.757   3.890   2.721
 5476WAT     H216671   8.658   3.920   2.848
 5477WAT      O16672   2.837   8.770   0.148
 5477WAT     H116673   2.815   8.848   0.207
 5477WAT     H216674   2.935   8.753   0.152
 5478WAT      O16675   1.913   6.324   8.458
 5478WAT     H116676   1.866   6.264   8.524
 5478WAT     H216677   1.898   6.419   8.483
 5479WAT      O16678   4.562   0.381   2.215
 5479WAT     H116679   4.527   0.451   2.278
 5479WAT     H216680   4.613   0.312   2.267
 5480WAT      O16681   4.474   1.582   2.699
 5480WAT     H116682   4.489   1.648   2.625
 5480WAT     H216683   4.558   1.531   2.716
 5481WAT      O16684   6.325   4.851   7.959
 5481WAT     H116685   6.408   4.796   7.953
 5481WAT     H216686   6.343   4.936   8.008
 5482WAT      O16687   0.080   5.206   3.867
 5482WAT     H116688   0.113   5.157   3.947
 5482WAT     H216689  -0.012   5.241   3.884
 5483WAT      O16690   3.710   6.583   5.799
 5483WAT     H116691   3.743   6.492   5.775
 5483WAT     H216692   3.681   6.630   5.716
 5484WAT      O16693   6.664   0.474   6.893
 5484WAT     H116694   6.644   0.384   6.931
 5484WAT     H216695   6.579   0.515   6.859
 5485WAT      O16696   9.152   5.119   1.036
 5485WAT     H116697   9.160   5.101   0.938
 5485WAT     H216698   9.140   5.032   1.084
 5486WAT      O16699   3.873   1.506   5.550
 5486WAT     H116700   3.934   1.439   5.508
 5486WAT     H216701   3.794   1.521   5.490
 5487WAT      O16702   3.701   2.650   3.086
 5487WAT     H116703   3.646   2.712   3.029
 5487WAT     H216704   3.709   2.561   3.040
 5488WAT      O16705   3.717   8.810   9.588
 5488WAT     H116706   3.706   8.909   9.583
 5488WAT     H216707   3.810   8.786   9.560
 5489WAT      O16708   7.315   4.791   7.767
 5489WAT     H116709   7.333   4.887   7.789
 5489WAT     H216710   7.292   4.782   7.670
 5490WAT      O16711   2.605   7.745   7.991
 5490WAT     H116712   2.524   7.801   8.002
 5490WAT     H216713   2.587   7.673   7.923
 5491WAT      O16714   9.638   2.928   7.598
 5491WAT     H116715   9.703   2.971   7.535
 5491WAT     H216716   9.608   2.994   7.666
 5492WAT      O16717   8.243   8.929   6.439
 5492WAT     H116718   8.267   8.991   6.365
 5492WAT     H216719   8.154   8.888   6.422
 5493WAT      O16720   0.119   6.430   2.297
 5493WAT     H116721   0.173   6.508   2.328
 5493WAT     H216722   0.179   6.363   2.253
 5494WAT      O16723   5.809   8.206   5.425
 5494WAT     H116724   5.730   8.244   5.376
 5494WAT     H216725   5.787   8.115   5.460
 5495WAT      O16726   2.634   8.968   4.904
 5495WAT     H116727   2.546   8.977   4.856
 5495WAT     H216728   2.703   9.025   4.860
 5496WAT      O16729   9.729   2.961   3.757
 5496WAT     H116730   9.786   2.907   3.694
 5496WAT     H216731   9.716   3.053   3.719
 5497WAT      O16732   9.585   4.715   9.815
 5497WAT     H116733   9.530   4.775   9.757
 5497WAT     H216734   9.651   4.770   9.867
 5498WAT      O16735   3.317   0.838   5.833
 5498WAT     H116736   3.270   0.842   5.921
 5498WAT     H216737   3.409   0.802   5.846
 5499WAT      O16738   9.449   1.093   7.882
 5499WAT     H116739   9.522   1.124   7.943
 5499WAT     H216740   9.490   1.051   7.800
 5500WAT      O16741   1.196   3.422   6.571
 5500WAT     H116742   1.264   3.495   6.581
 5500WAT     H216743   1.139   3.418   6.653
 5501WAT      O16744   9.386   7.396   2.015
 5501WAT     H116745   9.458   7.327   2.007
 5501WAT     H216746   9.367   7.415   2.111
 5502WAT      O16747   9.362   7.797   3.479
 5502WAT     H116748   9.273   7.840   3.476
 5502WAT     H216749   9.417   7.827   3.401
 5503WAT      O16750   7.803   6.776   6.578
 5503WAT     H116751   7.720   6.803   6.627
 5503WAT     H216752   7.868   6.852   6.578
 5504WAT      O16753   5.281   9.170   3.419
 5504WAT     H116754   5.242   9.081   3.440
 5504WAT     H216755   5.224   9.217   3.352
 5505WAT      O16756   3.714   8.457   4.991
 5505WAT     H116757   3.656   8.440   4.912
 5505WAT     H216758   3.800   8.498   4.961
 5506WAT      O16759   0.232   5.621   7.619
 5506WAT     H116760   0.299   5.549   7.636
 5506WAT     H216761   0.280   5.706   7.597
 5507WAT      O16762   3.892   1.367   1.631
 5507WAT     H116763   3.877   1.290   1.694
 5507WAT     H216764   3.809   1.421   1.623
 5508WAT      O16765   3.506   4.383   5.198
 5508WAT     H116766   3.421   4.403   5.247
 5508WAT     H216767   3.488   4.320   5.123
 5509WAT      O16768   3.474   2.833   1.871
 5509WAT     H116769   3.452   2.744   1.911
 5509WAT     H216770   3.485   2.901   1.944
 5510WAT      O16771   3.393   5.398   0.635
 5510WAT     H116772   3.423   5.491   0.652
 5510WAT     H216773   3.294   5.397   0.619
 5511WAT      O16774   7.931   0.994   7.393
 5511WAT     H116775   7.887   1.039   7.316
 5511WAT     H216776   7.876   0.916   7.422
 5512WAT      O16777   3.282   8.589   4.299
 5512WAT     H116778   3.322   8.541   4.220
 5512WAT     H216779   3.307   8.685   4.295
 5513WAT      O16780   4.238   5.022   1.780
 5513WAT     H116781   4.173   4.953   1.746
 5513WAT     H216782   4.237   5.023   1.879
 5514WAT      O16783   8.444   3.506   6.275
 5514WAT     H116784   8.453   3.580   6.342
 5514WAT     H216785   8.448   3.418   6.322
 5515WAT      O16786   4.729   1.553   5.954
 5515WAT     H116787   4.654   1.607   5.916
 5515WAT     H216788   4.714   1.541   6.052
 5516WAT      O16789   1.535   3.322   8.549
 5516WAT     H116790   1.470   3.330   8.473
 5516WAT     H216791   1.487   3.338   8.635
 5517WAT      O16792   6.662   3.351   5.407
 5517WAT     H116793   6.652   3.416   5.482
 5517WAT     H216794   6.647   3.398   5.320
 5518WAT      O16795   7.416   4.954   6.458
 5518WAT     H116796   7.465   5.040   6.471
 5518WAT     H216797   7.460   4.882   6.511
 5519WAT      O16798   8.115   6.184   5.714
 5519WAT     H116799   8.050   6.222   5.779
 5519WAT     H216800   8.205   6.179   5.756
 5520WAT      O16801   5.635   5.651   9.749
 5520WAT     H116802   5.599   5.738   9.715
 5520WAT     H216803   5.665   5.663   9.844
 5521WAT      O16804   4.950   8.525   4.552
 5521WAT     H116805   4.982   8.603   4.605
 5521WAT     H216806   4.895   8.465   4.611
 5522WAT      O16807   3.776   1.412   8.877
 5522WAT     H116808   3.703   1.402   8.944
 5522WAT     H216809   3.863   1.423   8.924
 5523WAT      O16810   2.778   8.877   6.059
 5523WAT     H116811   2.782   8.807   6.130
 5523WAT     H216812   2.722   8.954   6.092
 5524WAT      O16813   8.414   3.669   5.430
 5524WAT     H116814   8.379   3.757   5.399
 5524WAT     H216815   8.424   3.671   5.530
 5525WAT      O16816   4.292   4.850   8.484
 5525WAT     H116817   4.262   4.757   8.504
 5525WAT     H216818   4.306   4.899   8.570
 5526WAT      O16819   0.107   4.083   7.866
 5526WAT     H116820   0.143   4.069   7.774
 5526WAT     H216821   0.007   4.091   7.862
 5527WAT      O16822   3.316   9.522   7.718
 5527WAT     H116823   3.359   9.440   7.755
 5527WAT     H216824   3.364   9.552   7.636
 5528WAT      O16825   0.551   1.754   4.559
 5528WAT     H116826   0.479   1.813   4.596
 5528WAT     H216827   0.640   1.792   4.584
 5529WAT      O16828   7.951   7.590   7.780
 5529WAT     H116829   8.049   7.605   7.765
 5529WAT     H216830   7.908   7.677   7.807
 5530WAT      O16831   1.025   2.798   3.209
 5530WAT     H116832   0.962   2.815   3.133
 5530WAT     H216833   1.047   2.884   3.255
 5531WAT      O16834   5.745   4.547   8.253
 5531WAT     H116835   5.688   4.561   8.335
 5531WAT     H216836   5.839   4.528   8.281
 5532WAT      O16837   6.638   0.771   3.303
 5532WAT     H116838   6.608   0.859   3.340
 5532WAT     H216839   6.683   0.718   3.375
 5533WAT      O16840   7.068   0.235   0.647
 5533WAT     H116841   7.099   0.274   0.733
 5533WAT     H216842   7.147   0.207   0.593
 5534WAT      O16843   4.235   7.953   3.215
 5534WAT     H116844   4.188   7.865   3.221
 5534WAT     H216845   4.195   8.007   3.140
 5535WAT      O16846   6.554   9.749   6.177
 5535WAT     H116847   6.620   9.674   6.190
 5535WAT     H216848   6.463   9.711   6.165
 5536WAT      O16849   4.147   1.417   1.563
 5536WAT     H116850   4.056   1.392   1.597
 5536WAT     H216851   4.152   1.517   1.552
 5537WAT      O16852   9.308   7.353   1.682
 5537WAT     H116853   9.263   7.432   1.725
 5537WAT     H216854   9.401   7.345   1.718
 5538WAT      O16855   0.379   1.051   8.354
 5538WAT     H116856   0.394   1.145   8.323
 5538WAT     H216857   0.303   1.011   8.304
 5539WAT      O16858   6.211   5.950   9.318
 5539WAT     H116859   6.174   5.919   9.230
 5539WAT     H216860   6.246   5.871   9.369
 5540WAT      O16861   8.981   8.924   4.457
 5540WAT     H116862   8.983   8.824   4.461
 5540WAT     H216863   9.071   8.959   4.433
 5541WAT      O16864   9.819   4.350   3.184
 5541WAT     H116865   9.788   4.312   3.271
 5541WAT     H216866   9.883   4.425   3.201
 5542WAT      O16867   1.830   0.171   7.082
 5542WAT     H116868   1.842   0.087   7.136
 5542WAT     H216869   1.835   0.250   7.144
 5543WAT      O16870   3.323   6.475   0.401
 5543WAT     H116871   3.416   6.493   0.431
 5543WAT     H216872   3.261   6.478   0.479
 5544WAT      O16873   0.235   6.093   6.727
 5544WAT     H116874   0.260   6.165   6.791
 5544WAT     H216875   0.149   6.052   6.755
 5545WAT      O16876   4.096   3.165   8.327
 5545WAT     H116877   4.136   3.242   8.378
 5545WAT     H216878   4.002   3.150   8.359
 5546WAT      O16879   4.964   5.794   6.472
 5546WAT     H116880   4.893   5.729   6.444
 5546WAT     H216881   5.046   5.777   6.416
 5547WAT      O16882   3.147   8.319   8.635
 5547WAT     H116883   3.140   8.219   8.633
 5547WAT     H216884   3.152   8.354   8.542
 5548WAT      O16885   1.992   7.253   2.910
 5548WAT     H116886   2.028   7.168   2.873
 5548WAT     H216887   1.968   7.240   3.006
 5549WAT      O16888   8.174   0.607   9.778
 5549WAT     H116889   8.153   0.568   9.868
 5549WAT     H216890   8.192   0.532   9.713
 5550WAT      O16891   5.113   6.735   7.841
 5550WAT     H116892   5.092   6.812   7.781
 5550WAT     H216893   5.057   6.656   7.814
 5551WAT      O16894   2.705   0.177   9.695
 5551WAT     H116895   2.669   0.125   9.772
 5551WAT     H216896   2.791   0.222   9.722
 5552WAT      O16897   9.148   2.335   6.665
 5552WAT     H116898   9.095   2.320   6.582
 5552WAT     H216899   9.118   2.271   6.736
 5553WAT      O16900   2.834   9.036   2.296
 5553WAT     H116901   2.744   9.028   2.252
 5553WAT     H216902   2.905   9.026   2.228
 5554WAT      O16903   9.010   5.111   8.754
 5554WAT     H116904   9.072   5.107   8.676
 5554WAT     H216905   8.919   5.139   8.723
 5555WAT      O16906   3.927   4.889   8.926
 5555WAT     H116907   3.878   4.836   8.856
 5555WAT     H216908   3.984   4.827   8.981
 5556WAT      O16909   2.752   4.693   8.089
 5556WAT     H116910   2.834   4.687   8.145
 5556WAT     H216911   2.721   4.601   8.064
 5557WAT      O16912   0.761   9.498   6.398
 5557WAT     H116913   0.692   9.426   6.399
 5557WAT     H216914   0.850   9.458   6.375
 5558WAT      O16915   7.544   0.616   6.219
 5558WAT     H116916   7.520   0.595   6.125
 5558WAT     H216917   7.530   0.713   6.237
 5559WAT      O16918   0.952   9.313   1.064
 5559WAT     H116919   0.889   9.358   1.001
 5559WAT     H216920   0.901   9.251   1.125
 5560WAT      O16921   9.213   3.776   7.865
 5560WAT     H116922   9.144   3.848   7.853
 5560WAT     H216923   9.188   3.719   7.943
 5561WAT      O16924   8.482   7.651   9.760
 5561WAT     H116925   8.505   7.554   9.761
 5561WAT     H216926   8.449   7.679   9.851
 5562WAT      O16927   0.036   3.574   9.710
 5562WAT     H116928  -0.012   3.616   9.634
 5562WAT     H216929  -0.027   3.516   9.762
 5563WAT      O16930   0.573   0.398   7.348
 5563WAT     H116931   0.513   0.431   7.421
 5563WAT     H216932   0.520   0.388   7.264
 5564WAT      O16933   2.576   7.688   5.306
 5564WAT     H116934   2.599   7.759   5.240
 5564WAT     H216935   2.567   7.600   5.260
 5565WAT      O16936   5.474   2.025   0.436
 5565WAT     H116937   5.429   2.074   0.361
 5565WAT     H216938   5.569   2.006   0.410
 5566WAT      O16939   3.326   0.862   1.021
 5566WAT     H116940   3.391   0.889   0.950
 5566WAT     H216941   3.365   0.882   1.111
 5567WAT      O16942   4.553   8.273   7.591
 5567WAT     H116943   4.489   8.227   7.653
 5567WAT     H216944   4.647   8.250   7.617
 5568WAT      O16945   3.112   0.098   3.529
 5568WAT     H116946   3.173   0.086   3.451
 5568WAT     H216947   3.135   0.182   3.578
 5569WAT      O16948   6.930   9.584   0.203
 5569WAT     H116949   6.990   9.631   0.268
 5569WAT     H216950   6.834   9.605   0.225
 5570WAT      O16951   6.187   2.018   7.842
 5570WAT     H116952   6.155   1.927   7.869
 5570WAT     H216953   6.138   2.047   7.760
 5571WAT      O16954   5.406   7.193   0.923
 5571WAT     H116955   5.322   7.216   0.874
 5571WAT     H216956   5.396   7.221   1.019
 5572WAT      O16957   4.619   8.648   3.839
 5572WAT     H116958   4.593   8.619   3.747
 5572WAT     H216959   4.691   8.588   3.874
 5573WAT      O16960   8.953   1.787   6.919
 5573WAT     H116961   9.045   1.748   6.927
 5573WAT     H216962   8.955   1.862   6.853
 5574WAT      O16963   9.197   5.673   8.003
 5574WAT     H116964   9.200   5.750   8.067
 5574WAT     H216965   9.279   5.673   7.946
 5575WAT      O16966   2.198   4.518   6.979
 5575WAT     H116967   2.276   4.481   6.929
 5575WAT     H216968   2.188   4.615   6.959
 5576WAT      O16969   5.052   0.103   7.157
 5576WAT     H116970   5.125   0.046   7.195
 5576WAT     H216971   5.066   0.113   7.058
 5577WAT      O16972   3.453   5.884   3.484
 5577WAT     H116973   3.488   5.847   3.398
 5577WAT     H216974   3.426   5.980   3.471
 5578WAT      O16975   5.178   3.075   6.541
 5578WAT     H116976   5.080   3.058   6.554
 5578WAT     H216977   5.223   3.082   6.630
 5579WAT      O16978   7.862   2.418   6.142
 5579WAT     H116979   7.873   2.464   6.230
 5579WAT     H216980   7.914   2.333   6.142
 5580WAT      O16981   0.177   9.392   3.696
 5580WAT     H116982   0.170   9.492   3.700
 5580WAT     H216983   0.272   9.365   3.710
 5581WAT      O16984   0.805   5.981   0.116
 5581WAT     H116985   0.767   5.990   0.208
 5581WAT     H216986   0.801   6.070   0.070
 5582WAT      O16987   7.674   3.714   3.292
 5582WAT     H116988   7.621   3.797   3.308
 5582WAT     H216989   7.766   3.725   3.329
 5583WAT      O16990   3.622   6.083   9.204
 5583WAT     H116991   3.572   6.092   9.118
 5583WAT     H216992   3.716   6.116   9.191
 5584WAT      O16993   1.216   2.454   1.787
 5584WAT     H116994   1.126   2.485   1.818
 5584WAT     H216995   1.251   2.517   1.717
 5585WAT      O16996   5.984   4.818   9.204
 5585WAT     H116997   5.917   4.816   9.129
 5585WAT     H216998   6.075   4.832   9.166
 5586WAT      O16999   3.603   7.742   9.292
 5586WAT     H117000   3.557   7.816   9.342
 5586WAT     H217001   3.534   7.687   9.244
 5587WAT      O17002   0.882   8.861   6.776
 5587WAT     H117003   0.888   8.936   6.710
 5587WAT     H217004   0.947   8.878   6.850
 5588WAT      O17005   3.376   5.750   0.294
 5588WAT     H117006   3.320   5.776   0.373
 5588WAT     H217007   3.362   5.816   0.220
 5589WAT      O17008   0.004   3.720   4.209
 5589WAT     H117009   0.061   3.649   4.166
 5589WAT     H217010   0.060   3.799   4.232
 5590WAT      O17011   0.230   8.379   3.527
 5590WAT     H117012   0.264   8.431   3.606
 5590WAT     H217013   0.298   8.311   3.501
 5591WAT      O17014   1.651   7.617   5.190
 5591WAT     H117015   1.683   7.711   5.182
 5591WAT     H217016   1.713   7.565   5.248
 5592WAT      O17017   3.970   9.668   4.302
 5592WAT     H117018   3.920   9.630   4.379
 5592WAT     H217019   3.941   9.763   4.286
 5593WAT      O17020   2.534   4.992   1.902
 5593WAT     H117021   2.522   4.926   1.828
 5593WAT     H217022   2.492   5.079   1.877
 5594WAT      O17023   8.741   4.974   5.200
 5594WAT     H117024   8.792   5.007   5.279
 5594WAT     H217025   8.648   5.010   5.204
 5595WAT      O17026   1.617   3.325   0.272
 5595WAT     H117027   1.564   3.251   0.314
 5595WAT     H217028   1.702   3.339   0.323
 5596WAT      O17029   3.898   2.968   1.670
 5596WAT     H117030   3.885   3.024   1.588
 5596WAT     H217031   3.851   2.880   1.659
 5597WAT      O17032   3.410   2.398   8.186
 5597WAT     H117033   3.346   2.406   8.262
 5597WAT     H217034   3.445   2.489   8.162
 5598WAT      O17035   0.949   9.692   7.375
 5598WAT     H117036   0.860   9.681   7.420
 5598WAT     H217037   1.004   9.758   7.426
 5599WAT      O17038   4.261   8.247   3.835
 5599WAT     H117039   4.187   8.180   3.843
 5599WAT     H217040   4.349   8.203   3.853
 5600WAT      O17041   0.694   3.635   2.881
 5600WAT     H117042   0.709   3.723   2.926
 5600WAT     H217043   0.742   3.633   2.794
 5601WAT      O17044   5.326   4.528   9.619
 5601WAT     H117045   5.256   4.599   9.615
 5601WAT     H217046   5.415   4.570   9.634
 5602WAT      O17047   4.175   0.391   3.302
 5602WAT     H117048   4.222   0.415   3.387
 5602WAT     H217049   4.078   0.414   3.310
 5603WAT      O17050   2.630   8.820   2.940
 5603WAT     H117051   2.620   8.723   2.962
 5603WAT     H217052   2.686   8.830   2.857
 5604WAT      O17053   6.938   2.907   2.005
 5604WAT     H117054   7.015   2.967   1.982
 5604WAT     H217055   6.895   2.876   1.920
 5605WAT      O17056   7.159   0.386   2.466
 5605WAT     H117057   7.246   0.397   2.513
 5605WAT     H217058   7.154   0.450   2.389
 5606WAT      O17059   4.871   7.824   4.514
 5606WAT     H117060   4.960   7.808   4.472
 5606WAT     H217061   4.818   7.739   4.512
 5607WAT      O17062   6.179   1.062   7.787
 5607WAT     H117063   6.259   1.120   7.796
 5607WAT     H217064   6.096   1.118   7.795
 5608WAT      O17065   7.961   5.693   9.340
 5608WAT     H117066   7.929   5.770   9.394
 5608WAT     H217067   8.061   5.694   9.336
 5609WAT      O17068   8.273   5.990   5.270
 5609WAT     H117069   8.175   5.971   5.280
 5609WAT     H217070   8.313   6.007   5.360
 5610WAT      O17071   6.870   0.103   8.511
 5610WAT     H117072   6.946   0.140   8.457
 5610WAT     H217073   6.794   0.168   8.510
 5611WAT      O17074   5.091   0.808   4.023
 5611WAT     H117075   5.042   0.895   4.015
 5611WAT     H217076   5.030   0.733   3.996
 5612WAT      O17077   0.465   0.231   4.634
 5612WAT     H117078   0.431   0.289   4.709
 5612WAT     H217079   0.414   0.145   4.632
 5613WAT      O17080   0.128   5.077   1.850
 5613WAT     H117081   0.128   5.024   1.765
 5613WAT     H217082   0.101   5.171   1.831
 5614WAT      O17083   5.989   8.371   1.087
 5614WAT     H117084   5.895   8.406   1.086
 5614WAT     H217085   5.988   8.272   1.102
 5615WAT      O17086   3.994   2.649   8.085
 5615WAT     H117087   4.005   2.550   8.100
 5615WAT     H217088   3.940   2.688   8.160
 5616WAT      O17089   4.277   9.399   2.354
 5616WAT     H117090   4.369   9.384   2.389
 5616WAT     H217091   4.210   9.370   2.422
 5617WAT      O17092   2.399   8.545   2.184
 5617WAT     H117093   2.425   8.567   2.090
 5617WAT     H217094   2.387   8.630   2.236
 5618WAT      O17095   5.799   1.677   9.026
 5618WAT     H117096   5.796   1.598   9.088
 5618WAT     H217097   5.869   1.741   9.057
 5619WAT      O17098   2.178   1.498   4.493
 5619WAT     H117099   2.152   1.414   4.540
 5619WAT     H217100   2.187   1.572   4.559
 5620WAT      O17101   0.005   0.513   2.354
 5620WAT     H117102  -0.025   0.418   2.362
 5620WAT     H217103   0.101   0.519   2.382
 5621WAT      O17104   7.282   6.732   4.610
 5621WAT     H117105   7.381   6.740   4.620
 5621WAT     H217106   7.244   6.690   4.692
 5622WAT      O17107   1.831   5.614   9.886
 5622WAT     H117108   1.869   5.551   9.954
 5622WAT     H217109   1.823   5.568   9.798
 5623WAT      O17110   9.783   6.363   7.590
 5623WAT     H117111   9.758   6.455   7.561
 5623WAT     H217112   9.713   6.328   7.652
 5624WAT      O17113   1.848   3.011   1.247
 5624WAT     H117114   1.903   2.929   1.228
 5624WAT     H217115   1.909   3.089   1.262
 5625WAT      O17116   3.862   6.062   6.687
 5625WAT     H117117   3.816   6.130   6.629
 5625WAT     H217118   3.823   6.066   6.779
 5626WAT      O17119   6.346   3.044   4.234
 5626WAT     H117120   6.417   3.059   4.165
 5626WAT     H217121   6.380   3.074   4.324
 5627WAT      O17122   6.513   8.092   0.292
 5627WAT     H117123   6.419   8.120   0.275
 5627WAT     H217124   6.547   8.038   0.215
 5628WAT      O17125   2.455   6.477   9.447
 5628WAT     H117126   2.415   6.403   9.393
 5628WAT     H217127   2.458   6.561   9.393
 5629WAT      O17128   6.464   3.157   0.165
 5629WAT     H117129   6.561   3.176   0.151
 5629WAT     H217130   6.443   3.065   0.132
 5630WAT      O17131   1.218   0.091   0.815
 5630WAT     H117132   1.190   0.139   0.732
 5630WAT     H217133   1.294   0.140   0.858
 5631WAT      O17134   6.053   4.535   7.369
 5631WAT     H117135   6.065   4.468   7.442
 5631WAT     H217136   6.087   4.497   7.283
 5632WAT      O17137   4.961   9.722   3.032
 5632WAT     H117138   4.964   9.708   2.933
 5632WAT     H217139   4.886   9.783   3.056
 5633WAT      O17140   9.555   5.068   1.233
 5633WAT     H117141   9.533   4.975   1.205
 5633WAT     H217142   9.620   5.066   1.308
 5634WAT      O17143   6.046   6.423   2.143
 5634WAT     H117144   5.948   6.405   2.128
 5634WAT     H217145   6.100   6.358   2.090
 5635WAT      O17146   1.952   6.065   1.645
 5635WAT     H117147   1.917   6.010   1.721
 5635WAT     H217148   1.993   6.004   1.576
 5636WAT      O17149   0.245   5.437   2.786
 5636WAT     H117150   0.221   5.504   2.716
 5636WAT     H217151   0.339   5.454   2.818
 5637WAT      O17152   7.148   4.462   2.831
 5637WAT     H117153   7.050   4.446   2.826
 5637WAT     H217154   7.170   4.514   2.914
 5638WAT      O17155   7.213   7.844   7.858
 5638WAT     H117156   7.119   7.877   7.849
 5638WAT     H217157   7.272   7.918   7.890
 5639WAT      O17158   5.190   1.571   4.319
 5639WAT     H117159   5.108   1.590   4.372
 5639WAT     H217160   5.191   1.628   4.236
 5640WAT      O17161   0.191   6.828   9.003
 5640WAT     H117162   0.272   6.772   8.988
 5640WAT     H217163   0.128   6.781   9.064
 5641WAT      O17164   5.974   5.031   0.378
 5641WAT     H117165   5.949   5.024   0.474
 5641WAT     H217166   6.071   5.007   0.367
 5642WAT      O17167   4.317   6.988   6.277
 5642WAT     H117168   4.409   6.951   6.289
 5642WAT     H217169   4.321   7.088   6.274
 5643WAT      O17170   6.133   1.078   0.281
 5643WAT     H117171   6.103   1.086   0.376
 5643WAT     H217172   6.231   1.056   0.278
 5644WAT      O17173   1.853   9.008   4.430
 5644WAT     H117174   1.875   9.021   4.334
 5644WAT     H217175   1.788   9.079   4.459
 5645WAT      O17176   2.881   4.222   4.942
 5645WAT     H117177   2.943   4.150   4.908
 5645WAT     H217178   2.864   4.208   5.039
 5646WAT      O17179   5.749   5.334   4.621
 5646WAT     H117180   5.664   5.294   4.653
 5646WAT     H217181   5.730   5.402   4.550
 5647WAT      O17182   5.767   0.958   9.586
 5647WAT     H117183   5.710   0.886   9.546
 5647WAT     H217184   5.825   0.998   9.515
 5648WAT      O17185   3.856   3.834   0.364
 5648WAT     H117186   3.911   3.752   0.347
 5648WAT     H217187   3.873   3.901   0.291
 5649WAT      O17188   7.877   6.492   7.316
 5649WAT     H117189   7.874   6.487   7.416
 5649WAT     H217190   7.797   6.542   7.283
 5650WAT      O17191   7.491   2.750   6.990
 5650WAT     H117192   7.532   2.724   6.903
 5650WAT     H217193   7.553   2.727   7.065
 5651WAT      O17194   5.275   2.211   4.258
 5651WAT     H117195   5.298   2.178   4.167
 5651WAT     H217196   5.185   2.254   4.257
 5652WAT      O17197   9.883   1.398   8.165
 5652WAT     H117198   9.851   1.489   8.137
 5652WAT     H217199   9.933   1.356   8.089
 5653WAT      O17200   0.422   7.584   5.487
 5653WAT     H117201   0.342   7.608   5.541
 5653WAT     H217202   0.394   7.565   5.392
 5654WAT      O17203   3.481   1.682   3.622
 5654WAT     H117204   3.565   1.709   3.575
 5654WAT     H217205   3.440   1.604   3.574
 5655WAT      O17206   0.899   4.422   7.296
 5655WAT     H117207   0.926   4.461   7.208
 5655WAT     H217208   0.896   4.494   7.365
 5656WAT      O17209   5.704   4.990   8.655
 5656WAT     H117210   5.799   4.975   8.685
 5656WAT     H217211   5.695   5.082   8.618
 5657WAT      O17212   0.469   9.749   7.480
 5657WAT     H117213   0.503   9.748   7.386
 5657WAT     H217214   0.439   9.841   7.503
 5658WAT      O17215   1.559   0.369   6.974
 5658WAT     H117216   1.498   0.408   6.905
 5658WAT     H217217   1.587   0.277   6.945
 5659WAT      O17218   7.248   9.349   6.195
 5659WAT     H117219   7.250   9.336   6.096
 5659WAT     H217220   7.256   9.447   6.216
 5660WAT      O17221   7.145   1.184   9.614
 5660WAT     H117222   7.067   1.134   9.651
 5660WAT     H217223   7.120   1.279   9.598
 5661WAT      O17224   1.887   2.177   0.778
 5661WAT     H117225   1.829   2.128   0.843
 5661WAT     H217226   1.830   2.223   0.710
 5662WAT      O17227   8.141   3.141   8.833
 5662WAT     H117228   8.051   3.127   8.790
 5662WAT     H217229   8.168   3.237   8.822
 5663WAT      O17230   8.864   3.947   0.076
 5663WAT     H117231   8.795   4.010   0.040
 5663WAT     H217232   8.822   3.859   0.097
 5664WAT      O17233   2.673   0.863   3.094
 5664WAT     H117234   2.719   0.838   3.009
 5664WAT     H217235   2.724   0.936   3.139
 5665WAT      O17236   3.985   1.968   7.793
 5665WAT     H117237   3.940   1.912   7.862
 5665WAT     H217238   4.082   1.978   7.816
 5666WAT      O17239   2.761   3.402   0.678
 5666WAT     H117240   2.766   3.309   0.715
 5666WAT     H217241   2.804   3.465   0.743
 5667WAT      O17242   5.521   8.564   2.396
 5667WAT     H117243   5.608   8.516   2.409
 5667WAT     H217244   5.508   8.629   2.470
 5668WAT      O17245   3.174   1.903   1.285
 5668WAT     H117246   3.091   1.955   1.308
 5668WAT     H217247   3.229   1.889   1.367
 5669WAT      O17248   3.757   8.593   3.529
 5669WAT     H117249   3.837   8.593   3.469
 5669WAT     H217250   3.731   8.498   3.548
 5670WAT      O17251   5.020   7.694   7.640
 5670WAT     H117252   4.969   7.722   7.721
 5670WAT     H217253   5.038   7.774   7.583
 5671WAT      O17254   5.935   0.749   5.015
 5671WAT     H117255   5.998   0.677   4.988
 5671WAT     H217256   5.881   0.778   4.936
 5672WAT      O17257   6.911   3.759   1.196
 5672WAT     H117258   6.954   3.815   1.126
 5672WAT     H217259   6.843   3.814   1.246
 5673WAT      O17260   4.365   1.139   3.663
 5673WAT     H117261   4.346   1.098   3.752
 5673WAT     H217262   4.417   1.074   3.607
 5674WAT      O17263   1.033   8.955   4.628
 5674WAT     H117264   1.036   8.943   4.727
 5674WAT     H217265   0.956   9.013   4.603
 5675WAT      O17266   6.548   1.692   3.717
 5675WAT     H117267   6.518   1.620   3.655
 5675WAT     H217268   6.647   1.688   3.726
 5676WAT      O17269   8.389   4.140   4.645
 5676WAT     H117270   8.467   4.090   4.683
 5676WAT     H217271   8.369   4.107   4.553
 5677WAT      O17272   7.716   9.630   1.025
 5677WAT     H117273   7.797   9.573   1.036
 5677WAT     H217274   7.650   9.608   1.097
 5678WAT      O17275   2.275   1.031   1.889
 5678WAT     H117276   2.219   1.111   1.866
 5678WAT     H217277   2.340   1.057   1.961
 5679WAT      O17278   1.590   4.810   7.088
 5679WAT     H117279   1.646   4.892   7.082
 5679WAT     H217280   1.580   4.784   7.184
 5680WAT      O17281   2.353   9.560   3.994
 5680WAT     H117282   2.335   9.535   3.899
 5680WAT     H217283   2.266   9.571   4.042
 5681WAT      O17284   2.506   6.077   3.902
 5681WAT     H117285   2.568   6.006   3.869
 5681WAT     H217286   2.411   6.046   3.894
 5682WAT      O17287   4.955   1.800   1.071
 5682WAT     H117288   5.042   1.846   1.087
 5682WAT     H217289   4.887   1.833   1.137
 5683WAT      O17290   2.379   3.143   3.573
 5683WAT     H117291   2.330   3.080   3.514
 5683WAT     H217292   2.435   3.205   3.517
 5684WAT      O17293   3.701   7.126   6.865
 5684WAT     H117294   3.651   7.121   6.779
 5684WAT     H217295   3.714   7.033   6.901
 5685WAT      O17296   4.677   9.256   1.859
 5685WAT     H117297   4.609   9.183   1.850
 5685WAT     H217298   4.639   9.341   1.823
 5686WAT      O17299   8.947   2.962   0.728
 5686WAT     H117300   8.921   2.876   0.773
 5686WAT     H217301   9.028   3.000   0.773
 5687WAT      O17302   4.049   4.450   4.064
 5687WAT     H117303   4.149   4.447   4.057
 5687WAT     H217304   4.023   4.469   4.158
 5688WAT      O17305   3.433   6.640   5.417
 5688WAT     H117306   3.512   6.661   5.474
 5688WAT     H217307   3.462   6.632   5.321
 5689WAT      O17308   3.252   6.455   3.473
 5689WAT     H117309   3.348   6.429   3.469
 5689WAT     H217310   3.222   6.486   3.383
 5690WAT      O17311   0.502   7.998   6.676
 5690WAT     H117312   0.444   7.976   6.598
 5690WAT     H217313   0.461   8.073   6.728
 5691WAT      O17314   6.205   5.248   9.183
 5691WAT     H117315   6.120   5.198   9.201
 5691WAT     H217316   6.200   5.289   9.092
 5692WAT      O17317   3.384   8.717   1.647
 5692WAT     H117318   3.448   8.775   1.597
 5692WAT     H217319   3.301   8.770   1.668
 5693WAT      O17320   1.229   8.444   5.944
 5693WAT     H117321   1.291   8.453   6.022
 5693WAT     H217322   1.162   8.519   5.946
 5694WAT      O17323   8.224   1.876   8.648
 5694WAT     H117324   8.202   1.853   8.742
 5694WAT     H217325   8.141   1.905   8.600
 5695WAT      O17326   7.967   2.577   4.369
 5695WAT     H117327   8.003   2.485   4.360
 5695WAT     H217328   8.042   2.643   4.361
 5696WAT      O17329   8.192   2.923   2.143
 5696WAT     H117330   8.239   2.979   2.075
 5696WAT     H217331   8.095   2.946   2.145
 5697WAT      O17332   3.772   7.227   9.054
 5697WAT     H117333   3.791   7.136   9.091
 5697WAT     H217334   3.840   7.249   8.984
 5698WAT      O17335   7.986   4.395   9.088
 5698WAT     H117336   7.999   4.349   9.175
 5698WAT     H217337   7.923   4.342   9.031
 5699WAT      O17338   2.466   8.340   9.600
 5699WAT     H117339   2.533   8.287   9.548
 5699WAT     H217340   2.387   8.361   9.542
 5700WAT      O17341   5.205   6.601   3.890
 5700WAT     H117342   5.215   6.502   3.879
 5700WAT     H217343   5.295   6.644   3.890
 5701WAT      O17344   2.079   5.889   3.301
 5701WAT     H117345   2.175   5.862   3.305
 5701WAT     H217346   2.056   5.920   3.209
 5702WAT      O17347   5.186   2.433   1.101
 5702WAT     H117348   5.185   2.415   1.199
 5702WAT     H217349   5.180   2.347   1.051
 5703WAT      O17350   1.958   2.755   4.209
 5703WAT     H117351   1.968   2.790   4.302
 5703WAT     H217352   1.911   2.823   4.152
 5704WAT      O17353   6.862   0.963   9.427
 5704WAT     H117354   6.872   0.993   9.522
 5704WAT     H217355   6.790   1.015   9.383
 5705WAT      O17356   9.755   2.484   8.528
 5705WAT     H117357   9.700   2.514   8.450
 5705WAT     H217358   9.711   2.406   8.572
 5706WAT      O17359   8.141   4.558   8.435
 5706WAT     H117360   8.127   4.581   8.338
 5706WAT     H217361   8.214   4.615   8.472
 5707WAT      O17362   4.400   9.688   5.398
 5707WAT     H117363   4.348   9.722   5.477
 5707WAT     H217364   4.473   9.628   5.430
 5708WAT      O17365   0.416   0.834   2.400
 5708WAT     H117366   0.394   0.809   2.495
 5708WAT     H217367   0.412   0.933   2.391
 5709WAT      O17368   5.408   2.152   3.623
 5709WAT     H117369   5.445   2.171   3.532
 5709WAT     H217370   5.415   2.235   3.679
 5710WAT      O17371   0.912   5.106   4.665
 5710WAT     H117372   0.839   5.043   4.691
 5710WAT     H217373   0.983   5.105   4.735
 5711WAT      O17374   5.730   7.007   0.333
 5711WAT     H117375   5.813   7.044   0.376
 5711WAT     H217376   5.683   6.947   0.398
 5712WAT      O17377   7.786   4.262   6.035
 5712WAT     H117378   7.692   4.295   6.040
 5712WAT     H217379   7.814   4.254   5.940
 5713WAT      O17380   5.655   8.960   4.882
 5713WAT     H117381   5.648   9.011   4.796
 5713WAT     H217382   5.659   9.024   4.958
 5714WAT      O17383   7.815   6.823   3.870
 5714WAT     H117384   7.739   6.774   3.915
 5714WAT     H217385   7.778   6.885   3.802
 5715WAT      O17386   9.287   4.610   5.167
 5715WAT     H117387   9.342   4.541   5.215
 5715WAT     H217388   9.252   4.676   5.234
 5716WAT      O17389   7.806   2.393   9.371
 5716WAT     H117390   7.804   2.293   9.360
 5716WAT     H217391   7.860   2.416   9.452
 5717WAT      O17392   3.394   1.568   6.278
 5717WAT     H117393   3.328   1.506   6.236
 5717WAT     H217394   3.452   1.608   6.208
 5718WAT      O17395   9.190   9.517   4.995
 5718WAT     H117396   9.209   9.608   5.031
 5718WAT     H217397   9.271   9.481   4.948
 5719WAT      O17398   2.981   7.434   0.229
 5719WAT     H117399   2.952   7.520   0.187
 5719WAT     H217400   3.072   7.446   0.269
 5720WAT      O17401   6.104   9.134   8.374
 5720WAT     H117402   6.077   9.114   8.468
 5720WAT     H217403   6.094   9.052   8.318
 5721WAT      O17404   6.079   8.147   5.432
 5721WAT     H117405   6.118   8.198   5.508
 5721WAT     H217406   5.982   8.169   5.423
 5722WAT      O17407   1.542   3.038   5.702
 5722WAT     H117408   1.472   3.012   5.769
 5722WAT     H217409   1.623   3.072   5.751
 5723WAT      O17410   5.435   1.438   5.363
 5723WAT     H117411   5.397   1.530   5.356
 5723WAT     H217412   5.456   1.403   5.272
 5724WAT      O17413   0.197   8.234   1.052
 5724WAT     H117414   0.233   8.167   1.118
 5724WAT     H217415   0.260   8.311   1.045
 5725WAT      O17416   0.695   2.265   9.600
 5725WAT     H117417   0.788   2.298   9.585
 5725WAT     H217418   0.632   2.317   9.542
 5726WAT      O17419   4.390   9.478   8.947
 5726WAT     H117420   4.479   9.522   8.955
 5726WAT     H217421   4.373   9.423   9.029
 5727WAT      O17422   0.103   6.088   1.318
 5727WAT     H117423   0.185   6.040   1.347
 5727WAT     H217424   0.044   6.105   1.397
 5728WAT      O17425   6.438   9.077   7.923
 5728WAT     H117426   6.490   9.162   7.908
 5728WAT     H217427   6.481   9.003   7.872
 5729WAT      O17428   8.061   6.254   8.616
 5729WAT     H117429   7.961   6.246   8.621
 5729WAT     H217430   8.090   6.243   8.521
 5730WAT      O17431   3.158   5.519   7.321
 5730WAT     H117432   3.123   5.537   7.229
 5730WAT     H217433   3.106   5.573   7.388
 5731WAT      O17434   8.933   7.673   7.447
 5731WAT     H117435   8.963   7.682   7.352
 5731WAT     H217436   9.008   7.700   7.508
 5732WAT      O17437   3.049   5.680   6.549
 5732WAT     H117438   3.099   5.756   6.507
 5732WAT     H217439   3.107   5.599   6.551
 5733WAT      O17440   3.829   5.286   1.171
 5733WAT     H117441   3.786   5.329   1.250
 5733WAT     H217442   3.912   5.336   1.146
 5734WAT      O17443   8.564   3.631   7.354
 5734WAT     H117444   8.519   3.695   7.292
 5734WAT     H217445   8.660   3.656   7.365
 5735WAT      O17446   2.761   8.201   5.516
 5735WAT     H117447   2.779   8.170   5.423
 5735WAT     H217448   2.720   8.125   5.568
 5736WAT      O17449   8.579   7.924   7.606
 5736WAT     H117450   8.493   7.944   7.559
 5736WAT     H217451   8.655   7.936   7.543
 5737WAT      O17452   9.069   6.992   3.801
 5737WAT     H117453   9.008   7.012   3.725
 5737WAT     H217454   9.062   6.895   3.825
 5738WAT      O17455   6.179   4.172   0.491
 5738WAT     H117456   6.153   4.160   0.587
 5738WAT     H217457   6.205   4.267   0.475
 5739WAT      O17458   2.749   4.503   9.828
 5739WAT     H117459   2.801   4.418   9.837
 5739WAT     H217460   2.807   4.581   9.850
 5740WAT      O17461   6.034   4.742   3.586
 5740WAT     H117462   5.950   4.714   3.538
 5740WAT     H217463   6.062   4.670   3.649
 5741WAT      O17464   7.044   7.116   8.630
 5741WAT     H117465   7.106   7.142   8.556
 5741WAT     H217466   7.089   7.131   8.718
 5742WAT      O17467   5.448   0.249   4.143
 5742WAT     H117468   5.541   0.281   4.161
 5742WAT     H217469   5.420   0.276   4.051
 5743WAT      O17470   9.367   9.189   7.456
 5743WAT     H117471   9.420   9.120   7.407
 5743WAT     H217472   9.409   9.279   7.442
 5744WAT      O17473   7.996   7.552   8.554
 5744WAT     H117474   7.997   7.520   8.649
 5744WAT     H217475   7.968   7.648   8.552
 5745WAT      O17476   2.938   7.459   1.663
 5745WAT     H117477   2.899   7.550   1.674
 5745WAT     H217478   2.864   7.392   1.656
 5746WAT      O17479   3.614   5.567   4.031
 5746WAT     H117480   3.568   5.504   3.968
 5746WAT     H217481   3.548   5.636   4.062
 5747WAT      O17482   7.676   3.368   7.619
 5747WAT     H117483   7.774   3.383   7.626
 5747WAT     H217484   7.658   3.290   7.559
 5748WAT      O17485   3.830   8.165   8.888
 5748WAT     H117486   3.866   8.255   8.865
 5748WAT     H217487   3.822   8.157   8.988
 5749WAT      O17488   6.744   9.361   3.994
 5749WAT     H117489   6.705   9.277   3.958
 5749WAT     H217490   6.842   9.364   3.975
 5750WAT      O17491   5.768   6.702   5.919
 5750WAT     H117492   5.692   6.752   5.878
 5750WAT     H217493   5.781   6.615   5.872
 5751WAT      O17494   5.151   3.979   1.936
 5751WAT     H117495   5.086   3.906   1.911
 5751WAT     H217496   5.204   4.005   1.855
 5752WAT      O17497   5.460   1.322   9.583
 5752WAT     H117498   5.514   1.401   9.613
 5752WAT     H217499   5.380   1.354   9.533
 5753WAT      O17500   8.384   4.957   8.656
 5753WAT     H117501   8.436   5.041   8.637
 5753WAT     H217502   8.308   4.979   8.716
 5754WAT      O17503   3.123   8.741   8.589
 5754WAT     H117504   3.218   8.745   8.559
 5754WAT     H217505   3.117   8.772   8.684
 5755WAT      O17506   7.247   5.175   9.701
 5755WAT     H117507   7.224   5.078   9.693
 5755WAT     H217508   7.211   5.225   9.622
 5756WAT      O17509   9.596   9.581   8.273
 5756WAT     H117510   9.533   9.614   8.202
 5756WAT     H217511   9.563   9.610   8.362
 5757WAT      O17512   0.865   3.903   7.373
 5757WAT     H117513   0.917   3.988   7.373
 5757WAT     H217514   0.924   3.828   7.403
 5758WAT      O17515   3.404   0.130   8.258
 5758WAT     H117516   3.314   0.137   8.215
 5758WAT     H217517   3.394   0.099   8.352
 5759WAT      O17518   6.552   0.955   3.627
 5759WAT     H117519   6.485   0.889   3.592
 5759WAT     H217520   6.619   0.908   3.683
 5760WAT      O17521   2.275   3.072   7.997
 5760WAT     H117522   2.337   3.122   7.937
 5760WAT     H217523   2.181   3.099   7.978
 5761WAT      O17524   2.942   9.699   2.581
 5761WAT     H117525   2.960   9.611   2.537
 5761WAT     H217526   3.023   9.728   2.632
 5762WAT      O17527   5.879   1.575   0.850
 5762WAT     H117528   5.852   1.519   0.772
 5762WAT     H217529   5.880   1.518   0.933
 5763WAT      O17530   8.323   2.546   1.577
 5763WAT     H117531   8.305   2.590   1.489
 5763WAT     H217532   8.305   2.612   1.651
 5764WAT      O17533   3.074   9.718   3.948
 5764WAT     H117534   3.000   9.786   3.957
 5764WAT     H217535   3.118   9.729   3.859
 5765WAT      O17536   7.143   4.125   2.142
 5765WAT     H117537   7.216   4.161   2.084
 5765WAT     H217538   7.099   4.047   2.096
 5766WAT      O17539   9.078   5.449   4.108
 5766WAT     H117540   9.001   5.504   4.077
 5766WAT     H217541   9.119   5.492   4.189
 5767WAT      O17542   8.437   4.909   7.949
 5767WAT     H117543   8.455   5.004   7.923
 5767WAT     H217544   8.348   4.903   7.994
 5768WAT      O17545   1.712   0.865   3.879
 5768WAT     H117546   1.776   0.835   3.950
 5768WAT     H217547   1.623   0.823   3.895
 5769WAT      O17548   8.300   3.349   1.192
 5769WAT     H117549   8.280   3.369   1.288
 5769WAT     H217550   8.277   3.429   1.136
 5770WAT      O17551   3.987   4.084   6.558
 5770WAT     H117552   3.895   4.114   6.533
 5770WAT     H217553   3.983   3.989   6.592
 5771WAT      O17554   4.215   4.180   6.897
 5771WAT     H117555   4.180   4.088   6.880
 5771WAT     H217556   4.196   4.239   6.818
 5772WAT      O17557   2.499   7.535   4.125
 5772WAT     H117558   2.508   7.445   4.082
 5772WAT     H217559   2.411   7.540   4.173
 5773WAT      O17560   2.477   2.236   6.109
 5773WAT     H117561   2.544   2.237   6.035
 5773WAT     H217562   2.483   2.148   6.157
 5774WAT      O17563   3.915   9.825   2.285
 5774WAT     H117564   3.958   9.743   2.323
 5774WAT     H217565   3.899   9.892   2.357
 5775WAT      O17566   8.882   5.228   6.427
 5775WAT     H117567   8.836   5.176   6.355
 5775WAT     H217568   8.965   5.179   6.456
 5776WAT      O17569   7.709   1.403   2.885
 5776WAT     H117570   7.615   1.388   2.918
 5776WAT     H217571   7.718   1.496   2.852
 5777WAT      O17572   9.794   7.247   3.840
 5777WAT     H117573   9.755   7.321   3.895
 5777WAT     H217574   9.762   7.159   3.875
 5778WAT      O17575   6.367   1.766   8.144
 5778WAT     H117576   6.285   1.748   8.090
 5778WAT     H217577   6.446   1.727   8.098
 5779WAT      O17578   3.413   7.520   3.255
 5779WAT     H117579   3.483   7.557   3.317
 5779WAT     H217580   3.325   7.565   3.273
 5780WAT      O17581   0.202   3.251   4.455
 5780WAT     H117582   0.199   3.153   4.478
 5780WAT     H217583   0.108   3.283   4.438
 5781WAT      O17584   3.864   8.674   5.288
 5781WAT     H117585   3.927   8.597   5.293
 5781WAT     H217586   3.845   8.695   5.192
 5782WAT      O17587   9.378   2.386   3.988
 5782WAT     H117588   9.391   2.384   4.087
 5782WAT     H217589   9.280   2.381   3.967
 5783WAT      O17590   0.936   6.797   4.550
 5783WAT     H117591   0.914   6.813   4.454
 5783WAT     H217592   0.884   6.860   4.607
 5784WAT      O17593   1.667   9.582   8.014
 5784WAT     H117594   1.690   9.512   8.082
 5784WAT     H217595   1.689   9.672   8.050
 5785WAT      O17596   3.876   9.372   3.749
 5785WAT     H117597   3.895   9.275   3.734
 5785WAT     H217598   3.816   9.381   3.829
 5786WAT      O17599   6.987   0.716   7.355
 5786WAT     H117600   7.016   0.749   7.266
 5786WAT     H217601   7.062   0.725   7.420
 5787WAT      O17602   2.633   6.929   3.759
 5787WAT     H117603   2.586   6.844   3.783
 5787WAT     H217604   2.567   6.993   3.719
 5788WAT      O17605   6.977   6.260   4.450
 5788WAT     H117606   6.890   6.306   4.469
 5788WAT     H217607   7.051   6.308   4.497
 5789WAT      O17608   4.704   7.712   5.540
 5789WAT     H117609   4.719   7.621   5.502
 5789WAT     H217610   4.623   7.712   5.597
 5790WAT      O17611   3.368   8.299   4.000
 5790WAT     H117612   3.365   8.217   4.056
 5790WAT     H217613   3.430   8.284   3.922
 5791WAT      O17614   9.475   8.645   9.529
 5791WAT     H117615   9.498   8.611   9.438
 5791WAT     H217616   9.377   8.634   9.545
 5792WAT      O17617   0.162   1.233   3.450
 5792WAT     H117618   0.223   1.311   3.462
 5792WAT     H217619   0.118   1.239   3.360
 5793WAT      O17620   4.279   3.163   2.064
 5793WAT     H117621   4.353   3.159   2.131
 5793WAT     H217622   4.264   3.258   2.036
 5794WAT      O17623   1.691   6.127   2.646
 5794WAT     H117624   1.620   6.181   2.689
 5794WAT     H217625   1.725   6.174   2.564
 5795WAT      O17626   1.199   7.176   6.540
 5795WAT     H117627   1.181   7.080   6.560
 5795WAT     H217628   1.297   7.190   6.531
 5796WAT      O17629   1.320   3.987   7.214
 5796WAT     H117630   1.350   3.973   7.119
 5796WAT     H217631   1.345   4.079   7.244
 5797WAT      O17632   8.946   1.802   8.509
 5797WAT     H117633   9.018   1.790   8.577
 5797WAT     H217634   8.969   1.879   8.449
 5798WAT      O17635   3.927   4.216   8.316
 5798WAT     H117636   3.861   4.270   8.369
 5798WAT     H217637   3.880   4.141   8.271
 5799WAT      O17638   7.131   6.407   8.043
 5799WAT     H117639   7.150   6.374   8.135
 5799WAT     H217640   7.216   6.409   7.990
 5800WAT      O17641   2.334   6.285   8.362
 5800WAT     H117642   2.344   6.384   8.365
 5800WAT     H217643   2.238   6.262   8.348
 5801WAT      O17644   3.286   6.283   4.201
 5801WAT     H117645   3.189   6.260   4.204
 5801WAT     H217646   3.327   6.268   4.291
 5802WAT      O17647   6.055   2.106   0.785
 5802WAT     H117648   6.033   2.174   0.854
 5802WAT     H217649   6.094   2.025   0.830
 5803WAT      O17650   5.038   9.664   3.972
 5803WAT     H117651   5.094   9.694   4.048
 5803WAT     H217652   5.068   9.573   3.942
 5804WAT      O17653   9.767   7.381   1.115
 5804WAT     H117654   9.865   7.368   1.102
 5804WAT     H217655   9.720   7.293   1.111
 5805WAT      O17656   9.210   3.176   5.236
 5805WAT     H117657   9.145   3.100   5.249
 5805WAT     H217658   9.159   3.262   5.229
 5806WAT      O17659   6.111   1.100   3.178
 5806WAT     H117660   6.012   1.113   3.174
 5806WAT     H217661   6.134   1.011   3.140
 5807WAT      O17662   2.321   3.864   8.726
 5807WAT     H117663   2.380   3.891   8.650
 5807WAT     H217664   2.377   3.832   8.802
 5808WAT      O17665   2.359   1.402   3.210
 5808WAT     H117666   2.355   1.491   3.254
 5808WAT     H217667   2.448   1.390   3.166
 5809WAT      O17668   6.475   0.435   5.086
 5809WAT     H117669   6.444   0.438   5.181
 5809WAT     H217670   6.575   0.433   5.083
 5810WAT      O17671   4.145   6.915   0.252
 5810WAT     H117672   4.111   6.825   0.281
 5810WAT     H217673   4.195   6.905   0.166
 5811WAT      O17674   5.000   4.794   1.697
 5811WAT     H117675   4.918   4.737   1.708
 5811WAT     H217676   5.054   4.760   1.620
 5812WAT      O17677   2.755   1.689   5.406
 5812WAT     H117678   2.832   1.673   5.468
 5812WAT     H217679   2.732   1.786   5.406
 5813WAT      O17680   5.033   1.242   4.622
 5813WAT     H117681   5.061   1.234   4.717
 5813WAT     H217682   4.946   1.193   4.608
 5814WAT      O17683   9.418   1.151   3.427
 5814WAT     H117684   9.429   1.198   3.339
 5814WAT     H217685   9.321   1.136   3.445
 5815WAT      O17686   0.342   0.535   6.310
 5815WAT     H117687   0.363   0.552   6.213
 5815WAT     H217688   0.410   0.581   6.367
 5816WAT      O17689   4.957   9.683   6.169
 5816WAT     H117690   5.002   9.646   6.088
 5816WAT     H217691   5.026   9.719   6.232
 5817WAT      O17692   8.143   3.820   7.171
 5817WAT     H117693   8.146   3.915   7.200
 5817WAT     H217694   8.049   3.787   7.172
 5818WAT      O17695   8.807   8.290   2.818
 5818WAT     H117696   8.725   8.348   2.816
 5818WAT     H217697   8.785   8.199   2.784
 5819WAT      O17698   7.227   9.009   9.883
 5819WAT     H117699   7.290   9.086   9.877
 5819WAT     H217700   7.133   9.043   9.879
 5820WAT      O17701   6.799   9.838   8.854
 5820WAT     H117702   6.852   9.867   8.934
 5820WAT     H217703   6.858   9.783   8.794
 5821WAT      O17704   1.175   9.203   0.656
 5821WAT     H117705   1.178   9.299   0.625
 5821WAT     H217706   1.162   9.200   0.755
 5822WAT      O17707   7.307   3.833   0.422
 5822WAT     H117708   7.368   3.766   0.465
 5822WAT     H217709   7.244   3.869   0.490
 5823WAT      O17710   2.749   0.212   5.849
 5823WAT     H117711   2.670   0.235   5.792
 5823WAT     H217712   2.781   0.120   5.826
 5824WAT      O17713   9.373   2.825   0.207
 5824WAT     H117714   9.322   2.799   0.289
 5824WAT     H217715   9.459   2.775   0.204
 5825WAT      O17716   0.354   9.520   6.433
 5825WAT     H117717   0.315   9.454   6.497
 5825WAT     H217718   0.434   9.481   6.389
 5826WAT      O17719   6.484   8.533   7.223
 5826WAT     H117720   6.555   8.553   7.156
 5826WAT     H217721   6.461   8.436   7.220
 5827WAT      O17722   6.049   7.081   6.050
 5827WAT     H117723   6.079   7.028   6.129
 5827WAT     H217724   5.970   7.137   6.075
 5828WAT      O17725   8.866   9.821   4.535
 5828WAT     H117726   8.947   9.793   4.586
 5828WAT     H217727   8.786   9.818   4.596
 5829WAT      O17728   5.901   7.047   4.658
 5829WAT     H117729   5.883   7.137   4.699
 5829WAT     H217730   5.920   6.981   4.731
 5830WAT      O17731   9.123   1.144   3.437
 5830WAT     H117732   9.152   1.236   3.464
 5830WAT     H217733   9.043   1.118   3.491
 5831WAT      O17734   4.301   2.487   8.124
 5831WAT     H117735   4.265   2.580   8.130
 5831WAT     H217736   4.399   2.490   8.106
 5832WAT      O17737   4.696   9.336   6.463
 5832WAT     H117738   4.763   9.282   6.513
 5832WAT     H217739   4.704   9.316   6.365
 5833WAT      O17740   4.597   6.677   7.369
 5833WAT     H117741   4.515   6.640   7.415
 5833WAT     H217742   4.679   6.644   7.416
 5834WAT      O17743   0.750   8.434   2.818
 5834WAT     H117744   0.802   8.518   2.803
 5834WAT     H217745   0.812   8.355   2.816
 5835WAT      O17746   7.010   4.477   7.956
 5835WAT     H117747   6.966   4.464   8.045
 5835WAT     H217748   6.942   4.469   7.883
 5836WAT      O17749   4.547   0.336   4.723
 5836WAT     H117750   4.506   0.285   4.647
 5836WAT     H217751   4.487   0.411   4.750
 5837WAT      O17752   7.280   6.812   7.941
 5837WAT     H117753   7.379   6.800   7.951
 5837WAT     H217754   7.247   6.756   7.865
 5838WAT      O17755   4.791   1.209   1.352
 5838WAT     H117756   4.883   1.216   1.315
 5838WAT     H217757   4.733   1.279   1.311
 5839WAT      O17758   9.729   3.312   0.497
 5839WAT     H117759   9.692   3.236   0.444
 5839WAT     H217760   9.654   3.372   0.524
 5840WAT      O17761   1.381   9.740   6.332
 5840WAT     H117762   1.442   9.665   6.307
 5840WAT     H217763   1.333   9.772   6.251
 5841WAT      O17764   9.839   5.866   6.680
 5841WAT     H117765   9.868   5.874   6.584
 5841WAT     H217766   9.902   5.805   6.728
 5842WAT      O17767   2.251   4.000   8.341
 5842WAT     H117768   2.320   3.993   8.413
 5842WAT     H217769   2.263   4.087   8.293
 5843WAT      O17770   6.738   0.221   5.072
 5843WAT     H117771   6.747   0.244   5.169
 5843WAT     H217772   6.641   0.214   5.049
 5844WAT      O17773   9.290   8.738   1.229
 5844WAT     H117774   9.345   8.698   1.156
 5844WAT     H217775   9.197   8.754   1.196
 5845WAT      O17776   8.119   9.447   7.039
 5845WAT     H117777   8.158   9.368   6.993
 5845WAT     H217778   8.035   9.475   6.993
 5846WAT      O17779   1.471   2.848   0.097
 5846WAT     H117780   1.498   2.861   0.193
 5846WAT     H217781   1.508   2.923   0.042
 5847WAT      O17782   2.267   4.248   7.186
 5847WAT     H117783   2.307   4.278   7.272
 5847WAT     H217784   2.238   4.327   7.133
 5848WAT      O17785   6.151   5.782   5.966
 5848WAT     H117786   6.061   5.827   5.964
 5848WAT     H217787   6.190   5.792   6.058
 5849WAT      O17788   5.693   2.631   1.131
 5849WAT     H117789   5.732   2.709   1.179
 5849WAT     H217790   5.755   2.553   1.137
 5850WAT      O17791   5.341   3.736   2.350
 5850WAT     H117792   5.360   3.666   2.419
 5850WAT     H217793   5.247   3.728   2.319
 5851WAT      O17794   9.194   1.214   5.351
 5851WAT     H117795   9.203   1.177   5.258
 5851WAT     H217796   9.100   1.202   5.383
 5852WAT      O17797   1.519   3.872   1.955
 5852WAT     H117798   1.570   3.856   2.040
 5852WAT     H217799   1.440   3.810   1.951
 5853WAT      O17800   6.306   8.781   0.329
 5853WAT     H117801   6.289   8.879   0.335
 5853WAT     H217802   6.237   8.738   0.270
 5854WAT      O17803   9.378   1.880   4.713
 5854WAT     H117804   9.371   1.864   4.615
 5854WAT     H217805   9.286   1.892   4.752
 5855WAT      O17806   6.327   5.619   1.291
 5855WAT     H117807   6.300   5.713   1.316
 5855WAT     H217808   6.392   5.623   1.215
 5856WAT      O17809   0.276   6.593   7.026
 5856WAT     H117810   0.245   6.648   6.949
 5856WAT     H217811   0.311   6.505   6.993
 5857WAT      O17812   6.821   6.912   9.824
 5857WAT     H117813   6.865   7.001   9.832
 5857WAT     H217814   6.731   6.923   9.783
 5858WAT      O17815   6.961   8.772   0.104
 5858WAT     H117816   7.000   8.800   0.192
 5858WAT     H217817   6.893   8.700   0.119
 5859WAT      O17818   5.916   7.498   5.837
 5859WAT     H117819   5.826   7.533   5.811
 5859WAT     H217820   5.985   7.536   5.775
 5860WAT      O17821   1.979   5.104   5.128
 5860WAT     H117822   1.913   5.035   5.158
 5860WAT     H217823   2.072   5.071   5.144
 5861WAT      O17824   8.010   7.766   8.122
 5861WAT     H117825   8.079   7.694   8.125
 5861WAT     H217826   7.989   7.796   8.215
 5862WAT      O17827   1.095   1.224   7.177
 5862WAT     H117828   1.095   1.317   7.140
 5862WAT     H217829   1.174   1.212   7.236
 5863WAT      O17830   1.695   4.072   0.917
 5863WAT     H117831   1.598   4.057   0.934
 5863WAT     H217832   1.748   3.999   0.961
 5864WAT      O17833   3.968   3.136   1.441
 5864WAT     H117834   4.058   3.111   1.403
 5864WAT     H217835   3.979   3.214   1.501
 5865WAT      O17836   7.833   7.603   4.087
 5865WAT     H117837   7.879   7.516   4.070
 5865WAT     H217838   7.885   7.677   4.044
 5866WAT      O17839   7.183   2.612   9.559
 5866WAT     H117840   7.164   2.615   9.657
 5866WAT     H217841   7.174   2.704   9.520
 5867WAT      O17842   4.662   9.535   9.166
 5867WAT     H117843   4.658   9.491   9.076
 5867WAT     H217844   4.650   9.634   9.156
 5868WAT      O17845   8.636   7.353   3.527
 5868WAT     H117846   8.653   7.273   3.469
 5868WAT     H217847   8.674   7.435   3.484
 5869WAT      O17848   6.668   5.272   5.437
 5869WAT     H117849   6.585   5.234   5.479
 5869WAT     H217850   6.642   5.344   5.372
 5870WAT      O17851   4.771   4.824   8.283
 5870WAT     H117852   4.835   4.899   8.266
 5870WAT     H217853   4.819   4.748   8.327
 5871WAT      O17854   6.430   8.999   7.172
 5871WAT     H117855   6.385   8.997   7.261
 5871WAT     H217856   6.455   9.093   7.149
 5872WAT      O17857   0.968   0.379   9.843
 5872WAT     H117858   0.997   0.461   9.892
 5872WAT     H217859   0.921   0.318   9.906
 5873WAT      O17860   7.110   7.709   6.759
 5873WAT     H117861   7.033   7.764   6.728
 5873WAT     H217862   7.167   7.763   6.820
 5874WAT      O17863   1.316   2.913   9.613
 5874WAT     H117864   1.279   2.982   9.550
 5874WAT     H217865   1.409   2.890   9.585
 5875WAT      O17866   7.157   9.620   3.714
 5875WAT     H117867   7.169   9.696   3.650
 5875WAT     H217868   7.153   9.534   3.664
 5876WAT      O17869   1.779   9.425   5.820
 5876WAT     H117870   1.757   9.329   5.841
 5876WAT     H217871   1.733   9.451   5.735
 5877WAT      O17872   0.885   5.114   9.454
 5877WAT     H117873   0.892   5.080   9.360
 5877WAT     H217874   0.976   5.141   9.486
 5878WAT      O17875   7.791   6.368   0.907
 5878WAT     H117876   7.700   6.355   0.947
 5878WAT     H217877   7.838   6.442   0.954
 5879WAT      O17878   8.033   0.846   1.208
 5879WAT     H117879   8.044   0.789   1.126
 5879WAT     H217880   8.103   0.821   1.275
 5880WAT      O17881   0.558   4.533   5.923
 5880WAT     H117882   0.484   4.485   5.970
 5880WAT     H217883   0.527   4.560   5.832
 5881WAT      O17884   9.686   3.567   0.233
 5881WAT     H117885   9.678   3.552   0.135
 5881WAT     H217886   9.721   3.484   0.276
 5882WAT      O17887   3.441   4.885   1.324
 5882WAT     H117888   3.376   4.961   1.328
 5882WAT     H217889   3.501   4.897   1.245
 5883WAT      O17890   7.238   6.850   0.609
 5883WAT     H117891   7.252   6.819   0.703
 5883WAT     H217892   7.153   6.902   0.603
 5884WAT      O17893   3.103   9.210   6.473
 5884WAT     H117894   3.110   9.169   6.382
 5884WAT     H217895   3.044   9.291   6.468
 5885WAT      O17896   9.035   5.021   2.924
 5885WAT     H117897   9.054   5.000   3.020
 5885WAT     H217898   8.970   4.954   2.887
 5886WAT      O17899   2.377   1.330   0.431
 5886WAT     H117900   2.370   1.426   0.460
 5886WAT     H217901   2.471   1.312   0.402
 5887WAT      O17902   8.762   5.879   6.334
 5887WAT     H117903   8.728   5.822   6.258
 5887WAT     H217904   8.847   5.840   6.369
 5888WAT      O17905   2.044   6.042   7.654
 5888WAT     H117906   1.948   6.048   7.683
 5888WAT     H217907   2.087   5.963   7.698
 5889WAT      O17908   7.270   2.820   7.116
 5889WAT     H117909   7.350   2.787   7.066
 5889WAT     H217910   7.238   2.905   7.075
 5890WAT      O17911   9.283   8.997   0.684
 5890WAT     H117912   9.380   8.974   0.680
 5890WAT     H217913   9.267   9.084   0.636
 5891WAT      O17914   2.920   6.557   1.970
 5891WAT     H117915   2.871   6.552   1.883
 5891WAT     H217916   2.989   6.485   1.974
 5892WAT      O17917   9.209   8.667   1.478
 5892WAT     H117918   9.243   8.733   1.545
 5892WAT     H217919   9.238   8.695   1.386
 5893WAT      O17920   3.399   6.796   5.923
 5893WAT     H117921   3.368   6.730   5.855
 5893WAT     H217922   3.478   6.760   5.971
 5894WAT      O17923   4.542   8.527   5.300
 5894WAT     H117924   4.561   8.432   5.324
 5894WAT     H217925   4.485   8.530   5.218
 5895WAT      O17926   7.919   0.840   9.046
 5895WAT     H117927   7.876   0.778   8.980
 5895WAT     H217928   7.855   0.856   9.122
 5896WAT      O17929   6.357   7.197   7.863
 5896WAT     H117930   6.334   7.174   7.768
 5896WAT     H217931   6.287   7.257   7.900
 5897WAT      O17932   7.695   0.991   2.871
 5897WAT     H117933   7.749   1.051   2.812
 5897WAT     H217934   7.723   0.896   2.856
 5898WAT      O17935   7.614   1.310   8.213
 5898WAT     H117936   7.592   1.250   8.289
 5898WAT     H217937   7.665   1.389   8.247
 5899WAT      O17938   3.535   0.045   9.765
 5899WAT     H117939   3.617   0.068   9.713
 5899WAT     H217940   3.464   0.012   9.703
 5900WAT      O17941   9.792   2.395   6.824
 5900WAT     H117942   9.778   2.488   6.793
 5900WAT     H217943   9.838   2.396   6.913
 5901WAT      O17944   0.304   4.658   3.604
 5901WAT     H117945   0.333   4.563   3.597
 5901WAT     H217946   0.216   4.663   3.652
 5902WAT      O17947   5.322   6.346   2.201
 5902WAT     H117948   5.245   6.388   2.249
 5902WAT     H217949   5.395   6.326   2.267
 5903WAT      O17950   2.706   4.605   7.810
 5903WAT     H117951   2.643   4.569   7.879
 5903WAT     H217952   2.778   4.537   7.793
 5904WAT      O17953   8.259   5.057   1.081
 5904WAT     H117954   8.195   5.005   1.138
 5904WAT     H217955   8.281   5.004   0.999
 5905WAT      O17956   0.870   5.408   1.459
 5905WAT     H117957   0.941   5.478   1.468
 5905WAT     H217958   0.907   5.329   1.410
 5906WAT      O17959   4.598   5.150   3.290
 5906WAT     H117960   4.660   5.150   3.211
 5906WAT     H217961   4.572   5.056   3.311
 5907WAT      O17962   6.047   8.374   3.848
 5907WAT     H117963   5.994   8.408   3.770
 5907WAT     H217964   6.003   8.402   3.933
 5908WAT      O17965   5.900   6.518   6.822
 5908WAT     H117966   5.893   6.615   6.845
 5908WAT     H217967   5.979   6.503   6.763
 5909WAT      O17968   8.270   4.473   9.435
 5909WAT     H117969   8.248   4.381   9.401
 5909WAT     H217970   8.196   4.536   9.410
 5910WAT      O17971   7.456   5.844   5.605
 5910WAT     H117972   7.502   5.924   5.566
 5910WAT     H217973   7.469   5.843   5.705
 5911WAT      O17974   4.817   0.799   5.381
 5911WAT     H117975   4.796   0.759   5.470
 5911WAT     H217976   4.912   0.781   5.357
 5912WAT      O17977   0.712   2.210   0.906
 5912WAT     H117978   0.658   2.143   0.855
 5912WAT     H217979   0.651   2.266   0.961
 5913WAT      O17980   5.680   9.289   6.905
 5913WAT     H117981   5.723   9.331   6.985
 5913WAT     H217982   5.653   9.196   6.927
 5914WAT      O17983   4.809   3.362   8.487
 5914WAT     H117984   4.763   3.449   8.503
 5914WAT     H217985   4.900   3.364   8.529
 5915WAT      O17986   7.947   1.127   5.586
 5915WAT     H117987   7.994   1.039   5.594
 5915WAT     H217988   7.861   1.123   5.636
 5916WAT      O17989   4.192   8.074   1.866
 5916WAT     H117990   4.093   8.063   1.872
 5916WAT     H217991   4.236   8.022   1.938
 5917WAT      O17992   7.872   7.963   5.711
 5917WAT     H117993   7.838   7.890   5.771
 5917WAT     H217994   7.798   8.028   5.693
 5918WAT      O17995   6.474   6.108   7.434
 5918WAT     H117996   6.455   6.040   7.505
 5918WAT     H217997   6.568   6.098   7.402
 5919WAT      O17998   8.741   4.892   3.081
 5919WAT     H117999   8.795   4.854   3.156
 5919WAT     H218000   8.782   4.867   2.993
 5920WAT      O18001   6.866   0.677   9.320
 5920WAT     H118002   6.951   0.661   9.269
 5920WAT     H218003   6.882   0.747   9.390
 5921WAT      O18004   2.449   6.091   4.605
 5921WAT     H118005   2.508   6.134   4.537
 5921WAT     H218006   2.355   6.123   4.593
 5922WAT      O18007   3.090   6.603   0.949
 5922WAT     H118008   3.156   6.619   1.022
 5922WAT     H218009   3.060   6.507   0.952
 5923WAT      O18010   8.151   5.215   9.700
 5923WAT     H118011   8.055   5.202   9.722
 5923WAT     H218012   8.173   5.166   9.615
 5924WAT      O18013   0.086   0.677   4.389
 5924WAT     H118014   0.030   0.757   4.365
 5924WAT     H218015   0.048   0.634   4.471
 5925WAT      O18016   3.579   4.135   5.352
 5925WAT     H118017   3.630   4.194   5.289
 5925WAT     H218018   3.489   4.176   5.370
 5926WAT      O18019   4.312   4.655   0.031
 5926WAT     H118020   4.400   4.694   0.058
 5926WAT     H218021   4.303   4.564   0.070
 5927WAT      O18022   0.656   7.317   4.121
 5927WAT     H118023   0.682   7.413   4.110
 5927WAT     H218024   0.708   7.279   4.198
 5928WAT      O18025   4.604   5.679   6.882
 5928WAT     H118026   4.519   5.628   6.870
 5928WAT     H218027   4.644   5.699   6.793
 5929WAT      O18028   2.566   0.309   4.115
 5929WAT     H118029   2.499   0.312   4.188
 5929WAT     H218030   2.528   0.350   4.032
 5930WAT      O18031   4.656   6.700   6.460
 5930WAT     H118032   4.598   6.730   6.535
 5930WAT     H218033   4.727   6.638   6.494
 5931WAT      O18034   8.147   7.418   5.910
 5931WAT     H118035   8.092   7.497   5.885
 5931WAT     H218036   8.236   7.424   5.866
 5932WAT      O18037   2.580   7.993   6.808
 5932WAT     H118038   2.603   7.940   6.890
 5932WAT     H218039   2.644   7.969   6.734
 5933WAT      O18040   9.176   7.081   2.796
 5933WAT     H118041   9.232   7.144   2.742
 5933WAT     H218042   9.154   7.000   2.741
 5934WAT      O18043   7.871   5.052   9.531
 5934WAT     H118044   7.860   5.076   9.628
 5934WAT     H218045   7.969   5.049   9.509
 5935WAT      O18046   2.803   1.707   7.129
 5935WAT     H118047   2.708   1.734   7.146
 5935WAT     H218048   2.835   1.747   7.043
 5936WAT      O18049   0.773   5.785   3.823
 5936WAT     H118050   0.776   5.755   3.918
 5936WAT     H218051   0.822   5.872   3.814
 5937WAT      O18052   2.162   6.266   9.019
 5937WAT     H118053   2.258   6.284   9.043
 5937WAT     H218054   2.104   6.287   9.098
 5938WAT      O18055   3.333   1.777   5.383
 5938WAT     H118056   3.400   1.736   5.321
 5938WAT     H218057   3.241   1.757   5.352
 5939WAT      O18058   9.593   6.090   3.427
 5939WAT     H118059   9.619   6.172   3.376
 5939WAT     H218060   9.515   6.046   3.382
 5940WAT      O18061   6.485   2.710   3.301
 5940WAT     H118062   6.395   2.743   3.271
 5940WAT     H218063   6.555   2.741   3.236
 5941WAT      O18064   4.727   6.362   7.277
 5941WAT     H118065   4.684   6.401   7.196
 5941WAT     H218066   4.788   6.287   7.249
 5942WAT      O18067   4.222   6.086   9.647
 5942WAT     H118068   4.182   6.169   9.609
 5942WAT     H218069   4.173   6.059   9.730
 5943WAT      O18070   2.837   3.701   1.809
 5943WAT     H118071   2.934   3.720   1.795
 5943WAT     H218072   2.821   3.602   1.806
 5944WAT      O18073   1.823   0.669   0.844
 5944WAT     H118074   1.729   0.656   0.877
 5944WAT     H218075   1.822   0.681   0.744
 5945WAT      O18076   0.834   5.808   1.839
 5945WAT     H118077   0.857   5.898   1.803
 5945WAT     H218078   0.788   5.755   1.767
 5946WAT      O18079   2.520   8.416   0.818
 5946WAT     H118080   2.599   8.463   0.857
 5946WAT     H218081   2.540   8.319   0.808
 5947WAT      O18082   4.574   4.752   3.822
 5947WAT     H118083   4.673   4.766   3.819
 5947WAT     H218084   4.553   4.672   3.877
 5948WAT      O18085   7.885   7.408   3.052
 5948WAT     H118086   7.895   7.320   3.100
 5948WAT     H218087   7.932   7.403   2.964
 5949WAT      O18088   0.391   1.150   1.607
 5949WAT     H118089   0.417   1.163   1.703
 5949WAT     H218090   0.465   1.183   1.548
 5950WAT      O18091   6.738   3.720   0.440
 5950WAT     H118092   6.671   3.661   0.395
 5950WAT     H218093   6.764   3.795   0.379
 5951WAT      O18094   4.899   4.110   0.545
 5951WAT     H118095   4.938   4.085   0.456
 5951WAT     H218096   4.973   4.140   0.606
 5952WAT      O18097   4.781   5.126   6.920
 5952WAT     H118098   4.697   5.096   6.965
 5952WAT     H218099   4.860   5.090   6.970
 5953WAT      O18100   3.447   5.486   0.937
 5953WAT     H118101   3.406   5.397   0.953
 5953WAT     H218102   3.515   5.479   0.864
 5954WAT      O18103   3.644   7.217   9.857
 5954WAT     H118104   3.741   7.195   9.848
 5954WAT     H218105   3.591   7.165   9.790
 5955WAT      O18106   2.175   7.858   4.561
 5955WAT     H118107   2.265   7.842   4.522
 5955WAT     H218108   2.138   7.771   4.595
 5956WAT      O18109   4.901   0.865   8.754
 5956WAT     H118110   4.984   0.894   8.706
 5956WAT     H218111   4.874   0.775   8.721
 5957WAT      O18112   4.792   3.382   1.711
 5957WAT     H118113   4.859   3.308   1.721
 5957WAT     H218114   4.787   3.434   1.796
 5958WAT      O18115   4.824   6.928   5.185
 5958WAT     H118116   4.735   6.972   5.194
 5958WAT     H218117   4.836   6.862   5.260
 5959WAT      O18118   2.931   1.776   8.576
 5959WAT     H118119   2.942   1.695   8.634
 5959WAT     H218120   2.858   1.834   8.613
 5960WAT      O18121   9.698   0.349   9.362
 5960WAT     H118122   9.705   0.371   9.459
 5960WAT     H218123   9.781   0.300   9.333
 5961WAT      O18124   8.212   5.567   4.226
 5961WAT     H118125   8.245   5.636   4.291
 5961WAT     H218126   8.236   5.595   4.133
 5962WAT      O18127   7.755   6.606   0.094
 5962WAT     H118128   7.853   6.624   0.100
 5962WAT     H218129   7.705   6.670   0.151
 5963WAT      O18130   3.335   0.348   0.461
 5963WAT     H118131   3.335   0.432   0.406
 5963WAT     H218132   3.241   0.315   0.470
 5964WAT      O18133   4.487   1.396   5.137
 5964WAT     H118134   4.404   1.452   5.137
 5964WAT     H218135   4.478   1.322   5.203
 5965WAT      O18136   1.422   2.001   4.757
 5965WAT     H118137   1.430   1.947   4.673
 5965WAT     H218138   1.472   2.087   4.747
 5966WAT      O18139   7.371   1.373   4.681
 5966WAT     H118140   7.300   1.435   4.646
 5966WAT     H218141   7.353   1.353   4.777
 5967WAT      O18142   4.283   0.173   5.448
 5967WAT     H118143   4.382   0.175   5.433
 5967WAT     H218144   4.261   0.100   5.513
 5968WAT      O18145   8.159   8.948   5.513
 5968WAT     H118146   8.191   8.941   5.607
 5968WAT     H218147   8.083   9.013   5.507
 5969WAT      O18148   6.821   1.270   5.307
 5969WAT     H118149   6.807   1.357   5.355
 5969WAT     H218150   6.918   1.247   5.305
 5970WAT      O18151   9.747   0.617   2.559
 5970WAT     H118152   9.669   0.664   2.516
 5970WAT     H218153   9.816   0.599   2.489
 5971WAT      O18154   2.362   1.634   1.084
 5971WAT     H118155   2.321   1.706   1.027
 5971WAT     H218156   2.430   1.584   1.031
 5972WAT      O18157   8.865   2.385   4.418
 5972WAT     H118158   8.963   2.378   4.403
 5972WAT     H218159   8.827   2.294   4.434
 5973WAT      O18160   3.390   4.220   9.286
 5973WAT     H118161   3.317   4.281   9.317
 5973WAT     H218162   3.350   4.137   9.247
 5974WAT      O18163   4.700   0.388   1.059
 5974WAT     H118164   4.800   0.393   1.058
 5974WAT     H218165   4.668   0.385   1.154
 5975WAT      O18166   8.859   3.794   8.536
 5975WAT     H118167   8.917   3.715   8.518
 5975WAT     H218168   8.776   3.788   8.479
 5976WAT      O18169   1.396   7.454   2.905
 5976WAT     H118170   1.344   7.370   2.918
 5976WAT     H218171   1.483   7.432   2.860
 5977WAT      O18172   8.826   8.702   6.875
 5977WAT     H118173   8.744   8.649   6.896
 5977WAT     H218174   8.870   8.664   6.794
 5978WAT      O18175   7.394   3.792   5.801
 5978WAT     H118176   7.342   3.737   5.735
 5978WAT     H218177   7.367   3.888   5.794
 5979WAT      O18178   6.750   4.234   3.940
 5979WAT     H118179   6.792   4.151   3.977
 5979WAT     H218180   6.673   4.260   3.997
 5980WAT      O18181   8.703   7.587   0.216
 5980WAT     H118182   8.774   7.548   0.274
 5980WAT     H218183   8.613   7.559   0.251
 5981WAT      O18184   6.286   8.465   5.939
 5981WAT     H118185   6.307   8.541   5.878
 5981WAT     H218186   6.199   8.424   5.913
 5982WAT      O18187   3.010   0.530   9.694
 5982WAT     H118188   2.981   0.481   9.612
 5982WAT     H218189   3.109   0.544   9.691
 5983WAT      O18190   3.397   1.802   8.190
 5983WAT     H118191   3.469   1.803   8.121
 5983WAT     H218192   3.334   1.878   8.174
 5984WAT      O18193   6.352   2.605   1.053
 5984WAT     H118194   6.317   2.532   1.110
 5984WAT     H218195   6.278   2.643   0.997
 5985WAT      O18196   4.903   5.524   6.626
 5985WAT     H118197   4.984   5.580   6.643
 5985WAT     H218198   4.880   5.473   6.709
 5986WAT      O18199   0.366   7.288   5.927
 5986WAT     H118200   0.426   7.208   5.929
 5986WAT     H218201   0.412   7.363   5.881
 5987WAT      O18202   9.272   9.314   9.494
 5987WAT     H118203   9.344   9.279   9.434
 5987WAT     H218204   9.312   9.335   9.584
 5988WAT      O18205   8.385   2.187   1.939
 5988WAT     H118206   8.464   2.185   2.000
 5988WAT     H218207   8.301   2.192   1.993
 5989WAT      O18208   7.377   3.025   3.116
 5989WAT     H118209   7.442   2.957   3.149
 5989WAT     H218210   7.413   3.068   3.034
 5990WAT      O18211   4.113   4.012   3.987
 5990WAT     H118212   4.204   4.050   4.004
 5990WAT     H218213   4.085   3.957   4.066
 5991WAT      O18214   0.338   8.546   3.746
 5991WAT     H118215   0.292   8.610   3.807
 5991WAT     H218216   0.376   8.596   3.668
 5992WAT      O18217   2.020   8.644   4.116
 5992WAT     H118218   1.940   8.585   4.101
 5992WAT     H218219   2.075   8.647   4.033
 5993WAT      O18220   2.902   4.965   3.867
 5993WAT     H118221   2.829   4.933   3.808
 5993WAT     H218222   2.982   4.988   3.812
 5994WAT      O18223   7.959   4.121   4.233
 5994WAT     H118224   7.923   4.028   4.235
 5994WAT     H218225   7.898   4.181   4.284
 5995WAT      O18226   2.348   0.524   5.763
 5995WAT     H118227   2.370   0.619   5.740
 5995WAT     H218228   2.260   0.500   5.723
 5996WAT      O18229   1.266   2.215   4.239
 5996WAT     H118230   1.191   2.151   4.259
 5996WAT     H218231   1.228   2.303   4.212
 5997WAT      O18232   6.674   5.802   1.563
 5997WAT     H118233   6.655   5.730   1.630
 5997WAT     H218234   6.697   5.886   1.611
 5998WAT      O18235   8.363   8.805   7.669
 5998WAT     H118236   8.302   8.730   7.694
 5998WAT     H218237   8.458   8.774   7.678
 5999WAT      O18238   7.627   9.038   3.362
 5999WAT     H118239   7.704   9.035   3.425
 5999WAT     H218240   7.568   9.116   3.385
 6000WAT      O18241   2.911   6.855   7.603
 6000WAT     H118242   2.893   6.883   7.697
 6000WAT     H218243   2.906   6.755   7.596
 6001WAT      O18244   1.451   1.701   3.486
 6001WAT     H118245   1.465   1.614   3.438
 6001WAT     H218246   1.515   1.707   3.563
 6002WAT      O18247   4.942   7.327   8.820
 6002WAT     H118248   4.867   7.392   8.810
 6002WAT     H218249   5.025   7.377   8.846
 6003WAT      O18250   6.848   7.324   0.405
 6003WAT     H118251   6.913   7.400   0.396
 6003WAT     H218252   6.874   7.267   0.483
 6004WAT      O18253   2.257   9.117   1.454
 6004WAT     H118254   2.223   9.211   1.447
 6004WAT     H218255   2.346   9.116   1.500
 6005WAT      O18256   3.583   0.777   5.872
 6005WAT     H118257   3.625   0.828   5.948
 6005WAT     H218258   3.652   0.717   5.831
 6006WAT      O18259   3.521   9.639   1.243
 6006WAT     H118260   3.558   9.559   1.291
 6006WAT     H218261   3.445   9.610   1.185
 6007WAT      O18262   7.421   6.236   9.119
 6007WAT     H118263   7.397   6.172   9.192
 6007WAT     H218264   7.337   6.269   9.075
 6008WAT      O18265   4.506   0.431   7.093
 6008WAT     H118266   4.436   0.502   7.086
 6008WAT     H218267   4.487   0.360   7.025
 6009WAT      O18268   6.308   8.156   9.629
 6009WAT     H118269   6.370   8.119   9.698
 6009WAT     H218270   6.226   8.191   9.673
 6010WAT      O18271   1.384   7.168   0.875
 6010WAT     H118272   1.385   7.074   0.842
 6010WAT     H218273   1.353   7.228   0.801
 6011WAT      O18274   2.079   2.586   5.238
 6011WAT     H118275   2.052   2.505   5.185
 6011WAT     H218276   2.163   2.624   5.200
 6012WAT      O18277   9.677   7.360   2.910
 6012WAT     H118278   9.747   7.422   2.946
 6012WAT     H218279   9.602   7.413   2.871
 6013WAT      O18280   1.686   0.067   6.048
 6013WAT     H118281   1.600   0.016   6.055
 6013WAT     H218282   1.740   0.028   5.973
 6014WAT      O18283   8.953   3.155   0.357
 6014WAT     H118284   8.943   3.065   0.314
 6014WAT     H218285   8.913   3.152   0.449
 6015WAT      O18286   8.721   5.374   5.601
 6015WAT     H118287   8.621   5.363   5.595
 6015WAT     H218288   8.748   5.456   5.551
 6016WAT      O18289   2.163   6.558   9.114
 6016WAT     H118290   2.198   6.649   9.089
 6016WAT     H218291   2.238   6.500   9.145
 6017WAT      O18292   4.992   4.355   6.515
 6017WAT     H118293   5.049   4.344   6.433
 6017WAT     H218294   5.050   4.363   6.596
 6018WAT      O18295   9.254   4.542   9.279
 6018WAT     H118296   9.327   4.570   9.341
 6018WAT     H218297   9.293   4.492   9.202
 6019WAT      O18298   6.172   7.515   1.001
 6019WAT     H118299   6.105   7.537   1.072
 6019WAT     H218300   6.263   7.545   1.031
 6020WAT      O18301   2.674   5.597   5.369
 6020WAT     H118302   2.632   5.533   5.305
 6020WAT     H218303   2.772   5.603   5.350
 6021WAT      O18304   3.186   3.637   9.835
 6021WAT     H118305   3.261   3.613   9.773
 6021WAT     H218306   3.115   3.566   9.831
 6022WAT      O18307   7.548   8.220   2.433
 6022WAT     H118308   7.532   8.188   2.340
 6022WAT     H218309   7.646   8.230   2.449
 6023WAT      O18310   4.410   7.194   7.619
 6023WAT     H118311   4.361   7.276   7.649
 6023WAT     H218312   4.496   7.187   7.670
 6024WAT      O18313   7.828   7.827   1.903
 6024WAT     H118314   7.738   7.798   1.868
 6024WAT     H218315   7.869   7.751   1.954
 6025WAT      O18316   4.138   5.317   1.807
 6025WAT     H118317   4.151   5.380   1.730
 6025WAT     H218318   4.200   5.239   1.796
 6026WAT      O18319   8.490   0.313   7.276
 6026WAT     H118320   8.553   0.342   7.204
 6026WAT     H218321   8.543   0.287   7.357
 6027WAT      O18322   4.940   3.994   7.383
 6027WAT     H118323   5.020   3.942   7.353
 6027WAT     H218324   4.936   3.994   7.483
 6028WAT      O18325   8.595   0.272   4.308
 6028WAT     H118326   8.582   0.173   4.321
 6028WAT     H218327   8.689   0.297   4.330
 6029WAT      O18328   5.807   1.262   1.986
 6029WAT     H118329   5.721   1.231   1.945
 6029WAT     H218330   5.843   1.339   1.934
 6030WAT      O18331   3.802   6.117   5.244
 6030WAT     H118332   3.710   6.128   5.281
 6030WAT     H218333   3.797   6.087   5.149
 6031WAT      O18334   3.857   8.190   4.101
 6031WAT     H118335   3.804   8.256   4.047
 6031WAT     H218336   3.952   8.222   4.108
 6032WAT      O18337   5.023   1.641   5.507
 6032WAT     H118338   4.984   1.701   5.437
 6032WAT     H218339   4.974   1.554   5.508
 6033WAT      O18340   6.685   9.036   4.275
 6033WAT     H118341   6.620   8.961   4.271
 6033WAT     H218342   6.763   9.010   4.332
 6034WAT      O18343   2.664   7.738   1.869
 6034WAT     H118344   2.706   7.828   1.860
 6034WAT     H218345   2.655   7.715   1.967
 6035WAT      O18346   8.743   4.907   2.054
 6035WAT     H118347   8.790   4.924   2.140
 6035WAT     H218348   8.808   4.875   1.986
 6036WAT      O18349   6.360   7.965   1.020
 6036WAT     H118350   6.428   8.029   1.056
 6036WAT     H218351   6.338   7.896   1.090
 6037WAT      O18352   2.173   2.790   9.749
 6037WAT     H118353   2.245   2.721   9.740
 6037WAT     H218354   2.212   2.873   9.787
 6038WAT      O18355   4.426   1.267   9.085
 6038WAT     H118356   4.384   1.232   9.170
 6038WAT     H218357   4.388   1.217   9.007
 6039WAT      O18358   0.453   5.340   0.746
 6039WAT     H118359   0.516   5.409   0.711
 6039WAT     H218360   0.436   5.271   0.675
 6040WAT      O18361   8.688   8.078   7.046
 6040WAT     H118362   8.662   7.982   7.052
 6040WAT     H218363   8.705   8.102   6.950
 6041WAT      O18364   0.461   8.934   8.962
 6041WAT     H118365   0.481   9.030   8.979
 6041WAT     H218366   0.547   8.884   8.947
 6042WAT      O18367   5.935   5.503   8.710
 6042WAT     H118368   6.022   5.550   8.694
 6042WAT     H218369   5.860   5.558   8.674
 6043WAT      O18370   3.146   4.674   1.464
 6043WAT     H118371   3.064   4.729   1.443
 6043WAT     H218372   3.217   4.734   1.500
 6044WAT      O18373   0.763   9.540   4.197
 6044WAT     H118374   0.685   9.583   4.243
 6044WAT     H218375   0.836   9.608   4.186
 6045WAT      O18376   1.983   8.718   3.092
 6045WAT     H118377   2.022   8.802   3.129
 6045WAT     H218378   1.936   8.669   3.165
 6046WAT      O18379   6.105   8.015   3.415
 6046WAT     H118380   6.071   7.946   3.479
 6046WAT     H218381   6.117   7.973   3.325
 6047WAT      O18382   0.170   0.917   4.081
 6047WAT     H118383   0.076   0.933   4.053
 6047WAT     H218384   0.185   0.819   4.093
 6048WAT      O18385   0.937   2.867   5.406
 6048WAT     H118386   0.860   2.895   5.463
 6048WAT     H218387   0.919   2.891   5.311
 6049WAT      O18388   5.734   7.653   4.030
 6049WAT     H118389   5.825   7.629   4.063
 6049WAT     H218390   5.671   7.579   4.051
 6050WAT      O18391   3.329   1.241   6.673
 6050WAT     H118392   3.339   1.341   6.673
 6050WAT     H218393   3.381   1.202   6.749
 6051WAT      O18394   4.408   2.702   1.626
 6051WAT     H118395   4.395   2.664   1.535
 6051WAT     H218396   4.327   2.754   1.653
 6052WAT      O18397   5.493   3.423   8.692
 6052WAT     H118398   5.434   3.353   8.733
 6052WAT     H218399   5.573   3.379   8.652
 6053WAT      O18400   3.266   7.286   8.160
 6053WAT     H118401   3.238   7.344   8.083
 6053WAT     H218402   3.196   7.288   8.231
 6054WAT      O18403   7.848   7.439   1.639
 6054WAT     H118404   7.822   7.462   1.733
 6054WAT     H218405   7.941   7.471   1.621
 6055WAT      O18406   9.764   0.863   0.298
 6055WAT     H118407   9.849   0.864   0.351
 6055WAT     H218408   9.753   0.951   0.252
 6056WAT      O18409   9.082   9.254   1.369
 6056WAT     H118410   9.113   9.222   1.459
 6056WAT     H218411   8.983   9.260   1.368
 6057WAT      O18412   8.537   8.316   8.255
 6057WAT     H118413   8.547   8.231   8.202
 6057WAT     H218414   8.465   8.372   8.214
 6058WAT      O18415   0.385   2.904   2.296
 6058WAT     H118416   0.413   2.953   2.378
 6058WAT     H218417   0.439   2.821   2.286
 6059WAT      O18418   6.948   3.513   1.840
 6059WAT     H118419   6.923   3.431   1.788
 6059WAT     H218420   6.941   3.495   1.938
 6060WAT      O18421   3.322   0.464   1.765
 6060WAT     H118422   3.359   0.428   1.680
 6060WAT     H218423   3.274   0.391   1.815
 6061WAT      O18424   9.593   2.554   3.879
 6061WAT     H118425   9.653   2.480   3.909
 6061WAT     H218426   9.498   2.520   3.876
 6062WAT      O18427   3.327   9.476   4.196
 6062WAT     H118428   3.329   9.449   4.099
 6062WAT     H218429   3.232   9.495   4.222
 6063WAT      O18430   2.665   1.279   1.759
 6063WAT     H118431   2.632   1.190   1.727
 6063WAT     H218432   2.614   1.352   1.712
 6064WAT      O18433   2.744   2.449   2.012
 6064WAT     H118434   2.650   2.432   1.981
 6064WAT     H218435   2.771   2.378   2.077
 6065WAT      O18436   2.970   1.309   0.500
 6065WAT     H118437   3.007   1.367   0.573
 6065WAT     H218438   2.935   1.367   0.426
 6066WAT      O18439   0.468   1.326   5.856
 6066WAT     H118440   0.374   1.293   5.870
 6066WAT     H218441   0.514   1.267   5.789
 6067WAT      O18442   2.678   6.734   9.092
 6067WAT     H118443   2.680   6.824   9.047
 6067WAT     H218444   2.718   6.666   9.031
 6068WAT      O18445   7.281   7.894   0.897
 6068WAT     H118446   7.336   7.819   0.935
 6068WAT     H218447   7.209   7.919   0.961
 6069WAT      O18448   5.245   7.104   6.980
 6069WAT     H118449   5.172   7.173   6.980
 6069WAT     H218450   5.205   7.014   6.997
 6070WAT      O18451   2.863   1.496   0.312
 6070WAT     H118452   2.769   1.507   0.278
 6070WAT     H218453   2.916   1.577   0.289
 6071WAT      O18454   4.435   0.294   6.429
 6071WAT     H118455   4.530   0.301   6.457
 6071WAT     H218456   4.413   0.198   6.409
 6072WAT      O18457   0.273   7.486   3.925
 6072WAT     H118458   0.360   7.512   3.883
 6072WAT     H218459   0.207   7.561   3.915
 6073WAT      O18460   7.721   7.072   0.067
 6073WAT     H118461   7.637   7.106   0.110
 6073WAT     H218462   7.697   7.007  -0.005
 6074WAT      O18463   8.008   0.599   3.614
 6074WAT     H118464   7.958   0.519   3.645
 6074WAT     H218465   7.948   0.679   3.614
 6075WAT      O18466   3.051   1.283   4.658
 6075WAT     H118467   2.966   1.278   4.605
 6075WAT     H218468   3.082   1.378   4.662
 6076WAT      O18469   0.175   3.837   1.652
 6076WAT     H118470   0.093   3.806   1.701
 6076WAT     H218471   0.205   3.765   1.589
 6077WAT      O18472   2.745   5.230   3.767
 6077WAT     H118473   2.709   5.161   3.704
 6077WAT     H218474   2.840   5.251   3.743
 6078WAT      O18475   3.510   2.499   7.276
 6078WAT     H118476   3.575   2.517   7.350
 6078WAT     H218477   3.500   2.581   7.220
 6079WAT      O18478   7.875   1.364   4.348
 6079WAT     H118479   7.931   1.282   4.346
 6079WAT     H218480   7.819   1.367   4.265
 6080WAT      O18481   2.521   7.053   4.780
 6080WAT     H118482   2.504   7.000   4.697
 6080WAT     H218483   2.447   7.036   4.845
 6081WAT      O18484   8.612   7.827   7.096
 6081WAT     H118485   8.637   7.776   7.178
 6081WAT     H218486   8.518   7.804   7.070
 6082WAT      O18487   8.334   4.355   4.959
 6082WAT     H118488   8.246   4.344   4.913
 6082WAT     H218489   8.376   4.442   4.932
 6083WAT      O18490   5.941   7.287   2.663
 6083WAT     H118491   6.009   7.221   2.693
 6083WAT     H218492   5.880   7.309   2.739
 6084WAT      O18493   8.009   5.195   7.252
 6084WAT     H118494   8.092   5.141   7.237
 6084WAT     H218495   7.961   5.160   7.333
 6085WAT      O18496   3.638   1.467   0.695
 6085WAT     H118497   3.694   1.417   0.629
 6085WAT     H218498   3.698   1.516   0.758
 6086WAT      O18499   9.844   9.694   8.272
 6086WAT     H118500   9.827   9.792   8.262
 6086WAT     H218501   9.759   9.647   8.294
 6087WAT      O18502   5.836   1.941   2.664
 6087WAT     H118503   5.887   1.964   2.580
 6087WAT     H218504   5.900   1.933   2.740
 6088WAT      O18505   1.027   6.529   2.250
 6088WAT     H118506   1.012   6.626   2.235
 6088WAT     H218507   1.008   6.479   2.165
 6089WAT      O18508   4.685   6.567   3.188
 6089WAT     H118509   4.629   6.626   3.246
 6089WAT     H218510   4.722   6.492   3.242
 6090WAT      O18511   5.668   9.678   4.182
 6090WAT     H118512   5.624   9.671   4.271
 6090WAT     H218513   5.604   9.716   4.116
 6091WAT      O18514   4.465   7.004   0.285
 6091WAT     H118515   4.374   6.981   0.318
 6091WAT     H218516   4.534   6.973   0.352
 6092WAT      O18517   6.052   6.995   3.381
 6092WAT     H118518   6.021   6.996   3.476
 6092WAT     H218519   6.152   6.996   3.377
 6093WAT      O18520   1.546   6.829   0.958
 6093WAT     H118521   1.574   6.734   0.969
 6093WAT     H218522   1.468   6.835   0.896
 6094WAT      O18523   3.242   0.084   2.460
 6094WAT     H118524   3.186   0.149   2.511
 6094WAT     H218525   3.324   0.131   2.425
 6095WAT      O18526   9.191   9.405   4.360
 6095WAT     H118527   9.286   9.390   4.332
 6095WAT     H218528   9.132   9.340   4.313
 6096WAT      O18529   9.883   6.900   6.756
 6096WAT     H118530   9.784   6.895   6.768
 6096WAT     H218531   9.904   6.940   6.667
 6097WAT      O18532   5.341   0.760   3.949
 6097WAT     H118533   5.394   0.834   3.909
 6097WAT     H218534   5.250   0.794   3.974
 6098WAT      O18535   5.099   9.347   9.132
 6098WAT     H118536   5.172   9.404   9.094
 6098WAT     H218537   5.047   9.401   9.199
 6099WAT      O18538   4.419   9.448   3.874
 6099WAT     H118539   4.490   9.518   3.873
 6099WAT     H218540   4.443   9.377   3.940
 6100WAT      O18541   1.746   6.092   7.695
 6100WAT     H118542   1.743   6.149   7.777
 6100WAT     H218543   1.721   6.147   7.616
 6101WAT      O18544   6.394   7.997   4.544
 6101WAT     H118545   6.490   8.000   4.572
 6101WAT     H218546   6.387   7.950   4.456
 6102WAT      O18547   8.940   5.900   3.952
 6102WAT     H118548   8.964   5.803   3.942
 6102WAT     H218549   8.982   5.952   3.877
 6103WAT      O18550   6.130   0.291   2.475
 6103WAT     H118551   6.132   0.327   2.568
 6103WAT     H218552   6.089   0.359   2.414
 6104WAT      O18553   5.991   2.449   0.460
 6104WAT     H118554   5.909   2.393   0.450
 6104WAT     H218555   6.007   2.499   0.375
 6105WAT      O18556   7.577   8.575   1.471
 6105WAT     H118557   7.539   8.512   1.539
 6105WAT     H218558   7.559   8.540   1.379
 6106WAT      O18559   6.530   9.438   9.219
 6106WAT     H118560   6.463   9.387   9.273
 6106WAT     H218561   6.560   9.519   9.269
 6107WAT      O18562   9.695   1.250   5.922
 6107WAT     H118563   9.722   1.159   5.889
 6107WAT     H218564   9.676   1.310   5.844
 6108WAT      O18565   3.496   5.217   7.176
 6108WAT     H118566   3.570   5.238   7.112
 6108WAT     H218567   3.445   5.138   7.142
 6109WAT      O18568   5.243   4.421   0.680
 6109WAT     H118569   5.322   4.452   0.732
 6109WAT     H218570   5.165   4.480   0.699
 6110WAT      O18571   9.871   8.651   6.980
 6110WAT     H118572   9.896   8.586   7.052
 6110WAT     H218573   9.870   8.604   6.891
 6111WAT      O18574   5.793   2.367   0.122
 6111WAT     H118575   5.855   2.320   0.059
 6111WAT     H218576   5.789   2.464   0.098
 6112WAT      O18577   2.764   2.408   0.230
 6112WAT     H118578   2.837   2.359   0.278
 6112WAT     H218579   2.793   2.502   0.212
 6113WAT      O18580   0.374   0.698   5.106
 6113WAT     H118581   0.331   0.772   5.158
 6113WAT     H218582   0.304   0.635   5.074
 6114WAT      O18583   8.861   3.340   4.758
 6114WAT     H118584   8.910   3.426   4.749
 6114WAT     H218585   8.777   3.354   4.810
 6115WAT      O18586   4.920   8.318   8.821
 6115WAT     H118587   4.980   8.247   8.784
 6115WAT     H218588   4.908   8.303   8.919
 6116WAT      O18589   3.418   5.752   6.043
 6116WAT     H118590   3.418   5.844   6.004
 6116WAT     H218591   3.456   5.754   6.136
 6117WAT      O18592   2.994   7.184   0.345
 6117WAT     H118593   3.016   7.104   0.289
 6117WAT     H218594   2.985   7.264   0.286
 6118WAT      O18595   2.361   3.923   1.697
 6118WAT     H118596   2.369   3.826   1.720
 6118WAT     H218597   2.436   3.974   1.740
 6119WAT      O18598   3.903   3.890   1.836
 6119WAT     H118599   3.908   3.988   1.853
 6119WAT     H218600   3.958   3.841   1.904
 6120WAT      O18601   3.823   2.343   6.696
 6120WAT     H118602   3.781   2.263   6.652
 6120WAT     H218603   3.923   2.333   6.693
 6121WAT      O18604   5.961   5.868   4.830
 6121WAT     H118605   5.898   5.884   4.754
 6121WAT     H218606   5.958   5.946   4.893
 6122WAT      O18607   8.389   6.871   4.765
 6122WAT     H118608   8.347   6.850   4.677
 6122WAT     H218609   8.483   6.836   4.767
 6123WAT      O18610   5.128   8.166   6.962
 6123WAT     H118611   5.123   8.265   6.971
 6123WAT     H218612   5.190   8.142   6.888
 6124WAT      O18613   3.442   5.982   9.699
 6124WAT     H118614   3.474   5.942   9.785
 6124WAT     H218615   3.390   6.065   9.719
 6125WAT      O18616   7.505   3.377   8.880
 6125WAT     H118617   7.595   3.389   8.922
 6125WAT     H218618   7.435   3.419   8.939
 6126WAT      O18619   8.563   4.264   5.865
 6126WAT     H118620   8.630   4.193   5.841
 6126WAT     H218621   8.593   4.352   5.828
 6127WAT      O18622   9.833   7.353   4.168
 6127WAT     H118623   9.804   7.382   4.258
 6127WAT     H218624   9.921   7.304   4.175
 6128WAT      O18625   1.620   2.859   8.674
 6128WAT     H118626   1.639   2.813   8.587
 6128WAT     H218627   1.676   2.941   8.681
 6129WAT      O18628   9.504   0.614   4.772
 6129WAT     H118629   9.450   0.697   4.782
 6129WAT     H218630   9.447   0.534   4.794
 6130WAT      O18631   2.953   5.129   5.799
 6130WAT     H118632   2.950   5.195   5.874
 6130WAT     H218633   3.037   5.142   5.747
 6131WAT      O18634   8.245   6.962   9.543
 6131WAT     H118635   8.266   6.924   9.633
 6131WAT     H218636   8.279   6.901   9.471
 6132WAT      O18637   7.099   0.349   9.081
 6132WAT     H118638   7.193   0.359   9.113
 6132WAT     H218639   7.076   0.424   9.019
 6133WAT      O18640   3.284   4.499   5.303
 6133WAT     H118641   3.216   4.504   5.229
 6133WAT     H218642   3.339   4.582   5.304
 6134WAT      O18643   6.053   8.877   5.911
 6134WAT     H118644   6.137   8.873   5.965
 6134WAT     H218645   5.995   8.799   5.933
 6135WAT      O18646   6.597   0.449   0.584
 6135WAT     H118647   6.614   0.391   0.505
 6135WAT     H218648   6.684   0.475   0.626
 6136WAT      O18649   3.690   5.252   6.976
 6136WAT     H118650   3.632   5.205   6.909
 6136WAT     H218651   3.713   5.343   6.942
 6137WAT      O18652   4.182   9.148   1.368
 6137WAT     H118653   4.272   9.163   1.326
 6137WAT     H218654   4.160   9.051   1.365
 6138WAT      O18655   2.302   2.018   2.670
 6138WAT     H118656   2.303   2.103   2.617
 6138WAT     H218657   2.387   2.011   2.723
 6139WAT      O18658   3.816   9.030   1.290
 6139WAT     H118659   3.880   8.956   1.269
 6139WAT     H218660   3.784   9.072   1.204
 6140WAT      O18661   1.113   5.221   2.069
 6140WAT     H118662   1.024   5.267   2.066
 6140WAT     H218663   1.125   5.167   1.986
 6141WAT      O18664   8.638   0.061   8.231
 6141WAT     H118665   8.587  -0.003   8.289
 6141WAT     H218666   8.677   0.133   8.287
 6142WAT      O18667   2.329   6.059   7.345
 6142WAT     H118668   2.318   5.973   7.394
 6142WAT     H218669   2.370   6.041   7.256
 6143WAT      O18670   5.655   4.876   2.474
 6143WAT     H118671   5.663   4.944   2.548
 6143WAT     H218672   5.745   4.836   2.457
 6144WAT      O18673   7.423   6.870   9.278
 6144WAT     H118674   7.335   6.901   9.316
 6144WAT     H218675   7.441   6.921   9.193
 6145WAT      O18676   6.669   9.616   2.545
 6145WAT     H118677   6.614   9.641   2.625
 6145WAT     H218678   6.743   9.555   2.573
 6146WAT      O18679   9.749   2.062   1.866
 6146WAT     H118680   9.725   1.985   1.925
 6146WAT     H218681   9.695   2.058   1.782
 6147WAT      O18682   2.397   5.725   2.554
 6147WAT     H118683   2.485   5.771   2.543
 6147WAT     H218684   2.325   5.793   2.567
 6148WAT      O18685   4.557   8.283   2.691
 6148WAT     H118686   4.541   8.185   2.677
 6148WAT     H218687   4.610   8.319   2.615
 6149WAT      O18688   1.714   0.055   3.314
 6149WAT     H118689   1.616   0.054   3.333
 6149WAT     H218690   1.762  -0.004   3.379
 6150WAT      O18691   4.295   1.502   9.033
 6150WAT     H118692   4.259   1.484   8.941
 6150WAT     H218693   4.340   1.420   9.068
 6151WAT      O18694   4.371   6.526   7.466
 6151WAT     H118695   4.401   6.434   7.493
 6151WAT     H218696   4.329   6.571   7.545
 6152WAT      O18697   0.374   0.498   7.493
 6152WAT     H118698   0.424   0.582   7.475
 6152WAT     H218699   0.306   0.514   7.565
 6153WAT      O18700   3.147   9.252   4.561
 6153WAT     H118701   3.056   9.290   4.579
 6153WAT     H218702   3.216   9.325   4.569
 6154WAT      O18703   0.282   7.620   7.677
 6154WAT     H118704   0.337   7.557   7.731
 6154WAT     H218705   0.342   7.692   7.640
 6155WAT      O18706   0.609   7.106   3.236
 6155WAT     H118707   0.555   7.180   3.276
 6155WAT     H218708   0.627   7.037   3.307
 6156WAT      O18709   2.825   5.179   1.347
 6156WAT     H118710   2.896   5.182   1.277
 6156WAT     H218711   2.867   5.162   1.436
 6157WAT      O18712   8.767   9.710   1.213
 6157WAT     H118713   8.780   9.809   1.219
 6157WAT     H218714   8.833   9.671   1.148
 6158WAT      O18715   9.269   1.495   3.625
 6158WAT     H118716   9.173   1.522   3.636
 6158WAT     H218717   9.328   1.560   3.672
 6159WAT      O18718   4.585   1.763   7.593
 6159WAT     H118719   4.666   1.817   7.613
 6159WAT     H218720   4.565   1.703   7.671
 6160WAT      O18721   7.547   6.761   4.698
 6160WAT     H118722   7.588   6.712   4.775
 6160WAT     H218723   7.617   6.777   4.628
 6161WAT      O18724   1.576   4.774   5.774
 6161WAT     H118725   1.557   4.820   5.687
 6161WAT     H218726   1.562   4.838   5.849
 6162WAT      O18727   6.855   9.788   6.029
 6162WAT     H118728   6.874   9.885   6.044
 6162WAT     H218729   6.894   9.734   6.104
 6163WAT      O18730   9.522   2.473   7.725
 6163WAT     H118731   9.495   2.569   7.719
 6163WAT     H218732   9.604   2.458   7.669
 6164WAT      O18733   1.598   7.324   3.892
 6164WAT     H118734   1.569   7.354   3.983
 6164WAT     H218735   1.659   7.246   3.900
 6165WAT      O18736   6.885   2.995   5.462
 6165WAT     H118737   6.791   3.003   5.429
 6165WAT     H218738   6.920   3.086   5.486
 6166WAT      O18739   0.647   4.142   8.029
 6166WAT     H118740   0.627   4.055   7.985
 6166WAT     H218741   0.688   4.205   7.963
 6167WAT      O18742   7.538   0.629   7.217
 6167WAT     H118743   7.454   0.643   7.164
 6167WAT     H218744   7.559   0.531   7.222
 6168WAT      O18745   7.992   6.895   2.534
 6168WAT     H118746   7.998   6.994   2.520
 6168WAT     H218747   7.992   6.876   2.632
 6169WAT      O18748   9.015   1.167   9.653
 6169WAT     H118749   9.034   1.223   9.733
 6169WAT     H218750   9.091   1.103   9.638
 6170WAT      O18751   8.672   9.088   2.697
 6170WAT     H118752   8.618   9.004   2.704
 6170WAT     H218753   8.767   9.066   2.675
 6171WAT      O18754   2.294   4.559   6.224
 6171WAT     H118755   2.354   4.500   6.169
 6171WAT     H218756   2.350   4.612   6.287
 6172WAT      O18757   6.416   4.136   7.044
 6172WAT     H118758   6.497   4.150   6.987
 6172WAT     H218759   6.404   4.216   7.103
 6173WAT      O18760   4.108   3.903   5.585
 6173WAT     H118761   4.092   3.808   5.612
 6173WAT     H218762   4.022   3.945   5.556
 6174WAT      O18763   0.850   8.682   2.711
 6174WAT     H118764   0.906   8.751   2.665
 6174WAT     H218765   0.762   8.674   2.664
 6175WAT      O18766   8.375   0.181   9.277
 6175WAT     H118767   8.298   0.243   9.261
 6175WAT     H218768   8.436   0.182   9.198
 6176WAT      O18769   6.084   0.452   1.350
 6176WAT     H118770   6.080   0.411   1.441
 6176WAT     H218771   6.179   0.467   1.324
 6177WAT      O18772   6.839   8.885   1.425
 6177WAT     H118773   6.740   8.872   1.420
 6177WAT     H218774   6.858   8.974   1.466
 6178WAT      O18775   2.164   4.394   5.615
 6178WAT     H118776   2.165   4.344   5.701
 6178WAT     H218777   2.175   4.330   5.539
 6179WAT      O18778   8.825   2.631   3.199
 6179WAT     H118779   8.755   2.637   3.128
 6179WAT     H218780   8.828   2.538   3.236
 6180WAT      O18781   3.194   6.427   5.392
 6180WAT     H118782   3.249   6.509   5.407
 6180WAT     H218783   3.191   6.408   5.293
 6181WAT      O18784   4.946   0.303   0.616
 6181WAT     H118785   4.923   0.341   0.706
 6181WAT     H218786   4.863   0.272   0.571
 6182WAT      O18787   5.602   5.317   3.863
 6182WAT     H118788   5.592   5.220   3.884
 6182WAT     H218789   5.587   5.370   3.947
 6183WAT      O18790   5.267   3.410   6.456
 6183WAT     H118791   5.267   3.442   6.362
 6183WAT     H218792   5.277   3.487   6.518
 6184WAT      O18793   5.887   8.988   6.274
 6184WAT     H118794   5.834   9.024   6.197
 6184WAT     H218795   5.969   9.045   6.286
 6185WAT      O18796   9.134   3.014   1.922
 6185WAT     H118797   9.225   2.994   1.956
 6185WAT     H218798   9.067   3.005   1.996
 6186WAT      O18799   2.615   3.378   3.132
 6186WAT     H118800   2.544   3.444   3.157
 6186WAT     H218801   2.704   3.424   3.129
 6187WAT      O18802   2.852   6.516   9.525
 6187WAT     H118803   2.809   6.536   9.437
 6187WAT     H218804   2.783   6.482   9.589
 6188WAT      O18805   3.859   0.064   4.314
 6188WAT     H118806   3.889   0.153   4.280
 6188WAT     H218807   3.830   0.072   4.409
 6189WAT      O18808   2.545   2.033   4.755
 6189WAT     H118809   2.606   1.987   4.819
 6189WAT     H218810   2.526   2.126   4.788
 6190WAT      O18811   6.826   0.111   5.575
 6190WAT     H118812   6.907   0.136   5.629
 6190WAT     H218813   6.855   0.070   5.489
 6191WAT      O18814   7.261   8.642   3.025
 6191WAT     H118815   7.359   8.629   3.039
 6191WAT     H218816   7.235   8.607   2.935
 6192WAT      O18817   5.604   9.406   7.290
 6192WAT     H118818   5.507   9.424   7.279
 6192WAT     H218819   5.633   9.429   7.383
 6193WAT      O18820   7.283   6.596   3.412
 6193WAT     H118821   7.277   6.511   3.464
 6193WAT     H218822   7.192   6.634   3.400
 6194WAT      O18823   2.218   4.644   9.454
 6194WAT     H118824   2.303   4.667   9.406
 6194WAT     H218825   2.170   4.728   9.479
 6195WAT      O18826   1.958   0.551   5.264
 6195WAT     H118827   1.968   0.456   5.233
 6195WAT     H218828   2.022   0.609   5.215
 6196WAT      O18829   3.736   5.512   7.618
 6196WAT     H118830   3.803   5.450   7.579
 6196WAT     H218831   3.682   5.464   7.688
 6197WAT      O18832   0.920   8.800   9.893
 6197WAT     H118833   0.890   8.873   9.831
 6197WAT     H218834   0.946   8.720   9.839
 6198WAT      O18835   0.672   9.642   6.623
 6198WAT     H118836   0.730   9.691   6.688
 6198WAT     H218837   0.728   9.608   6.547
 6199WAT      O18838   2.204   5.272   6.222
 6199WAT     H118839   2.151   5.239   6.143
 6199WAT     H218840   2.224   5.369   6.211
 6200WAT      O18841   4.280   8.497   7.569
 6200WAT     H118842   4.260   8.421   7.507
 6200WAT     H218843   4.196   8.526   7.614
 6201WAT      O18844   6.548   4.693   9.880
 6201WAT     H118845   6.628   4.730   9.928
 6201WAT     H218846   6.504   4.765   9.827
 6202WAT      O18847   9.858   7.029   5.718
 6202WAT     H118848   9.787   6.986   5.775
 6202WAT     H218849   9.893   6.962   5.652
 6203WAT      O18850   3.215   5.390   7.944
 6203WAT     H118851   3.169   5.387   8.033
 6203WAT     H218852   3.302   5.438   7.954
 6204WAT      O18853   8.765   4.578   2.870
 6204WAT     H118854   8.776   4.514   2.946
 6204WAT     H218855   8.739   4.528   2.787
 6205WAT      O18856   2.204   9.766   6.865
 6205WAT     H118857   2.124   9.748   6.807
 6205WAT     H218858   2.191   9.851   6.915
 6206WAT      O18859   8.955   2.603   2.405
 6206WAT     H118860   8.971   2.599   2.307
 6206WAT     H218861   9.006   2.530   2.451
 6207WAT      O18862   1.712   2.523   9.150
 6207WAT     H118863   1.781   2.583   9.192
 6207WAT     H218864   1.673   2.568   9.070
 6208WAT      O18865   9.162   0.300   2.642
 6208WAT     H118866   9.223   0.373   2.613
 6208WAT     H218867   9.213   0.214   2.647
 6209WAT      O18868   5.272   3.545   5.828
 6209WAT     H118869   5.224   3.633   5.827
 6209WAT     H218870   5.210   3.473   5.860
 6210WAT      O18871   4.210   1.308   1.313
 6210WAT     H118872   4.275   1.239   1.281
 6210WAT     H218873   4.243   1.347   1.399
 6211WAT      O18874   0.154   0.646   0.174
 6211WAT     H118875   0.143   0.552   0.206
 6211WAT     H218876   0.145   0.709   0.251
 6212WAT      O18877   2.919   4.763   7.802
 6212WAT     H118878   2.824   4.734   7.804
 6212WAT     H218879   2.958   4.757   7.894
 6213WAT      O18880   9.232   3.825   6.273
 6213WAT     H118881   9.172   3.848   6.350
 6213WAT     H218882   9.295   3.752   6.301
 6214WAT      O18883   0.668   6.658   9.274
 6214WAT     H118884   0.764   6.629   9.271
 6214WAT     H218885   0.665   6.758   9.276
 6215WAT      O18886   4.916   6.534   7.021
 6215WAT     H118887   4.835   6.577   7.061
 6215WAT     H218888   4.975   6.501   7.095
 6216WAT      O18889   3.949   8.762   6.012
 6216WAT     H118890   4.034   8.815   6.008
 6216WAT     H218891   3.967   8.677   6.063
 6217WAT      O18892   1.724   5.183   3.643
 6217WAT     H118893   1.648   5.247   3.629
 6217WAT     H218894   1.702   5.095   3.602
 6218WAT      O18895   7.675   2.546   9.667
 6218WAT     H118896   7.620   2.503   9.739
 6218WAT     H218897   7.624   2.545   9.581
 6219WAT      O18898   3.761   1.921   2.845
 6219WAT     H118899   3.810   2.002   2.877
 6219WAT     H218900   3.735   1.864   2.923
 6220WAT      O18901   0.285   8.027   9.337
 6220WAT     H118902   0.338   7.943   9.329
 6220WAT     H218903   0.346   8.102   9.364
 6221WAT      O18904   7.898   0.837   5.042
 6221WAT     H118905   7.961   0.915   5.045
 6221WAT     H218906   7.942   0.759   4.999
 6222WAT      O18907   0.816   7.578   1.283
 6222WAT     H118908   0.878   7.508   1.320
 6222WAT     H218909   0.734   7.583   1.340
 6223WAT      O18910   6.818   5.752   1.341
 6223WAT     H118911   6.767   5.706   1.268
 6223WAT     H218912   6.755   5.783   1.412
 6224WAT      O18913   7.789   7.531   7.093
 6224WAT     H118914   7.781   7.432   7.084
 6224WAT     H218915   7.885   7.557   7.080
 6225WAT      O18916   1.475   1.362   9.299
 6225WAT     H118917   1.444   1.330   9.209
 6225WAT     H218918   1.395   1.385   9.355
 6226WAT      O18919   9.837   6.914   7.741
 6226WAT     H118920   9.764   6.853   7.712
 6226WAT     H218921   9.804   7.009   7.736
 6227WAT      O18922   8.657   8.484   3.457
 6227WAT     H118923   8.634   8.449   3.366
 6227WAT     H218924   8.581   8.541   3.490
 6228WAT      O18925   0.622   2.212   4.795
 6228WAT     H118926   0.713   2.248   4.772
 6228WAT     H218927   0.629   2.115   4.818
 6229WAT      O18928   4.055   4.502   7.484
 6229WAT     H118929   4.143   4.484   7.529
 6229WAT     H218930   4.032   4.599   7.495
 6230WAT      O18931   5.021   9.299   9.561
 6230WAT     H118932   5.044   9.281   9.466
 6230WAT     H218933   5.015   9.213   9.611
 6231WAT      O18934   2.747   3.376   8.633
 6231WAT     H118935   2.812   3.409   8.564
 6231WAT     H218936   2.690   3.304   8.595
 6232WAT      O18937   5.108   1.555   4.807
 6232WAT     H118938   5.106   1.542   4.906
 6232WAT     H218939   5.094   1.652   4.785
 6233WAT      O18940   8.205   4.941   4.767
 6233WAT     H118941   8.222   5.026   4.718
 6233WAT     H218942   8.274   4.930   4.839
 6234WAT      O18943   5.102   6.868   8.219
 6234WAT     H118944   5.172   6.869   8.290
 6234WAT     H218945   5.122   6.795   8.153
 6235WAT      O18946   2.479   7.528   2.214
 6235WAT     H118947   2.476   7.592   2.138
 6235WAT     H218948   2.533   7.448   2.189
 6236WAT      O18949   6.718   4.914   9.209
 6236WAT     H118950   6.663   4.940   9.130
 6236WAT     H218951   6.815   4.914   9.184
 6237WAT      O18952   4.712   0.679   8.475
 6237WAT     H118953   4.759   0.741   8.412
 6237WAT     H218954   4.661   0.733   8.543
 6238WAT      O18955   9.553   5.831   8.272
 6238WAT     H118956   9.587   5.910   8.220
 6238WAT     H218957   9.500   5.863   8.350
 6239WAT      O18958   7.183   2.087   1.009
 6239WAT     H118959   7.117   2.158   1.034
 6239WAT     H218960   7.204   2.031   1.089
 6240WAT      O18961   8.600   4.447   0.307
 6240WAT     H118962   8.686   4.434   0.356
 6240WAT     H218963   8.562   4.358   0.281
 6241WAT      O18964   8.757   7.544   3.385
 6241WAT     H118965   8.741   7.534   3.287
 6241WAT     H218966   8.795   7.634   3.404
 6242WAT      O18967   2.208   4.000   3.291
 6242WAT     H118968   2.193   3.917   3.237
 6242WAT     H218969   2.213   4.079   3.229
 6243WAT      O18970   1.021   2.028   3.975
 6243WAT     H118971   0.999   2.058   3.882
 6243WAT     H218972   0.960   2.075   4.039
 6244WAT      O18973   3.044   2.822   8.752
 6244WAT     H118974   3.015   2.886   8.681
 6244WAT     H218975   3.117   2.863   8.807
 6245WAT      O18976   0.371   3.576   7.767
 6245WAT     H118977   0.324   3.496   7.731
 6245WAT     H218978   0.445   3.547   7.828
 6246WAT      O18979   1.768   7.255   9.692
 6246WAT     H118980   1.732   7.206   9.613
 6246WAT     H218981   1.868   7.255   9.689
 6247WAT      O18982   9.176   3.988   1.824
 6247WAT     H118983   9.118   3.943   1.892
 6247WAT     H218984   9.128   4.068   1.787
 6248WAT      O18985   7.402   5.944   4.881
 6248WAT     H118986   7.481   5.891   4.850
 6248WAT     H218987   7.378   5.916   4.974
 6249WAT      O18988   0.177   0.518   3.064
 6249WAT     H118989   0.263   0.569   3.051
 6249WAT     H218990   0.107   0.581   3.097
 6250WAT      O18991   3.489   9.258   3.608
 6250WAT     H118992   3.409   9.296   3.655
 6250WAT     H218993   3.513   9.316   3.530
 6251WAT      O18994   8.972   0.740   7.219
 6251WAT     H118995   8.878   0.772   7.235
 6251WAT     H218996   8.997   0.676   7.291
 6252WAT      O18997   9.687   4.098   7.150
 6252WAT     H118998   9.598   4.067   7.183
 6252WAT     H218999   9.742   4.131   7.227
 6253WAT      O19000   1.165   8.921   7.718
 6253WAT     H119001   1.163   9.005   7.664
 6253WAT     H219002   1.098   8.856   7.683
 6254WAT      O19003   8.509   4.391   3.053
 6254WAT     H119004   8.471   4.476   3.016
 6254WAT     H219005   8.521   4.325   2.978
 6255WAT      O19006   3.094   4.527   5.110
 6255WAT     H119007   3.152   4.449   5.087
 6255WAT     H219008   3.107   4.599   5.042
 6256WAT      O19009   0.577   8.747   2.208
 6256WAT     H119010   0.591   8.704   2.297
 6256WAT     H219011   0.523   8.831   2.219
 6257WAT      O19012   7.924   9.586   2.746
 6257WAT     H119013   8.002   9.559   2.691
 6257WAT     H219014   7.934   9.550   2.839
 6258WAT      O19015   8.239   1.781   5.249
 6258WAT     H119016   8.320   1.788   5.191
 6258WAT     H219017   8.202   1.872   5.267
 6259WAT      O19018   7.256   1.921   2.770
 6259WAT     H119019   7.339   1.961   2.730
 6259WAT     H219020   7.204   1.992   2.818
 6260WAT      O19021   3.849   0.990   9.755
 6260WAT     H119022   3.777   0.940   9.706
 6260WAT     H219023   3.895   1.053   9.691
 6261WAT      O19024   8.850   9.796   8.088
 6261WAT     H119025   8.769   9.825   8.138
 6261WAT     H219026   8.864   9.857   8.009
 6262WAT      O19027   9.601   7.677   3.161
 6262WAT     H119028   9.580   7.756   3.218
 6262WAT     H219029   9.587   7.593   3.214
 6263WAT      O19030   7.568   1.900   6.603
 6263WAT     H119031   7.533   1.898   6.697
 6263WAT     H219032   7.494   1.926   6.541
 6264WAT      O19033   9.751   2.814   4.681
 6264WAT     H119034   9.655   2.842   4.694
 6264WAT     H219035   9.802   2.889   4.640
 6265WAT      O19036   2.498   3.816   3.131
 6265WAT     H119037   2.455   3.901   3.160
 6265WAT     H219038   2.559   3.833   3.054
 6266WAT      O19039   0.918   1.307   3.634
 6266WAT     H119040   1.015   1.304   3.609
 6266WAT     H219041   0.871   1.376   3.579
 6267WAT      O19042   9.089   0.654   8.764
 6267WAT     H119043   9.158   0.582   8.749
 6267WAT     H219044   9.007   0.633   8.711
 6268WAT      O19045   2.763   8.923   7.905
 6268WAT     H119046   2.813   8.886   7.984
 6268WAT     H219047   2.664   8.918   7.923
 6269WAT      O19048   2.907   9.432   8.342
 6269WAT     H119049   2.975   9.395   8.405
 6269WAT     H219050   2.816   9.421   8.380
 6270WAT      O19051   8.579   7.325   6.789
 6270WAT     H119052   8.596   7.269   6.707
 6270WAT     H219053   8.605   7.273   6.870
 6271WAT      O19054   2.760   0.583   6.822
 6271WAT     H119055   2.779   0.547   6.913
 6271WAT     H219056   2.789   0.678   6.817
 6272WAT      O19057   8.253   2.539   8.859
 6272WAT     H119058   8.164   2.528   8.903
 6272WAT     H219059   8.308   2.604   8.911
 6273WAT      O19060   5.783   2.147   8.669
 6273WAT     H119061   5.689   2.171   8.645
 6273WAT     H219062   5.832   2.120   8.586
 6274WAT      O19063   3.255   6.058   1.927
 6274WAT     H119064   3.311   6.092   1.851
 6274WAT     H219065   3.315   6.029   2.002
 6275WAT      O19066   6.800   0.130   0.753
 6275WAT     H119067   6.719   0.188   0.761
 6275WAT     H219068   6.882   0.184   0.773
 6276WAT      O19069   6.613   5.482   8.629
 6276WAT     H119070   6.592   5.546   8.703
 6276WAT     H219071   6.530   5.466   8.574
 6277WAT      O19072   8.646   6.211   1.001
 6277WAT     H119073   8.698   6.257   0.929
 6277WAT     H219074   8.662   6.112   0.996
 6278WAT      O19075   0.391   7.853   5.031
 6278WAT     H119076   0.437   7.764   5.023
 6278WAT     H219077   0.320   7.860   4.962
 6279WAT      O19078   3.902   4.861   1.950
 6279WAT     H119079   3.910   4.945   1.898
 6279WAT     H219080   3.840   4.798   1.903
 6280WAT      O19081   5.663   1.176   3.969
 6280WAT     H119082   5.597   1.159   4.043
 6280WAT     H219083   5.644   1.114   3.893
 6281WAT      O19084   1.412   5.104   3.272
 6281WAT     H119085   1.404   5.201   3.253
 6281WAT     H219086   1.399   5.087   3.370
 6282WAT      O19087   3.213   1.509   8.769
 6282WAT     H119088   3.118   1.540   8.776
 6282WAT     H219089   3.267   1.580   8.723
 6283WAT      O19090   0.242   2.324   2.811
 6283WAT     H119091   0.217   2.357   2.720
 6283WAT     H219092   0.160   2.291   2.858
 6284WAT      O19093   9.154   8.477   2.003
 6284WAT     H119094   9.121   8.480   2.097
 6284WAT     H219095   9.135   8.563   1.957
 6285WAT      O19096   8.401   2.356   6.677
 6285WAT     H119097   8.466   2.357   6.753
 6285WAT     H219098   8.394   2.447   6.638
 6286WAT      O19099   1.541   9.315   1.476
 6286WAT     H119100   1.583   9.398   1.438
 6286WAT     H219101   1.455   9.297   1.429
 6287WAT      O19102   3.360   7.683   1.237
 6287WAT     H119103   3.316   7.769   1.209
 6287WAT     H219104   3.291   7.610   1.240
 6288WAT      O19105   6.194   3.450   3.461
 6288WAT     H119106   6.209   3.471   3.558
 6288WAT     H219107   6.099   3.422   3.447
 6289WAT      O19108   3.897   6.996   5.536
 6289WAT     H119109   3.884   7.054   5.615
 6289WAT     H219110   3.976   6.936   5.551
 6290WAT      O19111   2.299   3.218   4.328
 6290WAT     H119112   2.381   3.224   4.271
 6290WAT     H219113   2.280   3.306   4.370
 6291WAT      O19114   4.216   9.216   1.893
 6291WAT     H119115   4.165   9.139   1.931
 6291WAT     H219116   4.272   9.259   1.964
 6292WAT      O19117   0.876   8.072   0.767
 6292WAT     H119118   0.932   8.106   0.842
 6292WAT     H219119   0.852   8.148   0.706
 6293WAT      O19120   2.285   0.042   5.897
 6293WAT     H119121   2.301   0.106   5.821
 6293WAT     H219122   2.273   0.094   5.982
 6294WAT      O19123   5.577   9.597   1.091
 6294WAT     H119124   5.586   9.696   1.081
 6294WAT     H219125   5.667   9.557   1.111
 6295WAT      O19126   8.078   3.707   3.529
 6295WAT     H119127   8.151   3.774   3.519
 6295WAT     H219128   8.116   3.619   3.559
 6296WAT      O19129   6.806   4.095   2.575
 6296WAT     H119130   6.901   4.125   2.564
 6296WAT     H219131   6.805   4.000   2.607
 6297WAT      O19132   2.709   3.748   1.303
 6297WAT     H119133   2.699   3.663   1.354
 6297WAT     H219134   2.773   3.809   1.351
 6298WAT      O19135   2.999   5.280   7.700
 6298WAT     H119136   2.981   5.185   7.676
 6298WAT     H219137   3.040   5.284   7.791
 6299WAT      O19138   6.424   7.113   4.701
 6299WAT     H119139   6.457   7.039   4.643
 6299WAT     H219140   6.463   7.104   4.792
 6300WAT      O19141   3.930   4.204   6.989
 6300WAT     H119142   3.985   4.128   6.953
 6300WAT     H219143   3.911   4.187   7.086
 6301WAT      O19144   8.912   5.882   1.735
 6301WAT     H119145   8.964   5.964   1.759
 6301WAT     H219146   8.858   5.852   1.813
 6302WAT      O19147   5.996   5.556   9.016
 6302WAT     H119148   5.995   5.594   8.924
 6302WAT     H219149   6.090   5.543   9.046
 6303WAT      O19150   9.837   1.144   4.265
 6303WAT     H119151   9.821   1.182   4.356
 6303WAT     H219152   9.896   1.206   4.213
 6304WAT      O19153   2.990   1.509   3.918
 6304WAT     H119154   2.921   1.563   3.967
 6304WAT     H219155   3.059   1.570   3.879
 6305WAT      O19156   2.754   1.509   4.288
 6305WAT     H119157   2.697   1.563   4.225
 6305WAT     H219158   2.840   1.485   4.242
 6306WAT      O19159   1.602   6.951   6.423
 6306WAT     H119160   1.614   6.887   6.347
 6306WAT     H219161   1.526   6.920   6.481
 6307WAT      O19162   1.536   4.622   4.204
 6307WAT     H119163   1.466   4.552   4.191
 6307WAT     H219164   1.577   4.645   4.116
 6308WAT      O19165   3.594   4.338   0.025
 6308WAT     H119166   3.614   4.264   0.090
 6308WAT     H219167   3.675   4.356  -0.030
 6309WAT      O19168   6.101   4.362   1.000
 6309WAT     H119169   6.177   4.403   0.950
 6309WAT     H219170   6.133   4.281   1.050
 6310WAT      O19171   7.502   0.545   5.986
 6310WAT     H119172   7.437   0.470   5.980
 6310WAT     H219173   7.510   0.589   5.896
 6311WAT      O19174   7.574   1.029   9.760
 6311WAT     H119175   7.574   0.956   9.691
 6311WAT     H219176   7.534   1.112   9.722
 6312WAT      O19177   5.430   9.438   6.860
 6312WAT     H119178   5.482   9.367   6.907
 6312WAT     H219179   5.332   9.426   6.879
 6313WAT      O19180   2.722   5.184   6.625
 6313WAT     H119181   2.716   5.255   6.696
 6313WAT     H219182   2.752   5.098   6.667
 6314WAT      O19183   0.903   1.872   6.758
 6314WAT     H119184   0.831   1.805   6.737
 6314WAT     H219185   0.874   1.962   6.727
 6315WAT      O19186   8.936   3.279   4.499
 6315WAT     H119187   8.916   3.298   4.595
 6315WAT     H219188   9.035   3.276   4.485
 6316WAT      O19189   1.890   1.821   0.025
 6316WAT     H119190   1.876   1.769   0.110
 6316WAT     H219191   1.851   1.912   0.035
 6317WAT      O19192   8.408   2.117   6.903
 6317WAT     H119193   8.345   2.111   6.825
 6317WAT     H219194   8.446   2.027   6.922
 6318WAT      O19195   3.552   2.905   6.452
 6318WAT     H119196   3.456   2.933   6.447
 6318WAT     H219197   3.610   2.981   6.423
 6319WAT      O19198   1.055   3.416   6.815
 6319WAT     H119199   1.007   3.333   6.785
 6319WAT     H219200   1.072   3.410   6.913
 6320WAT      O19201   4.067   6.131   6.376
 6320WAT     H119202   4.157   6.171   6.363
 6320WAT     H219203   4.071   6.061   6.447
 6321WAT      O19204   3.559   6.949   2.656
 6321WAT     H119205   3.498   6.895   2.598
 6321WAT     H219206   3.638   6.892   2.681
 6322WAT      O19207   2.314   0.461   7.927
 6322WAT     H119208   2.289   0.394   7.997
 6322WAT     H219209   2.238   0.524   7.913
 6323WAT      O19210   4.343   8.877   7.469
 6323WAT     H119211   4.376   8.935   7.544
 6323WAT     H219212   4.415   8.869   7.399
 6324WAT      O19213   6.417   9.127   8.632
 6324WAT     H119214   6.425   9.055   8.702
 6324WAT     H219215   6.388   9.212   8.676
 6325WAT      O19216   1.680   8.830   3.249
 6325WAT     H119217   1.750   8.891   3.214
 6325WAT     H219218   1.589   8.865   3.225
 6326WAT      O19219   9.362   3.163   4.998
 6326WAT     H119220   9.455   3.198   4.988
 6326WAT     H219221   9.341   3.149   5.094
 6327WAT      O19222   0.528   0.399   5.358
 6327WAT     H119223   0.512   0.414   5.456
 6327WAT     H219224   0.574   0.312   5.344
 6328WAT      O19225   6.271   3.121   0.976
 6328WAT     H119226   6.305   3.039   1.022
 6328WAT     H219227   6.346   3.170   0.932
 6329WAT      O19228   9.623   4.802   8.742
 6329WAT     H119229   9.676   4.753   8.811
 6329WAT     H219230   9.591   4.889   8.779
 6330WAT      O19231   5.119   0.042   4.509
 6330WAT     H119232   5.158   0.091   4.431
 6330WAT     H219233   5.095  -0.051   4.481
 6331WAT      O19234   4.172   5.028   6.143
 6331WAT     H119235   4.247   4.975   6.103
 6331WAT     H219236   4.209   5.106   6.193
 6332WAT      O19237   9.394   0.717   8.015
 6332WAT     H119238   9.479   0.769   8.023
 6332WAT     H219239   9.394   0.643   8.082
 6333WAT      O19240   4.879   3.392   0.618
 6333WAT     H119241   4.911   3.376   0.712
 6333WAT     H219242   4.789   3.351   0.606
 6334WAT      O19243   2.544   3.801   2.278
 6334WAT     H119244   2.453   3.771   2.307
 6334WAT     H219245   2.604   3.808   2.357
 6335WAT      O19246   4.417   1.803   8.494
 6335WAT     H119247   4.427   1.853   8.580
 6335WAT     H219248   4.323   1.810   8.461
 6336WAT      O19249   3.519   3.333   5.634
 6336WAT     H119250   3.429   3.307   5.668
 6336WAT     H219251   3.586   3.323   5.708
 6337WAT      O19252   0.308   0.949   3.385
 6337WAT     H119253   0.400   0.982   3.403
 6337WAT     H219254   0.241   1.011   3.426
 6338WAT      O19255   9.828   7.188   7.718
 6338WAT     H119256   9.849   7.262   7.782
 6338WAT     H219257   9.873   7.206   7.631
 6339WAT      O19258   7.173   4.490   0.823
 6339WAT     H119259   7.218   4.520   0.738
 6339WAT     H219260   7.084   4.533   0.830
 6340WAT      O19261   8.841   9.418   3.206
 6340WAT     H119262   8.859   9.415   3.304
 6340WAT     H219263   8.924   9.396   3.156
 6341WAT      O19264   2.168   7.544   1.759
 6341WAT     H119265   2.123   7.467   1.715
 6341WAT     H219266   2.259   7.556   1.719
 6342WAT      O19267   6.823   9.488   2.925
 6342WAT     H119268   6.892   9.415   2.925
 6342WAT     H219269   6.868   9.577   2.934
 6343WAT      O19270   6.267   5.140   8.264
 6343WAT     H119271   6.210   5.058   8.271
 6343WAT     H219272   6.327   5.132   8.184
 6344WAT      O19273   9.056   5.535   5.701
 6344WAT     H119274   9.056   5.509   5.604
 6344WAT     H219275   9.124   5.607   5.716
 6345WAT      O19276   3.105   0.642   4.659
 6345WAT     H119277   3.019   0.686   4.633
 6345WAT     H219278   3.181   0.705   4.643
 6346WAT      O19279   9.044   8.724   5.586
 6346WAT     H119280   9.064   8.816   5.621
 6346WAT     H219281   9.118   8.662   5.610
 6347WAT      O19282   7.754   9.377   2.518
 6347WAT     H119283   7.732   9.474   2.524
 6347WAT     H219284   7.853   9.365   2.506
 6348WAT      O19285   3.400   4.271   7.109
 6348WAT     H119286   3.440   4.350   7.063
 6348WAT     H219287   3.314   4.298   7.152
 6349WAT      O19288   2.862   9.217   4.972
 6349WAT     H119289   2.916   9.139   4.940
 6349WAT     H219290   2.864   9.289   4.903
 6350WAT      O19291   7.870   1.038   4.073
 6350WAT     H119292   7.961   1.075   4.090
 6350WAT     H219293   7.821   1.097   4.009
 6351WAT      O19294   0.584   8.400   0.534
 6351WAT     H119295   0.537   8.472   0.585
 6351WAT     H219296   0.551   8.401   0.439
 6352WAT      O19297   9.086   9.379   2.990
 6352WAT     H119298   9.164   9.432   2.959
 6352WAT     H219299   9.100   9.282   2.968
 6353WAT      O19300   8.352   2.148   0.863
 6353WAT     H119301   8.347   2.053   0.832
 6353WAT     H219302   8.334   2.209   0.786
 6354WAT      O19303   5.147   7.928   1.507
 6354WAT     H119304   5.115   8.017   1.540
 6354WAT     H219305   5.202   7.883   1.578
 6355WAT      O19306   7.622   6.922   2.858
 6355WAT     H119307   7.656   6.865   2.783
 6355WAT     H219308   7.550   6.873   2.908
 6356WAT      O19309   9.765   0.603   0.176
 6356WAT     H119310   9.755   0.686   0.231
 6356WAT     H219311   9.853   0.561   0.196
 6357WAT      O19312   1.940   2.076   1.817
 6357WAT     H119313   1.896   2.109   1.901
 6357WAT     H219314   1.931   2.145   1.746
 6358WAT      O19315   7.211   8.737   8.580
 6358WAT     H119316   7.125   8.783   8.601
 6358WAT     H219317   7.252   8.701   8.664
 6359WAT      O19318   5.962   6.151   5.807
 6359WAT     H119319   6.023   6.188   5.738
 6359WAT     H219320   6.015   6.120   5.886
 6360WAT      O19321   0.912   3.497   7.746
 6360WAT     H119322   0.973   3.419   7.761
 6360WAT     H219323   0.846   3.473   7.674
 6361WAT      O19324   1.627   3.260   6.708
 6361WAT     H119325   1.567   3.201   6.762
 6361WAT     H219326   1.591   3.354   6.709
 6362WAT      O19327   9.256   3.148   1.682
 6362WAT     H119328   9.228   3.101   1.766
 6362WAT     H219329   9.342   3.197   1.698
 6363WAT      O19330   8.669   5.370   8.984
 6363WAT     H119331   8.586   5.425   8.988
 6363WAT     H219332   8.645   5.273   8.979
 6364WAT      O19333   0.084   7.780   2.378
 6364WAT     H119334   0.151   7.849   2.353
 6364WAT     H219335   0.014   7.774   2.306
 6365WAT      O19336   1.825   4.247   0.745
 6365WAT     H119337   1.760   4.298   0.689
 6365WAT     H219338   1.780   4.216   0.829
 6366WAT      O19339   6.079   4.935   2.577
 6366WAT     H119340   6.067   5.033   2.563
 6366WAT     H219341   6.038   4.908   2.664
 6367WAT      O19342   9.334   7.801   3.930
 6367WAT     H119343   9.349   7.897   3.906
 6367WAT     H219344   9.314   7.749   3.848
 6368WAT      O19345   3.525   2.632   8.125
 6368WAT     H119346   3.437   2.676   8.109
 6368WAT     H219347   3.598   2.690   8.090
 6369WAT      O19348   0.798   6.060   3.450
 6369WAT     H119349   0.752   6.011   3.524
 6369WAT     H219350   0.799   6.158   3.471
 6370WAT      O19351   3.479   1.845   8.437
 6370WAT     H119352   3.514   1.938   8.420
 6370WAT     H219353   3.445   1.807   8.351
 6371WAT      O19354   0.854   3.756   6.327
 6371WAT     H119355   0.788   3.681   6.322
 6371WAT     H219356   0.897   3.757   6.417
 6372WAT      O19357   7.100   5.987   7.883
 6372WAT     H119358   7.027   6.053   7.904
 6372WAT     H219359   7.183   6.037   7.858
 6373WAT      O19360   8.879   2.673   0.876
 6373WAT     H119361   8.835   2.668   0.966
 6373WAT     H219362   8.820   2.632   0.807
 6374WAT      O19363   1.526   4.724   2.764
 6374WAT     H119364   1.454   4.659   2.740
 6374WAT     H219365   1.493   4.817   2.752
 6375WAT      O19366   1.913   5.920   7.917
 6375WAT     H119367   1.915   5.835   7.864
 6375WAT     H219368   1.818   5.945   7.937
 6376WAT      O19369   7.806   1.875   4.251
 6376WAT     H119370   7.714   1.846   4.224
 6376WAT     H219371   7.866   1.795   4.252
 6377WAT      O19372   3.940   5.890   1.547
 6377WAT     H119373   3.885   5.813   1.513
 6377WAT     H219374   4.010   5.856   1.610
 6378WAT      O19375   0.218   7.933   4.831
 6378WAT     H119376   0.193   7.850   4.782
 6378WAT     H219377   0.285   7.985   4.778
 6379WAT      O19378   0.742   7.321   1.488
 6379WAT     H119379   0.834   7.345   1.458
 6379WAT     H219380   0.695   7.402   1.521
 6380WAT      O19381   1.034   8.224   7.564
 6380WAT     H119382   0.969   8.151   7.547
 6380WAT     H219383   1.029   8.292   7.490
 6381WAT      O19384   9.362   2.559   7.173
 6381WAT     H119385   9.360   2.627   7.100
 6381WAT     H219386   9.358   2.605   7.262
 6382WAT      O19387   2.617   6.274   1.947
 6382WAT     H119388   2.621   6.295   2.045
 6382WAT     H219389   2.596   6.358   1.896
 6383WAT      O19390   4.642   2.986   4.247
 6383WAT     H119391   4.670   2.938   4.163
 6383WAT     H219392   4.683   3.077   4.248
 6384WAT      O19393   4.765   5.688   8.125
 6384WAT     H119394   4.683   5.722   8.078
 6384WAT     H219395   4.829   5.651   8.058
 6385WAT      O19396   8.030   8.887   2.372
 6385WAT     H119397   7.979   8.817   2.321
 6385WAT     H219398   7.968   8.933   2.436
 6386WAT      O19399   2.406   1.647   2.077
 6386WAT     H119400   2.364   1.730   2.041
 6386WAT     H219401   2.481   1.671   2.139
 6387WAT      O19402   1.223   7.556   5.764
 6387WAT     H119403   1.160   7.606   5.705
 6387WAT     H219404   1.299   7.615   5.790
 6388WAT      O19405   0.867   2.846   8.435
 6388WAT     H119406   0.782   2.891   8.410
 6388WAT     H219407   0.848   2.773   8.500
 6389WAT      O19408   7.648   1.223   1.124
 6389WAT     H119409   7.610   1.212   1.032
 6389WAT     H219410   7.594   1.169   1.189
 6390WAT      O19411   0.450   3.576   6.163
 6390WAT     H119412   0.373   3.619   6.211
 6390WAT     H219413   0.502   3.647   6.115
 6391WAT      O19414   7.568   1.023   7.596
 6391WAT     H119415   7.547   1.002   7.500
 6391WAT     H219416   7.497   1.085   7.632
 6392WAT      O19417   0.733   6.043   6.351
 6392WAT     H119418   0.718   6.041   6.450
 6392WAT     H219419   0.813   6.098   6.330
 6393WAT      O19420   8.857   5.059   7.311
 6393WAT     H119421   8.802   5.003   7.249
 6393WAT     H219422   8.939   5.008   7.338
 6394WAT      O19423   4.950   8.967   7.031
 6394WAT     H119424   4.895   8.936   6.954
 6394WAT     H219425   4.934   8.907   7.109
 6395WAT      O19426   8.383   3.642   0.155
 6395WAT     H119427   8.450   3.633   0.081
 6395WAT     H219428   8.368   3.553   0.198
 6396WAT      O19429   6.341   4.189   8.818
 6396WAT     H119430   6.286   4.268   8.791
 6396WAT     H219431   6.289   4.133   8.883
 6397WAT      O19432   1.249   8.601   4.749
 6397WAT     H119433   1.274   8.599   4.653
 6397WAT     H219434   1.294   8.679   4.793
 6398WAT      O19435   9.136   6.491   0.763
 6398WAT     H119436   9.084   6.510   0.679
 6398WAT     H219437   9.169   6.397   0.761
 6399WAT      O19438   1.171   5.699   4.256
 6399WAT     H119439   1.221   5.690   4.169
 6399WAT     H219440   1.130   5.790   4.260
 6400WAT      O19441   4.252   1.762   6.220
 6400WAT     H119442   4.219   1.699   6.150
 6400WAT     H219443   4.350   1.750   6.233
 6401WAT      O19444   4.138   8.947   2.502
 6401WAT     H119445   4.227   8.926   2.461
 6401WAT     H219446   4.147   8.955   2.601
 6402WAT      O19447   7.259   4.610   3.939
 6402WAT     H119448   7.175   4.595   3.992
 6402WAT     H219449   7.246   4.689   3.879
 6403WAT      O19450   8.092   5.388   7.637
 6403WAT     H119451   8.176   5.427   7.600
 6403WAT     H219452   8.100   5.288   7.637
 6404WAT      O19453   3.971   3.291   3.327
 6404WAT     H119454   3.988   3.313   3.423
 6404WAT     H219455   4.033   3.218   3.299
 6405WAT      O19456   2.240   1.416   5.659
 6405WAT     H119457   2.328   1.463   5.671
 6405WAT     H219458   2.230   1.386   5.564
 6406WAT      O19459   2.482   9.300   1.264
 6406WAT     H119460   2.491   9.346   1.352
 6406WAT     H219461   2.473   9.201   1.280
 6407WAT      O19462   6.273   6.009   7.228
 6407WAT     H119463   6.332   6.047   7.300
 6407WAT     H219464   6.275   6.070   7.149
 6408WAT      O19465   1.841   3.461   4.516
 6408WAT     H119466   1.840   3.384   4.580
 6408WAT     H219467   1.935   3.476   4.484
 6409WAT      O19468   1.888   9.048   0.400
 6409WAT     H119469   1.827   9.092   0.467
 6409WAT     H219470   1.896   9.107   0.319
 6410WAT      O19471   6.717   7.398   9.363
 6410WAT     H119472   6.640   7.433   9.417
 6410WAT     H219473   6.721   7.299   9.370
 6411WAT      O19474   6.851   5.017   0.345
 6411WAT     H119475   6.758   4.985   0.361
 6411WAT     H219476   6.852   5.084   0.271
 6412WAT      O19477   9.263   2.935   9.728
 6412WAT     H119478   9.275   2.987   9.644
 6412WAT     H219479   9.349   2.890   9.753
 6413WAT      O19480   0.188   3.580   2.848
 6413WAT     H119481   0.192   3.675   2.879
 6413WAT     H219482   0.168   3.578   2.750
 6414WAT      O19483   2.977   8.830   1.500
 6414WAT     H119484   2.987   8.732   1.515
 6414WAT     H219485   3.031   8.858   1.421
 6415WAT      O19486   0.545   6.359   1.214
 6415WAT     H119487   0.527   6.362   1.312
 6415WAT     H219488   0.491   6.431   1.169
 6416WAT      O19489   3.993   4.519   0.037
 6416WAT     H119490   3.955   4.593   0.092
 6416WAT     H219491   4.057   4.556  -0.029
 6417WAT      O19492   6.269   3.764   0.892
 6417WAT     H119493   6.293   3.668   0.903
 6417WAT     H219494   6.227   3.779   0.803
 6418WAT      O19495   8.472   1.826   3.732
 6418WAT     H119496   8.412   1.857   3.658
 6418WAT     H219497   8.508   1.736   3.710
 6419WAT      O19498   1.830   7.871   9.304
 6419WAT     H119499   1.841   7.794   9.241
 6419WAT     H219500   1.808   7.954   9.252
 6420WAT      O19501   7.298   3.377   4.185
 6420WAT     H119502   7.357   3.302   4.214
 6420WAT     H219503   7.311   3.395   4.088
 6421WAT      O19504   0.656   5.597   5.989
 6421WAT     H119505   0.615   5.685   5.965
 6421WAT     H219506   0.593   5.546   6.047
 6422WAT      O19507   4.318   1.151   8.875
 6422WAT     H119508   4.317   1.184   8.781
 6422WAT     H219509   4.225   1.133   8.906
 6423WAT      O19510   6.623   7.141   3.501
 6423WAT     H119511   6.532   7.119   3.534
 6423WAT     H219512   6.617   7.206   3.426
 6424WAT      O19513   8.457   8.315   5.537
 6424WAT     H119514   8.496   8.407   5.537
 6424WAT     H219515   8.416   8.296   5.448
 6425WAT      O19516   4.051   1.086   3.766
 6425WAT     H119517   4.035   1.153   3.694
 6425WAT     H219518   4.122   1.119   3.828
 6426WAT      O19519   1.621   7.642   7.417
 6426WAT     H119520   1.678   7.635   7.498
 6426WAT     H219521   1.550   7.572   7.419
 6427WAT      O19522   6.697   9.002   0.397
 6427WAT     H119523   6.771   9.021   0.462
 6427WAT     H219524   6.709   9.058   0.316
 6428WAT      O19525   9.211   5.409   7.900
 6428WAT     H119526   9.295   5.443   7.857
 6428WAT     H219527   9.132   5.439   7.847
 6429WAT      O19528   5.238   3.073   3.220
 6429WAT     H119529   5.154   3.034   3.183
 6429WAT     H219530   5.277   3.012   3.289
 6430WAT      O19531   1.658   3.022   6.538
 6430WAT     H119532   1.645   3.043   6.442
 6430WAT     H219533   1.636   3.102   6.594
 6431WAT      O19534   1.552   4.942   8.597
 6431WAT     H119535   1.469   4.947   8.652
 6431WAT     H219536   1.631   4.932   8.658
 6432WAT      O19537   0.041   4.484   8.185
 6432WAT     H119538   0.030   4.536   8.100
 6432WAT     H219539   0.130   4.438   8.185
 6433WAT      O19540   9.280   2.917   8.711
 6433WAT     H119541   9.228   2.890   8.792
 6433WAT     H219542   9.292   2.837   8.652
 6434WAT      O19543   5.502   7.817   5.575
 6434WAT     H119544   5.468   7.878   5.503
 6434WAT     H219545   5.428   7.796   5.639
 6435WAT      O19546   5.294   9.673   1.297
 6435WAT     H119547   5.347   9.626   1.226
 6435WAT     H219548   5.248   9.752   1.256
 6436WAT      O19549   9.082   7.263   1.579
 6436WAT     H119550   9.170   7.304   1.604
 6436WAT     H219551   9.081   7.241   1.482
 6437WAT      O19552   7.804   0.608   5.997
 6437WAT     H119553   7.719   0.661   5.994
 6437WAT     H219554   7.861   0.640   6.072
 6438WAT      O19555   7.757   1.828   1.608
 6438WAT     H119556   7.793   1.920   1.594
 6438WAT     H219557   7.665   1.833   1.647
 6439WAT      O19558   1.935   2.762   8.603
 6439WAT     H119559   2.015   2.710   8.575
 6439WAT     H219560   1.943   2.786   8.700
 6440WAT      O19561   1.708   7.872   5.666
 6440WAT     H119562   1.669   7.935   5.733
 6440WAT     H219563   1.792   7.831   5.703
 6441WAT      O19564   0.365   8.103   4.661
 6441WAT     H119565   0.403   8.190   4.632
 6441WAT     H219566   0.362   8.040   4.583
 6442WAT      O19567   0.659   3.766   4.754
 6442WAT     H119568   0.591   3.694   4.738
 6442WAT     H219569   0.743   3.744   4.706
 6443WAT      O19570   0.542   3.463   7.984
 6443WAT     H119571   0.475   3.480   8.057
 6443WAT     H219572   0.598   3.544   7.970
 6444WAT      O19573   5.332   0.660   5.926
 6444WAT     H119574   5.383   0.601   5.865
 6444WAT     H219575   5.390   0.689   6.002
 6445WAT      O19576   5.806   5.866   6.233
 6445WAT     H119577   5.718   5.846   6.275
 6445WAT     H219578   5.842   5.783   6.189
 6446WAT      O19579   0.012   6.646   4.289
 6446WAT     H119580  -0.018   6.698   4.369
 6446WAT     H219581   0.085   6.696   4.242
 6447WAT      O19582   4.186   3.710   7.649
 6447WAT     H119583   4.210   3.708   7.746
 6447WAT     H219584   4.121   3.784   7.632
 6448WAT      O19585   8.847   0.787   1.649
 6448WAT     H119586   8.846   0.876   1.604
 6448WAT     H219587   8.886   0.719   1.587
 6449WAT      O19588   8.349   4.007   1.236
 6449WAT     H119589   8.351   4.046   1.144
 6449WAT     H219590   8.282   3.933   1.239
 6450WAT      O19591   3.382   8.642   0.758
 6450WAT     H119592   3.481   8.658   0.765
 6450WAT     H219593   3.364   8.581   0.681
 6451WAT      O19594   6.092   3.339   5.768
 6451WAT     H119595   5.993   3.352   5.767
 6451WAT     H219596   6.121   3.308   5.858
 6452WAT      O19597   9.050   2.870   4.858
 6452WAT     H119598   9.012   2.850   4.949
 6452WAT     H219599   9.060   2.969   4.848
 6453WAT      O19600   7.660   0.666   5.077
 6453WAT     H119601   7.756   0.680   5.053
 6453WAT     H219602   7.609   0.749   5.058
 6454WAT      O19603   4.659   2.006   8.284
 6454WAT     H119604   4.582   1.991   8.223
 6454WAT     H219605   4.700   1.918   8.310
 6455WAT      O19606   0.783   6.927   4.728
 6455WAT     H119607   0.806   6.991   4.800
 6455WAT     H219608   0.696   6.883   4.747
 6456WAT      O19609   6.699   2.427   5.286
 6456WAT     H119610   6.728   2.382   5.371
 6456WAT     H219611   6.760   2.400   5.211
 6457WAT      O19612   2.669   7.399   1.084
 6457WAT     H119613   2.762   7.425   1.058
 6457WAT     H219614   2.655   7.301   1.068
 6458WAT      O19615   9.536   0.579   5.331
 6458WAT     H119616   9.617   0.638   5.329
 6458WAT     H219617   9.557   0.496   5.382
 6459WAT      O19618   4.779   0.901   7.520
 6459WAT     H119619   4.703   0.953   7.560
 6459WAT     H219620   4.743   0.822   7.471
 6460WAT      O19621   6.561   0.740   1.174
 6460WAT     H119622   6.638   0.746   1.238
 6460WAT     H219623   6.557   0.647   1.137
 6461WAT      O19624   2.330   9.718   7.505
 6461WAT     H119625   2.390   9.728   7.426
 6461WAT     H219626   2.368   9.769   7.583
 6462WAT      O19627   8.231   5.216   7.897
 6462WAT     H119628   8.253   5.301   7.945
 6462WAT     H219629   8.281   5.213   7.810
 6463WAT      O19630   8.481   4.497   6.232
 6463WAT     H119631   8.455   4.500   6.135
 6463WAT     H219632   8.488   4.590   6.267
 6464WAT      O19633   8.260   9.199   2.791
 6464WAT     H119634   8.333   9.267   2.782
 6464WAT     H219635   8.218   9.183   2.702
 6465WAT      O19636   2.677   5.805   6.272
 6465WAT     H119637   2.693   5.852   6.359
 6465WAT     H219638   2.765   5.772   6.236
 6466WAT      O19639   6.990   9.156   9.851
 6466WAT     H119640   6.977   9.216   9.929
 6466WAT     H219641   6.928   9.078   9.858
 6467WAT      O19642   5.155   4.754   1.481
 6467WAT     H119643   5.212   4.833   1.456
 6467WAT     H219644   5.197   4.671   1.446
 6468WAT      O19645   9.488   7.919   4.829
 6468WAT     H119646   9.461   7.983   4.758
 6468WAT     H219647   9.561   7.860   4.795
 6469WAT      O19648   7.734   3.036   9.032
 6469WAT     H119649   7.805   3.029   9.102
 6469WAT     H219650   7.644   3.035   9.076
 6470WAT      O19651   2.907   8.347   7.535
 6470WAT     H119652   2.913   8.301   7.447
 6470WAT     H219653   2.964   8.299   7.602
 6471WAT      O19654   9.204   3.711   8.789
 6471WAT     H119655   9.113   3.726   8.829
 6471WAT     H219656   9.202   3.628   8.734
 6472WAT      O19657   8.152   5.759   2.761
 6472WAT     H119658   8.199   5.840   2.725
 6472WAT     H219659   8.100   5.715   2.688
 6473WAT      O19660   3.911   9.076   5.466
 6473WAT     H119661   3.992   9.134   5.478
 6473WAT     H219662   3.874   9.090   5.374
 6474WAT      O19663   7.448   9.075   5.402
 6474WAT     H119664   7.464   9.169   5.371
 6474WAT     H219665   7.501   9.012   5.346
 6475WAT      O19666   1.193   5.449   5.398
 6475WAT     H119667   1.292   5.467   5.405
 6475WAT     H219668   1.144   5.536   5.408
 6476WAT      O19669   8.347   5.246   2.519
 6476WAT     H119670   8.428   5.187   2.515
 6476WAT     H219671   8.272   5.203   2.468
 6477WAT      O19672   9.060   3.301   5.877
 6477WAT     H119673   8.967   3.335   5.879
 6477WAT     H219674   9.120   3.368   5.832
 6478WAT      O19675   4.633   9.400   6.868
 6478WAT     H119676   4.616   9.313   6.915
 6478WAT     H219677   4.699   9.453   6.920
 6479WAT      O19678   9.088   7.503   2.446
 6479WAT     H119679   9.029   7.584   2.447
 6479WAT     H219680   9.168   7.521   2.504
 6480WAT      O19681   3.589   7.092   2.389
 6480WAT     H119682   3.648   7.171   2.373
 6480WAT     H219683   3.551   7.097   2.481
 6481WAT      O19684   6.635   0.769   8.900
 6481WAT     H119685   6.696   0.811   8.968
 6481WAT     H219686   6.654   0.671   8.894
 6482WAT      O19687   4.935   2.095   1.658
 6482WAT     H119688   4.942   2.045   1.744
 6482WAT     H219689   4.842   2.084   1.621
 6483WAT      O19690   0.181   4.397   5.308
 6483WAT     H119691   0.176   4.322   5.243
 6483WAT     H219692   0.240   4.469   5.271
 6484WAT      O19693   3.656   5.013   8.177
 6484WAT     H119694   3.651   5.037   8.274
 6484WAT     H219695   3.614   5.086   8.123
 6485WAT      O19696   2.599   6.892   2.544
 6485WAT     H119697   2.679   6.951   2.532
 6485WAT     H219698   2.593   6.828   2.468
 6486WAT      O19699   2.488   6.051   5.450
 6486WAT     H119700   2.434   5.972   5.422
 6486WAT     H219701   2.429   6.117   5.497
 6487WAT      O19702   9.748   9.490   5.757
 6487WAT     H119703   9.697   9.560   5.707
 6487WAT     H219704   9.755   9.408   5.700
 6488WAT      O19705   7.287   4.882   1.206
 6488WAT     H119706   7.338   4.822   1.267
 6488WAT     H219707   7.322   4.872   1.112
 6489WAT      O19708   2.480   4.657   6.386
 6489WAT     H119709   2.494   4.680   6.482
 6489WAT     H219710   2.568   4.639   6.343
 6490WAT      O19711   3.900   1.075   8.014
 6490WAT     H119712   3.808   1.096   8.050
 6490WAT     H219713   3.891   1.034   7.924
 6491WAT      O19714   8.391   5.854   2.113
 6491WAT     H119715   8.470   5.861   2.174
 6491WAT     H219716   8.311   5.893   2.158
 6492WAT      O19717   5.229   7.694   2.054
 6492WAT     H119718   5.215   7.623   2.123
 6492WAT     H219719   5.148   7.753   2.051
 6493WAT      O19720   6.032   0.014   1.306
 6493WAT     H119721   6.120   0.040   1.344
 6493WAT     H219722   6.047  -0.036   1.220
 6494WAT      O19723   3.852   4.355   7.627
 6494WAT     H119724   3.937   4.393   7.592
 6494WAT     H219725   3.811   4.418   7.693
 6495WAT      O19726   6.926   5.921   0.563
 6495WAT     H119727   6.907   5.827   0.591
 6495WAT     H219728   7.025   5.939   0.572
 6496WAT      O19729   8.230   7.590   0.601
 6496WAT     H119730   8.180   7.560   0.520
 6496WAT     H219731   8.273   7.679   0.584
 6497WAT      O19732   5.141   4.087   8.547
 6497WAT     H119733   5.151   4.062   8.644
 6497WAT     H219734   5.122   4.005   8.494
 6498WAT      O19735   9.217   9.028   7.606
 6498WAT     H119736   9.278   9.075   7.543
 6498WAT     H219737   9.251   9.038   7.699
 6499WAT      O19738   2.343   8.388   1.738
 6499WAT     H119739   2.283   8.326   1.788
 6499WAT     H219740   2.290   8.441   1.672
 6500WAT      O19741   0.863   6.196   7.904
 6500WAT     H119742   0.902   6.165   7.991
 6500WAT     H219743   0.839   6.293   7.912
 6501WAT      O19744   9.219   1.418   3.366
 6501WAT     H119745   9.258   1.426   3.457
 6501WAT     H219746   9.289   1.383   3.303
 6502WAT      O19747   5.987   2.254   3.769
 6502WAT     H119748   6.034   2.168   3.786
 6502WAT     H219749   5.892   2.236   3.743
 6503WAT      O19750   7.503   0.244   3.044
 6503WAT     H119751   7.578   0.292   3.090
 6503WAT     H219752   7.424   0.240   3.105
 6504WAT      O19753   5.355   3.196   8.715
 6504WAT     H119754   5.258   3.212   8.736
 6504WAT     H219755   5.365   3.107   8.671
 6505WAT      O19756   8.013   1.914   0.114
 6505WAT     H119757   7.929   1.868   0.084
 6505WAT     H219758   7.991   2.007   0.142
 6506WAT      O19759   1.103   6.986   7.710
 6506WAT     H119760   1.051   6.917   7.659
 6506WAT     H219761   1.042   7.063   7.732
 6507WAT      O19762   8.504   6.028   6.180
 6507WAT     H119763   8.579   6.094   6.188
 6507WAT     H219764   8.438   6.045   6.253
 6508WAT      O19765   6.571   9.331   2.231
 6508WAT     H119766   6.667   9.357   2.236
 6508WAT     H219767   6.522   9.368   2.310
 6509WAT      O19768   5.720   0.579   4.293
 6509WAT     H119769   5.744   0.508   4.360
 6509WAT     H219770   5.644   0.547   4.237
 6510WAT      O19771   7.346   2.325   6.550
 6510WAT     H119772   7.363   2.282   6.639
 6510WAT     H219773   7.429   2.371   6.519
 6511WAT      O19774   2.868   8.771   9.360
 6511WAT     H119775   2.787   8.771   9.418
 6511WAT     H219776   2.935   8.707   9.397
 6512WAT      O19777   7.530   0.214   1.586
 6512WAT     H119778   7.571   0.157   1.514
 6512WAT     H219779   7.433   0.228   1.566
 6513WAT      O19780   6.221   2.836   0.480
 6513WAT     H119781   6.307   2.846   0.428
 6513WAT     H219782   6.239   2.785   0.564
 6514WAT      O19783   4.195   0.353   1.071
 6514WAT     H119784   4.110   0.403   1.056
 6514WAT     H219785   4.227   0.369   1.165
 6515WAT      O19786   3.061   5.958   6.161
 6515WAT     H119787   3.149   6.005   6.174
 6515WAT     H219788   2.996   6.022   6.120
 6516WAT      O19789   1.266   1.982   5.627
 6516WAT     H119790   1.256   1.933   5.713
 6516WAT     H219791   1.188   2.043   5.614
 6517WAT      O19792   8.651   0.921   0.902
 6517WAT     H119793   8.660   0.845   0.836
 6517WAT     H219794   8.731   0.981   0.893
 6518WAT      O19795   9.430   2.370   5.346
 6518WAT     H119796   9.409   2.454   5.295
 6518WAT     H219797   9.346   2.334   5.385
 6519WAT      O19798   7.576   7.666   7.637
 6519WAT     H119799   7.621   7.579   7.615
 6519WAT     H219800   7.554   7.668   7.735
 6520WAT      O19801   7.684   7.160   7.764
 6520WAT     H119802   7.675   7.207   7.851
 6520WAT     H219803   7.613   7.089   7.757
 6521WAT      O19804   7.512   4.871   3.814
 6521WAT     H119805   7.480   4.927   3.890
 6521WAT     H219806   7.612   4.868   3.816
 6522WAT      O19807   9.121   7.417   0.735
 6522WAT     H119808   9.173   7.476   0.674
 6522WAT     H219809   9.182   7.372   0.800
 6523WAT      O19810   5.028   8.383   0.503
 6523WAT     H119811   5.077   8.315   0.448
 6523WAT     H219812   5.078   8.399   0.589
 6524WAT      O19813   2.594   4.920   8.048
 6524WAT     H119814   2.549   4.922   7.958
 6524WAT     H219815   2.643   4.833   8.059
 6525WAT      O19816   2.163   0.087   4.510
 6525WAT     H119817   2.110   0.003   4.501
 6525WAT     H219818   2.125   0.143   4.583
 6526WAT      O19819   4.304   2.990   7.937
 6526WAT     H119820   4.280   3.022   7.846
 6526WAT     H219821   4.341   3.066   7.990
 6527WAT      O19822   2.435   3.692   7.369
 6527WAT     H119823   2.440   3.787   7.400
 6527WAT     H219824   2.419   3.632   7.448
 6528WAT      O19825   9.474   8.019   2.872
 6528WAT     H119826   9.483   7.965   2.788
 6528WAT     H219827   9.554   8.005   2.929
 6529WAT      O19828   2.194   5.663   0.541
 6529WAT     H119829   2.231   5.591   0.600
 6529WAT     H219830   2.173   5.744   0.595
 6530WAT      O19831   1.284   1.389   1.010
 6530WAT     H119832   1.268   1.483   0.980
 6530WAT     H219833   1.364   1.386   1.070
 6531WAT      O19834   0.149   0.952   2.724
 6531WAT     H119835   0.127   0.858   2.698
 6531WAT     H219836   0.094   0.978   2.804
 6532WAT      O19837   5.776   0.551   6.030
 6532WAT     H119838   5.751   0.524   5.937
 6532WAT     H219839   5.866   0.596   6.028
 6533WAT      O19840   0.112   8.036   5.293
 6533WAT     H119841   0.031   8.046   5.351
 6533WAT     H219842   0.095   8.080   5.205
 6534WAT      O19843   6.491   9.365   6.392
 6534WAT     H119844   6.398   9.387   6.422
 6534WAT     H219845   6.557   9.416   6.448
 6535WAT      O19846   0.976   4.780   3.260
 6535WAT     H119847   0.952   4.851   3.193
 6535WAT     H219848   1.074   4.783   3.278
 6536WAT      O19849   3.582   4.552   0.217
 6536WAT     H119850   3.633   4.617   0.159
 6536WAT     H219851   3.575   4.465   0.169
 6537WAT      O19852   9.798   2.279   1.420
 6537WAT     H119853   9.777   2.373   1.394
 6537WAT     H219854   9.861   2.279   1.498
 6538WAT      O19855   1.573   7.007   4.430
 6538WAT     H119856   1.670   7.019   4.446
 6538WAT     H219857   1.543   6.920   4.470
 6539WAT      O19858   4.464   2.148   6.126
 6539WAT     H119859   4.451   2.230   6.181
 6539WAT     H219860   4.558   2.147   6.090
 6540WAT      O19861   0.776   6.815   6.622
 6540WAT     H119862   0.820   6.873   6.553
 6540WAT     H219863   0.846   6.764   6.672
 6541WAT      O19864   7.189   8.935   4.137
 6541WAT     H119865   7.251   8.942   4.059
 6541WAT     H219866   7.243   8.923   4.221
 6542WAT      O19867   8.424   4.632   0.952
 6542WAT     H119868   8.340   4.687   0.951
 6542WAT     H219869   8.467   4.640   1.042
 6543WAT      O19870   4.759   5.187   8.172
 6543WAT     H119871   4.738   5.283   8.194
 6543WAT     H219872   4.742   5.172   8.074
 6544WAT      O19873   9.797   4.703   5.760
 6544WAT     H119874   9.722   4.745   5.812
 6544WAT     H219875   9.789   4.730   5.664
 6545WAT      O19876   7.957   6.532   6.817
 6545WAT     H119877   8.034   6.526   6.881
 6545WAT     H219878   7.908   6.618   6.832
 6546WAT      O19879   0.437   5.194   3.295
 6546WAT     H119880   0.485   5.281   3.286
 6546WAT     H219881   0.350   5.198   3.246
 6547WAT      O19882   9.160   8.945   9.317
 6547WAT     H119883   9.099   9.012   9.359
 6547WAT     H219884   9.234   8.992   9.269
 6548WAT      O19885   6.473   5.956   8.401
 6548WAT     H119886   6.535   6.016   8.350
 6548WAT     H219887   6.414   5.907   8.336
 6549WAT      O19888   1.058   6.566   8.416
 6549WAT     H119889   0.978   6.623   8.440
 6549WAT     H219890   1.039   6.516   8.332
 6550WAT      O19891   7.190   3.657   5.986
 6550WAT     H119892   7.196   3.558   5.974
 6550WAT     H219893   7.136   3.696   5.911
 6551WAT      O19894   6.149   2.765   3.479
 6551WAT     H119895   6.162   2.731   3.572
 6551WAT     H219896   6.063   2.729   3.442
 6552WAT      O19897   7.073   2.896   9.208
 6552WAT     H119898   7.109   2.884   9.301
 6552WAT     H219899   6.973   2.897   9.212
 6553WAT      O19900   3.090   3.727   7.876
 6553WAT     H119901   3.156   3.659   7.910
 6553WAT     H219902   3.071   3.709   7.780
 6554WAT      O19903   3.399   6.141   3.411
 6554WAT     H119904   3.396   6.129   3.312
 6554WAT     H219905   3.462   6.216   3.434
 6555WAT      O19906   9.218   1.608   2.757
 6555WAT     H119907   9.181   1.651   2.674
 6555WAT     H219908   9.190   1.512   2.760
 6556WAT      O19909   7.652   6.845   9.812
 6556WAT     H119910   7.643   6.746   9.818
 6556WAT     H219911   7.614   6.877   9.725
 6557WAT      O19912   9.738   8.903   5.897
 6557WAT     H119913   9.723   8.907   5.996
 6557WAT     H219914   9.661   8.856   5.854
 6558WAT      O19915   0.009   4.950   1.174
 6558WAT     H119916   0.077   4.881   1.150
 6558WAT     H219917  -0.055   4.962   1.097
 6559WAT      O19918   4.780   9.161   2.151
 6559WAT     H119919   4.847   9.089   2.135
 6559WAT     H219920   4.745   9.195   2.064
 6560WAT      O19921   8.352   3.685   0.800
 6560WAT     H119922   8.412   3.751   0.755
 6560WAT     H219923   8.393   3.594   0.794
 6561WAT      O19924   8.163   5.475   3.802
 6561WAT     H119925   8.201   5.460   3.711
 6561WAT     H219926   8.076   5.426   3.810
 6562WAT      O19927   6.027   0.176   6.366
 6562WAT     H119928   6.001   0.161   6.271
 6562WAT     H219929   6.018   0.090   6.417
 6563WAT      O19930   5.367   2.497   7.169
 6563WAT     H119931   5.298   2.428   7.190
 6563WAT     H219932   5.373   2.563   7.244
 6564WAT      O19933   9.587   6.540   9.263
 6564WAT     H119934   9.668   6.588   9.295
 6564WAT     H219935   9.579   6.552   9.163
 6565WAT      O19936   3.833   9.756   1.598
 6565WAT     H119937   3.763   9.823   1.573
 6565WAT     H219938   3.827   9.678   1.537
 6566WAT      O19939   6.992   0.056   7.561
 6566WAT     H119940   6.939   0.127   7.608
 6566WAT     H219941   7.042   0.002   7.629
 6567WAT      O19942   1.720   5.303   0.260
 6567WAT     H119943   1.801   5.328   0.206
 6567WAT     H219944   1.652   5.375   0.251
 6568WAT      O19945   0.838   5.552   7.049
 6568WAT     H119946   0.803   5.484   6.985
 6568WAT     H219947   0.915   5.513   7.100
 6569WAT      O19948   3.484   1.505   7.697
 6569WAT     H119949   3.568   1.533   7.743
 6569WAT     H219950   3.413   1.487   7.766
 6570WAT      O19951   2.471   3.914   4.417
 6570WAT     H119952   2.543   3.934   4.350
 6570WAT     H219953   2.487   3.823   4.456
 6571WAT      O19954   4.830   6.913   0.160
 6571WAT     H119955   4.852   6.862   0.077
 6571WAT     H219956   4.809   6.849   0.234
 6572WAT      O19957   3.714   2.830   1.072
 6572WAT     H119958   3.791   2.788   1.025
 6572WAT     H219959   3.748   2.894   1.141
 6573WAT      O19960   1.229   3.064   5.173
 6573WAT     H119961   1.283   3.075   5.257
 6573WAT     H219962   1.276   3.001   5.111
 6574WAT      O19963   7.148   0.329   8.751
 6574WAT     H119964   7.099   0.253   8.709
 6574WAT     H219965   7.235   0.297   8.786
 6575WAT      O19966   8.983   4.439   3.683
 6575WAT     H119967   9.073   4.435   3.639
 6575WAT     H219968   8.972   4.528   3.727
 6576WAT      O19969   8.445   3.966   4.161
 6576WAT     H119970   8.532   3.969   4.111
 6576WAT     H219971   8.376   4.019   4.111
 6577WAT      O19972   2.659   4.795   3.041
 6577WAT     H119973   2.604   4.785   3.124
 6577WAT     H219974   2.680   4.705   3.004
 6578WAT      O19975   1.396   3.036   7.422
 6578WAT     H119976   1.490   3.009   7.443
 6578WAT     H219977   1.381   3.029   7.323
 6579WAT      O19978   5.904   9.843   9.359
 6579WAT     H119979   5.913   9.813   9.264
 6579WAT     H219980   5.844   9.780   9.409
 6580WAT      O19981   8.334   5.879   9.581
 6580WAT     H119982   8.434   5.876   9.577
 6580WAT     H219983   8.296   5.820   9.509
 6581WAT      O19984   8.721   2.496   8.506
 6581WAT     H119985   8.821   2.503   8.506
 6581WAT     H219986   8.690   2.467   8.596
 6582WAT      O19987   7.651   9.442   4.392
 6582WAT     H119988   7.651   9.535   4.355
 6582WAT     H219989   7.604   9.442   4.480
 6583WAT      O19990   4.378   3.828   7.032
 6583WAT     H119991   4.332   3.914   7.057
 6583WAT     H219992   4.451   3.848   6.967
 6584WAT      O19993   9.141   3.728   1.051
 6584WAT     H119994   9.132   3.788   1.131
 6584WAT     H219995   9.061   3.670   1.043
 6585WAT      O19996   8.091   7.079   1.010
 6585WAT     H119997   8.175   7.030   0.987
 6585WAT     H219998   8.056   7.125   0.928
 6586WAT      O19999   0.246   5.425   0.918
 6586WAT     H120000   0.320   5.381   0.868
 6586WAT     H220001   0.255   5.404   1.016
 6587WAT      O20002   6.283   0.713   1.736
 6587WAT     H120003   6.236   0.633   1.774
 6587WAT     H220004   6.262   0.721   1.639
 6588WAT      O20005   1.635   4.678   7.614
 6588WAT     H120006   1.681   4.761   7.645
 6588WAT     H220007   1.554   4.661   7.670
 6589WAT      O20008   2.742   7.957   0.411
 6589WAT     H120009   2.733   8.056   0.423
 6589WAT     H220010   2.717   7.933   0.318
 6590WAT      O20011   2.673   2.029   7.839
 6590WAT     H120012   2.721   2.114   7.818
 6590WAT     H220013   2.591   2.022   7.782
 6591WAT      O20014   7.126   1.374   7.455
 6591WAT     H120015   7.117   1.471   7.431
 6591WAT     H220016   7.036   1.331   7.457
 6592WAT      O20017   1.315   7.426   8.065
 6592WAT     H120018   1.389   7.467   8.010
 6592WAT     H220019   1.265   7.499   8.111
 6593WAT      O20020   1.443   0.031   3.014
 6593WAT     H120021   1.427   0.077   2.926
 6593WAT     H220022   1.356   0.012   3.058
 6594WAT      O20023   8.594   9.447   8.136
 6594WAT     H120024   8.551   9.361   8.164
 6594WAT     H220025   8.632   9.493   8.216
 6595WAT      O20026   0.685   8.006   4.941
 6595WAT     H120027   0.784   8.016   4.954
 6595WAT     H220028   0.667   7.963   4.853
 6596WAT      O20029   0.365   0.033   9.004
 6596WAT     H120030   0.286   0.064   8.950
 6596WAT     H220031   0.441   0.012   8.943
 6597WAT      O20032   7.695   3.262   0.347
 6597WAT     H120033   7.727   3.168   0.352
 6597WAT     H220034   7.602   3.268   0.384
 6598WAT      O20035   5.235   7.316   5.486
 6598WAT     H120036   5.213   7.275   5.574
 6598WAT     H220037   5.165   7.292   5.419
 6599WAT      O20038   9.699   3.868   6.195
 6599WAT     H120039   9.607   3.897   6.168
 6599WAT     H220040   9.705   3.865   6.295
 6600WAT      O20041   6.645   5.370   2.901
 6600WAT     H120042   6.628   5.441   2.970
 6600WAT     H220043   6.590   5.290   2.922
 6601WAT      O20044   3.033   3.805   0.426
 6601WAT     H120045   2.959   3.749   0.389
 6601WAT     H220046   3.028   3.805   0.526
 6602WAT      O20047   3.943   1.263   1.392
 6602WAT     H120048   3.907   1.316   1.469
 6602WAT     H220049   4.038   1.288   1.375
 6603WAT      O20050   2.092   3.171   1.532
 6603WAT     H120051   2.072   3.193   1.437
 6603WAT     H220052   2.008   3.176   1.586
 6604WAT      O20053   8.204   0.076   6.520
 6604WAT     H120054   8.208  -0.023   6.504
 6604WAT     H220055   8.261   0.099   6.600
 6605WAT      O20056   8.908   9.626   8.957
 6605WAT     H120057   8.927   9.531   8.983
 6605WAT     H220058   8.981   9.660   8.898
 6606WAT      O20059   2.982   1.339   4.154
 6606WAT     H120060   2.997   1.389   4.070
 6606WAT     H220061   3.059   1.354   4.217
 6607WAT      O20062   8.534   0.894   7.069
 6607WAT     H120063   8.452   0.902   7.126
 6607WAT     H220064   8.533   0.805   7.022
 6608WAT      O20065   1.723   2.054  -0.001
 6608WAT     H120066   1.748   2.148  -0.023
 6608WAT     H220067   1.670   2.053   0.084
 6609WAT      O20068   9.818   6.118   2.157
 6609WAT     H120069   9.880   6.192   2.185
 6609WAT     H220070   9.821   6.044   2.224
 6610WAT      O20071   4.803   0.431   6.705
 6610WAT     H120072   4.745   0.511   6.721
 6610WAT     H220073   4.899   0.459   6.703
 6611WAT      O20074   5.866   8.671   9.735
 6611WAT     H120075   5.804   8.650   9.811
 6611WAT     H220076   5.867   8.595   9.671
 6612WAT      O20077   6.898   3.821   2.609
 6612WAT     H120078   6.838   3.742   2.615
 6612WAT     H220079   6.932   3.844   2.701
 6613WAT      O20080   9.180   3.283   6.693
 6613WAT     H120081   9.159   3.302   6.596
 6613WAT     H220082   9.192   3.185   6.706
 6614WAT      O20083   1.137   3.857   0.275
 6614WAT     H120084   1.133   3.948   0.233
 6614WAT     H220085   1.202   3.800   0.226
 6615WAT      O20086   9.585   6.025   2.740
 6615WAT     H120087   9.560   6.104   2.797
 6615WAT     H220088   9.676   5.993   2.767
 6616WAT      O20089   4.088   6.830   5.641
 6616WAT     H120090   4.082   6.730   5.641
 6616WAT     H220091   4.128   6.861   5.727
 6617WAT      O20092   0.267   3.474   8.412
 6617WAT     H120093   0.344   3.509   8.359
 6617WAT     H220094   0.189   3.458   8.351
 6618WAT      O20095   3.289   3.299   4.638
 6618WAT     H120096   3.382   3.278   4.670
 6618WAT     H220097   3.292   3.324   4.542
 6619WAT      O20098   2.400   5.245   3.282
 6619WAT     H120099   2.493   5.209   3.290
 6619WAT     H220100   2.399   5.342   3.306
 6620WAT      O20101   0.510   5.907   9.151
 6620WAT     H120102   0.592   5.859   9.182
 6620WAT     H220103   0.429   5.853   9.174
 6621WAT      O20104   6.737   4.913   6.631
 6621WAT     H120105   6.823   4.960   6.616
 6621WAT     H220106   6.662   4.966   6.592
 6622WAT      O20107   5.529   9.253   2.501
 6622WAT     H120108   5.432   9.272   2.516
 6622WAT     H220109   5.555   9.171   2.551
 6623WAT      O20110   7.225   7.943   7.585
 6623WAT     H120111   7.144   7.972   7.535
 6623WAT     H220112   7.201   7.873   7.652
 6624WAT      O20113   9.015   2.260   8.026
 6624WAT     H120114   9.044   2.232   7.935
 6624WAT     H220115   8.917   2.246   8.036
 6625WAT      O20116   8.375   7.491   1.450
 6625WAT     H120117   8.397   7.578   1.493
 6625WAT     H220118   8.459   7.439   1.436
 6626WAT      O20119   3.723   0.537   8.653
 6626WAT     H120120   3.809   0.488   8.670
 6626WAT     H220121   3.708   0.545   8.555
 6627WAT      O20122   8.646   4.570   8.948
 6627WAT     H120123   8.632   4.642   8.881
 6627WAT     H220124   8.685   4.609   9.032
 6628WAT      O20125   8.582   3.050   1.831
 6628WAT     H120126   8.510   3.120   1.832
 6628WAT     H220127   8.667   3.090   1.796
 6629WAT      O20128   1.898   8.590   1.999
 6629WAT     H120129   1.929   8.665   2.057
 6629WAT     H220130   1.915   8.612   1.903
 6630WAT      O20131   3.827   7.873   7.353
 6630WAT     H120132   3.795   7.964   7.381
 6630WAT     H220133   3.774   7.803   7.401
 6631WAT      O20134   5.882   8.229   7.807
 6631WAT     H120135   5.898   8.319   7.847
 6631WAT     H220136   5.804   8.233   7.745
 6632WAT      O20137   6.786   3.546   8.637
 6632WAT     H120138   6.814   3.475   8.701
 6632WAT     H220139   6.814   3.521   8.545
 6633WAT      O20140   9.377   6.413   3.712
 6633WAT     H120141   9.423   6.470   3.780
 6633WAT     H220142   9.431   6.331   3.695
 6634WAT      O20143   2.131   4.051   1.640
 6634WAT     H120144   2.054   4.052   1.704
 6634WAT     H220145   2.207   4.000   1.680
 6635WAT      O20146   0.496   0.044   9.233
 6635WAT     H120147   0.567  -0.012   9.191
 6635WAT     H220148   0.422   0.060   9.168
 6636WAT      O20149   9.162   0.209   1.468
 6636WAT     H120150   9.157   0.304   1.437
 6636WAT     H220151   9.072   0.180   1.501
 6637WAT      O20152   3.054   2.590   8.573
 6637WAT     H120153   3.017   2.596   8.480
 6637WAT     H220154   3.032   2.673   8.623
 6638WAT      O20155   9.116   7.464   5.778
 6638WAT     H120156   9.126   7.430   5.871
 6638WAT     H220157   9.206   7.479   5.738
 6639WAT      O20158   1.432   9.733   5.466
 6639WAT     H120159   1.410   9.822   5.425
 6639WAT     H220160   1.531   9.725   5.477
 6640WAT      O20161   0.543   6.660   7.360
 6640WAT     H120162   0.630   6.631   7.399
 6640WAT     H220163   0.472   6.593   7.384
 6641WAT      O20164   9.769   8.051   5.431
 6641WAT     H120165   9.758   8.138   5.384
 6641WAT     H220166   9.748   8.062   5.528
 6642WAT      O20167   9.739   4.815   0.234
 6642WAT     H120168   9.779   4.737   0.281
 6642WAT     H220169   9.640   4.806   0.231
 6643WAT      O20170   5.033   7.962   7.966
 6643WAT     H120171   4.996   7.897   7.900
 6643WAT     H220172   4.995   8.052   7.949
 6644WAT      O20173   8.204   5.451   5.233
 6644WAT     H120174   8.229   5.547   5.217
 6644WAT     H220175   8.244   5.394   5.162
 6645WAT      O20176   4.011   1.371   9.032
 6645WAT     H120177   3.998   1.291   9.089
 6645WAT     H220178   4.055   1.444   9.085
 6646WAT      O20179   5.584   6.777   9.157
 6646WAT     H120180   5.509   6.838   9.131
 6646WAT     H220181   5.555   6.718   9.232
 6647WAT      O20182   2.454   8.813   1.837
 6647WAT     H120183   2.471   8.718   1.863
 6647WAT     H220184   2.428   8.817   1.740
 6648WAT      O20185   1.566   1.533   4.986
 6648WAT     H120186   1.501   1.457   4.993
 6648WAT     H220187   1.659   1.498   4.991
 6649WAT      O20188   9.797   4.910   6.090
 6649WAT     H120189   9.838   4.954   6.170
 6649WAT     H220190   9.744   4.977   6.039
 6650WAT      O20191   5.578   5.373   8.791
 6650WAT     H120192   5.536   5.310   8.856
 6650WAT     H220193   5.670   5.397   8.823
 6651WAT      O20194   5.862   5.187   3.322
 6651WAT     H120195   5.925   5.178   3.399
 6651WAT     H220196   5.770   5.162   3.351
 6652WAT      O20197   2.422   3.674   4.079
 6652WAT     H120198   2.479   3.756   4.069
 6652WAT     H220199   2.418   3.647   4.175
 6653WAT      O20200   3.232   0.923   9.828
 6653WAT     H120201   3.164   0.852   9.806
 6653WAT     H220202   3.323   0.890   9.805
 6654WAT      O20203   8.231   6.790   3.590
 6654WAT     H120204   8.143   6.835   3.602
 6654WAT     H220205   8.275   6.825   3.508
 6655WAT      O20206   6.117   7.416   4.601
 6655WAT     H120207   6.200   7.419   4.658
 6655WAT     H220208   6.114   7.330   4.551
 6656WAT      O20209   6.879   3.804   8.655
 6656WAT     H120210   6.861   3.706   8.652
 6656WAT     H220211   6.806   3.853   8.607
 6657WAT      O20212   9.420   1.966   9.033
 6657WAT     H120213   9.430   2.064   9.045
 6657WAT     H220214   9.362   1.929   9.106
 6658WAT      O20215   4.855   2.556   4.152
 6658WAT     H120216   4.815   2.558   4.060
 6658WAT     H220217   4.785   2.582   4.218
 6659WAT      O20218   1.590   0.956   6.553
 6659WAT     H120219   1.498   0.925   6.529
 6659WAT     H220220   1.656   0.886   6.527
 6660WAT      O20221   3.066   7.802   4.569
 6660WAT     H120222   3.055   7.896   4.537
 6660WAT     H220223   3.093   7.802   4.665
 6661WAT      O20224   0.969   6.477   2.724
 6661WAT     H120225   0.996   6.454   2.818
 6661WAT     H220226   1.044   6.524   2.679
 6662WAT      O20227   3.030   2.693   3.517
 6662WAT     H120228   2.998   2.618   3.459
 6662WAT     H220229   3.052   2.658   3.608
 6663WAT      O20230   4.790   0.590   0.685
 6663WAT     H120231   4.697   0.595   0.723
 6663WAT     H220232   4.794   0.644   0.601
 6664WAT      O20233   7.563   0.186   4.967
 6664WAT     H120234   7.602   0.277   4.979
 6664WAT     H220235   7.476   0.180   5.016
 6665WAT      O20236   2.901   9.285   2.029
 6665WAT     H120237   2.973   9.354   2.023
 6665WAT     H220238   2.937   9.203   2.073
 6666WAT      O20239   7.619   6.597   4.896
 6666WAT     H120240   7.535   6.562   4.937
 6666WAT     H220241   7.698   6.560   4.945
 6667WAT      O20242   7.809   2.434   5.771
 6667WAT     H120243   7.870   2.466   5.699
 6667WAT     H220244   7.798   2.507   5.839
 6668WAT      O20245   6.574   4.979   7.441
 6668WAT     H120246   6.630   4.992   7.360
 6668WAT     H220247   6.545   5.068   7.477
 6669WAT      O20248   6.798   8.346   5.264
 6669WAT     H120249   6.816   8.420   5.200
 6669WAT     H220250   6.700   8.322   5.260
 6670WAT      O20251   6.167   2.176   0.224
 6670WAT     H120252   6.087   2.163   0.284
 6670WAT     H220253   6.140   2.230   0.144
 6671WAT      O20254   1.901   9.729   3.160
 6671WAT     H120255   1.838   9.725   3.083
 6671WAT     H220256   1.857   9.692   3.242
 6672WAT      O20257   4.662   6.298   7.788
 6672WAT     H120258   4.676   6.203   7.813
 6672WAT     H220259   4.700   6.314   7.697
 6673WAT      O20260   4.429   8.222   2.305
 6673WAT     H120261   4.508   8.257   2.357
 6673WAT     H220262   4.423   8.271   2.218
 6674WAT      O20263   2.822   0.034   9.465
 6674WAT     H120264   2.768   0.077   9.538
 6674WAT     H220265   2.899  -0.015   9.505
 6675WAT      O20266   6.225   1.356   4.883
 6675WAT     H120267   6.307   1.317   4.927
 6675WAT     H220268   6.239   1.361   4.785
 6676WAT      O20269   8.821   2.114   3.251
 6676WAT     H120270   8.853   2.116   3.156
 6676WAT     H220271   8.823   2.020   3.285
 6677WAT      O20272   4.055   5.069   9.155
 6677WAT     H120273   4.094   5.097   9.067
 6677WAT     H220274   4.090   4.978   9.179
 6678WAT      O20275   8.337   5.143   0.010
 6678WAT     H120276   8.358   5.235   0.043
 6678WAT     H220277   8.263   5.148  -0.057
 6679WAT      O20278   5.499   6.117   7.310
 6679WAT     H120279   5.597   6.107   7.289
 6679WAT     H220280   5.486   6.196   7.370
 6680WAT      O20281   5.103   8.865   3.650
 6680WAT     H120282   5.158   8.844   3.730
 6680WAT     H220283   5.155   8.843   3.567
 6681WAT      O20284   7.395   9.360   6.571
 6681WAT     H120285   7.309   9.376   6.620
 6681WAT     H220286   7.404   9.263   6.549
 6682WAT      O20287   2.699   7.328   0.146
 6682WAT     H120288   2.752   7.407   0.115
 6682WAT     H220289   2.648   7.352   0.228
 6683WAT      O20290   6.029   2.843   7.742
 6683WAT     H120291   6.101   2.890   7.691
 6683WAT     H220292   6.070   2.789   7.816
 6684WAT      O20293   3.461   6.000   7.399
 6684WAT     H120294   3.375   6.020   7.446
 6684WAT     H220295   3.480   5.902   7.404
 6685WAT      O20296   5.585   4.599   8.472
 6685WAT     H120297   5.538   4.680   8.438
 6685WAT     H220298   5.583   4.599   8.572
 6686WAT      O20299   0.328   6.102   1.967
 6686WAT     H120300   0.287   6.136   1.883
 6686WAT     H220301   0.426   6.122   1.968
 6687WAT      O20302   2.841   8.110   1.347
 6687WAT     H120303   2.822   8.143   1.255
 6687WAT     H220304   2.935   8.132   1.372
 6688WAT      O20305   2.655   4.817   5.210
 6688WAT     H120306   2.725   4.863   5.265
 6688WAT     H220307   2.646   4.722   5.240
 6689WAT      O20308   0.914   0.088   8.968
 6689WAT     H120309   0.862   0.172   8.986
 6689WAT     H220310   0.857   0.008   8.986
 6690WAT      O20311   7.355   0.323   6.143
 6690WAT     H120312   7.353   0.402   6.204
 6690WAT     H220313   7.403   0.247   6.187
 6691WAT      O20314   0.099   2.673   1.955
 6691WAT     H120315   0.099   2.665   1.855
 6691WAT     H220316   0.154   2.752   1.983
 6692WAT      O20317   3.160   7.163   5.378
 6692WAT     H120318   3.120   7.076   5.349
 6692WAT     H220319   3.256   7.149   5.400
 6693WAT      O20320   0.261   9.679   4.581
 6693WAT     H120321   0.276   9.748   4.651
 6693WAT     H220322   0.191   9.615   4.612
 6694WAT      O20323   1.966   2.960   8.138
 6694WAT     H120324   1.942   3.005   8.053
 6694WAT     H220325   1.962   2.861   8.125
 6695WAT      O20326   0.666   7.636   2.878
 6695WAT     H120327   0.580   7.687   2.873
 6695WAT     H220328   0.654   7.556   2.936
 6696WAT      O20329   0.527   2.223   9.135
 6696WAT     H120330   0.521   2.318   9.165
 6696WAT     H220331   0.544   2.164   9.215
 6697WAT      O20332   2.261   2.770   5.164
 6697WAT     H120333   2.229   2.854   5.209
 6697WAT     H220334   2.275   2.788   5.067
 6698WAT      O20335   1.190   8.822   5.289
 6698WAT     H120336   1.101   8.790   5.322
 6698WAT     H220337   1.243   8.745   5.255
 6699WAT      O20338   8.984   4.520   1.545
 6699WAT     H120339   9.000   4.435   1.595
 6699WAT     H220340   9.052   4.528   1.472
 6700WAT      O20341   4.775   4.215   0.109
 6700WAT     H120342   4.872   4.237   0.118
 6700WAT     H220343   4.733   4.209   0.199
 6701WAT      O20344   7.590   2.446   0.070
 6701WAT     H120345   7.538   2.528   0.046
 6701WAT     H220346   7.528   2.373   0.099
 6702WAT      O20347   8.269   8.696   8.795
 6702WAT     H120348   8.350   8.669   8.742
 6702WAT     H220349   8.236   8.784   8.764
 6703WAT      O20350   9.029   4.681   8.043
 6703WAT     H120351   8.964   4.628   8.096
 6703WAT     H220352   9.053   4.765   8.093
 6704WAT      O20353   2.357   7.713   8.885
 6704WAT     H120354   2.357   7.805   8.844
 6704WAT     H220355   2.346   7.721   8.984
 6705WAT      O20356   8.050   6.321   1.847
 6705WAT     H120357   8.013   6.232   1.819
 6705WAT     H220358   8.135   6.339   1.798
 6706WAT      O20359   7.902   5.245   2.988
 6706WAT     H120360   7.852   5.210   3.067
 6706WAT     H220361   7.997   5.264   3.014
 6707WAT      O20362   3.437   2.979   0.596
 6707WAT     H120363   3.393   3.045   0.656
 6707WAT     H220364   3.368   2.936   0.537
 6708WAT      O20365   9.422   0.429   9.570
 6708WAT     H120366   9.373   0.499   9.622
 6708WAT     H220367   9.519   0.434   9.591
 6709WAT      O20368   9.087   9.409   7.694
 6709WAT     H120369   9.084   9.317   7.657
 6709WAT     H220370   8.995   9.450   7.689
 6710WAT      O20371   8.445   7.334   0.870
 6710WAT     H120372   8.389   7.252   0.858
 6710WAT     H220373   8.541   7.311   0.853
 6711WAT      O20374   6.984   7.962   0.051
 6711WAT     H120375   7.066   8.000   0.010
 6711WAT     H220376   6.951   8.022   0.124
 6712WAT      O20377   1.190   1.724   4.403
 6712WAT     H120378   1.255   1.666   4.354
 6712WAT     H220379   1.097   1.705   4.370
 6713WAT      O20380   0.662   1.732   9.819
 6713WAT     H120381   0.707   1.749   9.731
 6713WAT     H220382   0.586   1.796   9.830
 6714WAT      O20383   1.888   3.366   2.746
 6714WAT     H120384   1.811   3.376   2.809
 6714WAT     H220385   1.935   3.279   2.764
 6715WAT      O20386   9.559   7.615   8.083
 6715WAT     H120387   9.653   7.581   8.090
 6715WAT     H220388   9.546   7.658   7.994
 6716WAT      O20389   7.617   6.867   5.044
 6716WAT     H120390   7.704   6.896   5.004
 6716WAT     H220391   7.588   6.781   5.003
 6717WAT      O20392   9.549   6.288   8.253
 6717WAT     H120393   9.583   6.332   8.336
 6717WAT     H220394   9.475   6.344   8.214
 6718WAT      O20395   0.059   6.900   3.457
 6718WAT     H120396  -0.018   6.948   3.499
 6718WAT     H220397   0.127   6.966   3.426
 6719WAT      O20398   1.922   9.213   7.167
 6719WAT     H120399   1.943   9.140   7.232
 6719WAT     H220400   1.825   9.236   7.171
 6720WAT      O20401   3.442   2.226   5.888
 6720WAT     H120402   3.401   2.310   5.923
 6720WAT     H220403   3.459   2.235   5.790
 6721WAT      O20404   1.120   8.150   2.522
 6721WAT     H120405   1.165   8.123   2.607
 6721WAT     H220406   1.186   8.192   2.461
 6722WAT      O20407   8.291   3.782   9.391
 6722WAT     H120408   8.309   3.854   9.458
 6722WAT     H220409   8.337   3.804   9.305
 6723WAT      O20410   7.459   9.209   9.872
 6723WAT     H120411   7.532   9.185   9.936
 6723WAT     H220412   7.434   9.305   9.884
 6724WAT      O20413   1.449   4.680   0.660
 6724WAT     H120414   1.484   4.774   0.655
 6724WAT     H220415   1.451   4.639   0.570
 6725WAT      O20416   0.598   1.620   5.424
 6725WAT     H120417   0.591   1.719   5.419
 6725WAT     H220418   0.559   1.587   5.510
 6726WAT      O20419   0.817   5.667   5.238
 6726WAT     H120420   0.783   5.732   5.169
 6726WAT     H220421   0.902   5.626   5.206
 6727WAT      O20422   8.456   6.924   3.671
 6727WAT     H120423   8.484   7.003   3.725
 6727WAT     H220424   8.369   6.889   3.705
 6728WAT      O20425   4.068   1.678   7.810
 6728WAT     H120426   4.136   1.678   7.884
 6728WAT     H220427   4.102   1.733   7.734
 6729WAT      O20428   0.396   9.342   7.777
 6729WAT     H120429   0.303   9.311   7.796
 6729WAT     H220430   0.400   9.442   7.783
 6730WAT      O20431   9.698   5.760   3.985
 6730WAT     H120432   9.767   5.758   3.913
 6730WAT     H220433   9.726   5.699   4.059
 6731WAT      O20434   3.703   8.475   1.619
 6731WAT     H120435   3.724   8.569   1.593
 6731WAT     H220436   3.615   8.449   1.579
 6732WAT      O20437   8.978   4.350   2.632
 6732WAT     H120438   9.005   4.438   2.593
 6732WAT     H220439   9.030   4.333   2.715
 6733WAT      O20440   4.453   1.621   7.791
 6733WAT     H120441   4.409   1.709   7.807
 6733WAT     H220442   4.384   1.549   7.794
 6734WAT      O20443   7.090   8.945   7.330
 6734WAT     H120444   7.106   9.015   7.262
 6734WAT     H220445   6.996   8.952   7.365
 6735WAT      O20446   7.490   4.085   9.776
 6735WAT     H120447   7.472   4.149   9.851
 6735WAT     H220448   7.579   4.042   9.790
 6736WAT      O20449   2.791   6.830   9.554
 6736WAT     H120450   2.719   6.865   9.494
 6736WAT     H220451   2.762   6.742   9.592
 6737WAT      O20452   4.359   3.974   9.506
 6737WAT     H120453   4.405   3.960   9.594
 6737WAT     H220454   4.282   4.037   9.518
 6738WAT      O20455   9.023   7.916   9.153
 6738WAT     H120456   8.949   7.965   9.106
 6738WAT     H220457   9.087   7.880   9.085
 6739WAT      O20458   5.510   5.544   4.777
 6739WAT     H120459   5.426   5.499   4.810
 6739WAT     H220460   5.486   5.611   4.708
 6740WAT      O20461   3.214   4.025   4.789
 6740WAT     H120462   3.277   4.088   4.746
 6740WAT     H220463   3.154   3.984   4.719
 6741WAT      O20464   2.494   2.603   0.961
 6741WAT     H120465   2.481   2.638   0.869
 6741WAT     H220466   2.412   2.552   0.989
 6742WAT      O20467   4.658   6.551   4.626
 6742WAT     H120468   4.569   6.528   4.666
 6742WAT     H220469   4.725   6.484   4.657
 6743WAT      O20470   3.052   4.758   7.151
 6743WAT     H120471   3.106   4.838   7.176
 6743WAT     H220472   3.114   4.684   7.121
 6744WAT      O20473   5.143   3.106   5.488
 6744WAT     H120474   5.144   3.007   5.503
 6744WAT     H220475   5.095   3.150   5.564
 6745WAT      O20476   5.027   2.354   4.215
 6745WAT     H120477   5.016   2.315   4.124
 6745WAT     H220478   4.968   2.434   4.224
 6746WAT      O20479   2.843   3.056   8.967
 6746WAT     H120480   2.761   3.112   8.972
 6746WAT     H220481   2.853   3.018   8.875
 6747WAT      O20482   1.176   8.594   2.348
 6747WAT     H120483   1.140   8.549   2.429
 6747WAT     H220484   1.101   8.614   2.285
 6748WAT      O20485   0.625   4.233   7.505
 6748WAT     H120486   0.645   4.290   7.425
 6748WAT     H220487   0.622   4.137   7.478
 6749WAT      O20488   6.133   6.893   0.040
 6749WAT     H120489   6.155   6.946  -0.042
 6749WAT     H220490   6.066   6.943   0.095
 6750WAT      O20491   9.662   1.333   7.043
 6750WAT     H120492   9.611   1.367   6.964
 6750WAT     H220493   9.610   1.348   7.127
 6751WAT      O20494   8.726   9.571   4.242
 6751WAT     H120495   8.653   9.589   4.177
 6751WAT     H220496   8.698   9.497   4.304
 6752WAT      O20497   2.955   0.903   4.941
 6752WAT     H120498   2.930   0.807   4.942
 6752WAT     H220499   2.918   0.946   4.859
 6753WAT      O20500   5.914   3.748   9.764
 6753WAT     H120501   5.882   3.810   9.692
 6753WAT     H220502   6.014   3.741   9.760
 6754WAT      O20503   3.429   1.277   6.333
 6754WAT     H120504   3.501   1.225   6.379
 6754WAT     H220505   3.443   1.375   6.349
 6755WAT      O20506   2.546   6.395   3.184
 6755WAT     H120507   2.525   6.314   3.130
 6755WAT     H220508   2.619   6.447   3.140
 6756WAT      O20509   7.978   4.390   4.577
 6756WAT     H120510   7.959   4.304   4.529
 6756WAT     H220511   8.014   4.457   4.513
 6757WAT      O20512   6.330   6.417   3.010
 6757WAT     H120513   6.416   6.422   2.960
 6757WAT     H220514   6.342   6.459   3.100
 6758WAT      O20515   7.261   0.216   1.568
 6758WAT     H120516   7.168   0.251   1.557
 6758WAT     H220517   7.269   0.126   1.527
 6759WAT      O20518   9.553   7.415   3.234
 6759WAT     H120519   9.632   7.360   3.261
 6759WAT     H220520   9.493   7.361   3.175
 6760WAT      O20521   4.276   5.942   1.405
 6760WAT     H120522   4.353   5.879   1.400
 6760WAT     H220523   4.197   5.895   1.446
 6761WAT      O20524   2.696   7.302   3.390
 6761WAT     H120525   2.654   7.234   3.331
 6761WAT     H220526   2.714   7.385   3.338
 6762WAT      O20527   3.318   8.610   3.425
 6762WAT     H120528   3.289   8.563   3.509
 6762WAT     H220529   3.238   8.645   3.377
 6763WAT      O20530   4.610   5.308   1.366
 6763WAT     H120531   4.548   5.382   1.392
 6763WAT     H220532   4.695   5.316   1.417
 6764WAT      O20533   4.040   4.197   1.349
 6764WAT     H120534   3.958   4.160   1.306
 6764WAT     H220535   4.071   4.277   1.297
 6765WAT      O20536   3.319   8.584   0.155
 6765WAT     H120537   3.402   8.591   0.210
 6765WAT     H220538   3.285   8.490   0.157
 6766WAT      O20539   1.119   2.751   6.487
 6766WAT     H120540   1.071   2.833   6.456
 6766WAT     H220541   1.155   2.701   6.408
 6767WAT      O20542   1.773   3.528   4.825
 6767WAT     H120543   1.873   3.536   4.831
 6767WAT     H220544   1.749   3.450   4.768
 6768WAT      O20545   0.781   3.577   1.112
 6768WAT     H120546   0.754   3.632   1.033
 6768WAT     H220547   0.761   3.480   1.094
 6769WAT      O20548   4.046   0.575   6.332
 6769WAT     H120549   4.113   0.582   6.406
 6769WAT     H220550   4.091   0.589   6.244
 6770WAT      O20551   0.283   6.546   1.459
 6770WAT     H120552   0.192   6.522   1.424
 6770WAT     H220553   0.332   6.599   1.390
 6771WAT      O20554   4.462   1.454   4.670
 6771WAT     H120555   4.396   1.439   4.597
 6771WAT     H220556   4.464   1.374   4.731
 6772WAT      O20557   2.672   0.448   0.071
 6772WAT     H120558   2.719   0.504   0.002
 6772WAT     H220559   2.583   0.419   0.035
 6773WAT      O20560   9.174   6.614   2.252
 6773WAT     H120561   9.180   6.520   2.218
 6773WAT     H220562   9.253   6.634   2.309
 6774WAT      O20563   2.188   3.559   8.429
 6774WAT     H120564   2.153   3.611   8.507
 6774WAT     H220565   2.224   3.622   8.361
 6775WAT      O20566   9.845   4.653   8.830
 6775WAT     H120567   9.923   4.678   8.888
 6775WAT     H220568   9.878   4.609   8.747
 6776WAT      O20569   3.739   3.819   6.838
 6776WAT     H120570   3.665   3.873   6.799
 6776WAT     H220571   3.772   3.862   6.922
 6777WAT      O20572   7.199   7.672   4.345
 6777WAT     H120573   7.108   7.646   4.312
 6777WAT     H220574   7.257   7.591   4.350
 6778WAT      O20575   2.231   8.827   1.098
 6778WAT     H120576   2.330   8.842   1.096
 6778WAT     H220577   2.210   8.739   1.055
 6779WAT      O20578   0.505   6.367   4.528
 6779WAT     H120579   0.445   6.297   4.565
 6779WAT     H220580   0.554   6.412   4.602
 6780WAT      O20581   4.112   9.645   8.396
 6780WAT     H120582   4.096   9.713   8.324
 6780WAT     H220583   4.172   9.683   8.466
 6781WAT      O20584   9.497   4.040   7.801
 6781WAT     H120585   9.575   3.985   7.773
 6781WAT     H220586   9.451   4.076   7.719
 6782WAT      O20587   0.825   3.626   8.798
 6782WAT     H120588   0.869   3.663   8.716
 6782WAT     H220589   0.798   3.531   8.781
 6783WAT      O20590   7.635   9.084   5.842
 6783WAT     H120591   7.629   9.054   5.938
 6783WAT     H220592   7.561   9.148   5.822
 6784WAT      O20593   3.050   1.982   4.523
 6784WAT     H120594   3.097   1.893   4.524
 6784WAT     H220595   3.011   1.998   4.432
 6785WAT      O20596   6.908   6.657   0.967
 6785WAT     H120597   6.865   6.718   1.035
 6785WAT     H220598   6.917   6.706   0.880
 6786WAT      O20599   1.987   3.220   9.684
 6786WAT     H120600   2.057   3.291   9.670
 6786WAT     H220601   2.020   3.133   9.647
 6787WAT      O20602   6.613   0.633   1.931
 6787WAT     H120603   6.655   0.664   2.016
 6787WAT     H220604   6.613   0.708   1.865
 6788WAT      O20605   8.671   0.137   3.329
 6788WAT     H120606   8.625   0.226   3.324
 6788WAT     H220607   8.689   0.113   3.424
 6789WAT      O20608   6.359   7.879   5.643
 6789WAT     H120609   6.401   7.803   5.592
 6789WAT     H220610   6.424   7.954   5.650
 6790WAT      O20611   5.900   5.673   6.558
 6790WAT     H120612   5.915   5.577   6.580
 6790WAT     H220613   5.954   5.697   6.477
 6791WAT      O20614   7.900   2.747   2.571
 6791WAT     H120615   7.825   2.813   2.568
 6791WAT     H220616   7.867   2.658   2.538
 6792WAT      O20617   1.656   5.340   3.934
 6792WAT     H120618   1.570   5.390   3.942
 6792WAT     H220619   1.731   5.406   3.923
 6793WAT      O20620   3.440   0.700   6.138
 6793WAT     H120621   3.495   0.727   6.059
 6793WAT     H220622   3.404   0.607   6.124
 6794WAT      O20623   5.812   2.506   5.151
 6794WAT     H120624   5.712   2.509   5.153
 6794WAT     H220625   5.847   2.584   5.100
 6795WAT      O20626   7.844   7.046   0.604
 6795WAT     H120627   7.794   7.086   0.528
 6795WAT     H220628   7.788   6.976   0.648
 6796WAT      O20629   7.317   5.373   2.000
 6796WAT     H120630   7.262   5.443   2.047
 6796WAT     H220631   7.260   5.326   1.933
 6797WAT      O20632   5.378   9.554   6.051
 6797WAT     H120633   5.455   9.617   6.054
 6797WAT     H220634   5.410   9.461   6.070
 6798WAT      O20635   1.195   7.097   4.879
 6798WAT     H120636   1.225   7.028   4.813
 6798WAT     H220637   1.124   7.154   4.837
 6799WAT      O20638   7.892   2.544   0.792
 6799WAT     H120639   7.976   2.496   0.818
 6799WAT     H220640   7.914   2.640   0.771
 6800WAT      O20641   9.751   1.142   5.165
 6800WAT     H120642   9.686   1.200   5.214
 6800WAT     H220643   9.717   1.047   5.166
 6801WAT      O20644   5.810   1.177   6.837
 6801WAT     H120645   5.901   1.176   6.797
 6801WAT     H220646   5.742   1.179   6.764
 6802WAT      O20647   6.928   1.798   2.480
 6802WAT     H120648   6.986   1.764   2.554
 6802WAT     H220649   6.915   1.896   2.491
 6803WAT      O20650   1.391   7.694   3.854
 6803WAT     H120651   1.409   7.615   3.794
 6803WAT     H220652   1.298   7.728   3.837
 6804WAT      O20653   1.004   9.431   7.328
 6804WAT     H120654   0.977   9.524   7.353
 6804WAT     H220655   1.102   9.420   7.344
 6805WAT      O20656   4.187   8.210   1.300
 6805WAT     H120657   4.220   8.269   1.373
 6805WAT     H220658   4.111   8.155   1.334
 6806WAT      O20659   3.963   2.384   9.832
 6806WAT     H120660   4.047   2.431   9.805
 6806WAT     H220661   3.885   2.443   9.813
 6807WAT      O20662   6.077   1.685   3.238
 6807WAT     H120663   6.017   1.690   3.158
 6807WAT     H220664   6.063   1.766   3.295
 6808WAT      O20665   3.855   8.066   9.456
 6808WAT     H120666   3.833   7.971   9.432
 6808WAT     H220667   3.771   8.115   9.479
 6809WAT      O20668   4.048   7.591   5.767
 6809WAT     H120669   4.104   7.568   5.847
 6809WAT     H220670   4.077   7.680   5.730
 6810WAT      O20671   6.074   0.469   5.191
 6810WAT     H120672   6.081   0.430   5.099
 6810WAT     H220673   6.126   0.554   5.196
 6811WAT      O20674   7.871   3.254   2.479
 6811WAT     H120675   7.934   3.188   2.438
 6811WAT     H220676   7.777   3.228   2.457
 6812WAT      O20677   1.188   7.290   9.692
 6812WAT     H120678   1.110   7.352   9.698
 6812WAT     H220679   1.270   7.337   9.724
 6813WAT      O20680   7.249   5.635   7.392
 6813WAT     H120681   7.154   5.666   7.402
 6813WAT     H220682   7.306   5.714   7.370
 6814WAT      O20683   4.736   1.461   5.240
 6814WAT     H120684   4.774   1.513   5.163
 6814WAT     H220685   4.637   1.455   5.229
 6815WAT      O20686   6.979   0.288   3.824
 6815WAT     H120687   6.967   0.341   3.908
 6815WAT     H220688   7.009   0.348   3.751
 6816WAT      O20689   8.075   7.608   1.610
 6816WAT     H120690   8.119   7.599   1.521
 6816WAT     H220691   8.136   7.655   1.674
 6817WAT      O20692   9.329   0.486   2.297
 6817WAT     H120693   9.355   0.557   2.232
 6817WAT     H220694   9.406   0.423   2.311
 6818WAT      O20695   8.714   6.952   1.494
 6818WAT     H120696   8.685   6.883   1.427
 6818WAT     H220697   8.764   6.908   1.569
 6819WAT      O20698   7.920   4.207   5.364
 6819WAT     H120699   8.001   4.149   5.352
 6819WAT     H220700   7.858   4.164   5.428
 6820WAT      O20701   0.413   1.915   0.380
 6820WAT     H120702   0.429   1.871   0.468
 6820WAT     H220703   0.348   1.990   0.391
 6821WAT      O20704   9.185   9.613   0.266
 6821WAT     H120705   9.193   9.643   0.361
 6821WAT     H220706   9.124   9.674   0.216
 6822WAT      O20707   7.180   3.060   1.317
 6822WAT     H120708   7.154   3.156   1.319
 6822WAT     H220709   7.213   3.037   1.225
 6823WAT      O20710   7.587   7.643   4.845
 6823WAT     H120711   7.626   7.624   4.936
 6823WAT     H220712   7.492   7.671   4.856
 6824WAT      O20713   8.067   9.530   6.580
 6824WAT     H120714   7.973   9.532   6.547
 6824WAT     H220715   8.118   9.457   6.533
 6825WAT      O20716   4.507   2.821   0.287
 6825WAT     H120717   4.598   2.802   0.252
 6825WAT     H220718   4.439   2.769   0.235
 6826WAT      O20719   7.875   7.902   6.778
 6826WAT     H120720   7.779   7.901   6.749
 6826WAT     H220721   7.921   7.821   6.744
 6827WAT      O20722   7.943   6.743   1.509
 6827WAT     H120723   7.960   6.647   1.531
 6827WAT     H220724   7.845   6.758   1.500
 6828WAT      O20725   4.177   5.045   6.464
 6828WAT     H120726   4.141   5.135   6.441
 6828WAT     H220727   4.142   5.017   6.553
 6829WAT      O20728   8.687   3.117   7.710
 6829WAT     H120729   8.659   3.031   7.667
 6829WAT     H220730   8.677   3.110   7.809
 6830WAT      O20731   4.480   1.979   1.404
 6830WAT     H120732   4.405   2.045   1.396
 6830WAT     H220733   4.451   1.892   1.364
 6831WAT      O20734   6.076   9.292   1.668
 6831WAT     H120735   5.995   9.243   1.635
 6831WAT     H220736   6.108   9.250   1.753
 6832WAT      O20737   5.591   7.048   0.105
 6832WAT     H120738   5.626   7.122   0.047
 6832WAT     H220739   5.643   7.045   0.190
 6833WAT      O20740   7.628   7.491   9.371
 6833WAT     H120741   7.530   7.484   9.392
 6833WAT     H220742   7.666   7.400   9.357
 6834WAT      O20743   5.766   7.141   6.827
 6834WAT     H120744   5.674   7.154   6.863
 6834WAT     H220745   5.765   7.154   6.728
 6835WAT      O20746   6.637   5.598   3.483
 6835WAT     H120747   6.552   5.632   3.522
 6835WAT     H220748   6.671   5.521   3.537
 6836WAT      O20749   1.582   3.570   7.463
 6836WAT     H120750   1.499   3.626   7.455
 6836WAT     H220751   1.659   3.628   7.491
 6837WAT      O20752   7.516   1.253   1.622
 6837WAT     H120753   7.478   1.232   1.532
 6837WAT     H220754   7.502   1.349   1.643
 6838WAT      O20755   4.570   1.077   0.714
 6838WAT     H120756   4.523   1.036   0.636
 6838WAT     H220757   4.640   1.014   0.748
 6839WAT      O20758   4.376   5.584   0.031
 6839WAT     H120759   4.307   5.628  -0.027
 6839WAT     H220760   4.374   5.626   0.122
 6840WAT      O20761   7.084   8.399   8.086
 6840WAT     H120762   7.073   8.482   8.141
 6840WAT     H220763   6.996   8.354   8.075
 6841WAT      O20764   6.438   0.439   3.529
 6841WAT     H120765   6.434   0.539   3.522
 6841WAT     H220766   6.348   0.400   3.512
 6842WAT      O20767   3.032   3.137   8.126
 6842WAT     H120768   3.034   3.145   8.225
 6842WAT     H220769   2.977   3.211   8.088
 6843WAT      O20770   5.672   6.652   3.896
 6843WAT     H120771   5.765   6.624   3.919
 6843WAT     H220772   5.623   6.575   3.855
 6844WAT      O20773   5.605   8.592   8.283
 6844WAT     H120774   5.522   8.616   8.334
 6844WAT     H220775   5.651   8.676   8.255
 6845WAT      O20776   2.612   5.588   2.907
 6845WAT     H120777   2.685   5.591   2.839
 6845WAT     H220778   2.566   5.677   2.911
 6846WAT      O20779   6.860   4.678   5.169
 6846WAT     H120780   6.827   4.770   5.151
 6846WAT     H220781   6.803   4.612   5.120
 6847WAT      O20782   5.273   0.301   5.346
 6847WAT     H120783   5.231   0.247   5.420
 6847WAT     H220784   5.334   0.370   5.386
 6848WAT      O20785   5.586   6.510   4.223
 6848WAT     H120786   5.543   6.489   4.312
 6848WAT     H220787   5.518   6.500   4.151
 6849WAT      O20788   0.320   3.293   4.210
 6849WAT     H120789   0.356   3.208   4.171
 6849WAT     H220790   0.288   3.276   4.304
 6850WAT      O20791   9.842   7.296   5.679
 6850WAT     H120792   9.837   7.197   5.687
 6850WAT     H220793   9.869   7.335   5.767
 6851WAT      O20794   3.550   7.703   7.435
 6851WAT     H120795   3.455   7.714   7.406
 6851WAT     H220796   3.559   7.735   7.529
 6852WAT      O20797   5.448   5.214   7.826
 6852WAT     H120798   5.397   5.215   7.912
 6852WAT     H220799   5.527   5.153   7.834
 6853WAT      O20800   7.314   8.325   7.569
 6853WAT     H120801   7.242   8.282   7.514
 6853WAT     H220802   7.277   8.348   7.659
 6854WAT      O20803   9.730   3.510   8.581
 6854WAT     H120804   9.800   3.536   8.514
 6854WAT     H220805   9.732   3.411   8.594
 6855WAT      O20806   1.428   1.005   5.885
 6855WAT     H120807   1.426   0.963   5.794
 6855WAT     H220808   1.517   0.988   5.928
 6856WAT      O20809   3.751   8.747   3.973
 6856WAT     H120810   3.778   8.708   4.061
 6856WAT     H220811   3.791   8.693   3.899
 6857WAT      O20812   4.464   1.878   9.257
 6857WAT     H120813   4.476   1.870   9.356
 6857WAT     H220814   4.490   1.970   9.227
 6858WAT      O20815   2.325   9.204   0.488
 6858WAT     H120816   2.416   9.217   0.449
 6858WAT     H220817   2.261   9.174   0.417
 6859WAT      O20818   4.910   2.060   6.771
 6859WAT     H120819   4.900   2.117   6.852
 6859WAT     H220820   4.839   2.085   6.704
 6860WAT      O20821   5.281   9.483   2.329
 6860WAT     H120822   5.276   9.386   2.354
 6860WAT     H220823   5.356   9.497   2.264
 6861WAT      O20824   2.672   9.776   9.257
 6861WAT     H120825   2.575   9.756   9.268
 6861WAT     H220826   2.713   9.790   9.347
 6862WAT      O20827   4.437   4.845   7.467
 6862WAT     H120828   4.392   4.932   7.450
 6862WAT     H220829   4.517   4.836   7.407
 6863WAT      O20830   2.301   4.077   1.200
 6863WAT     H120831   2.365   4.048   1.128
 6863WAT     H220832   2.208   4.073   1.164
 6864WAT      O20833   9.192   5.096   7.581
 6864WAT     H120834   9.105   5.113   7.628
 6864WAT     H220835   9.265   5.088   7.648
 6865WAT      O20836   9.264   7.057   2.261
 6865WAT     H120837   9.165   7.042   2.259
 6865WAT     H220838   9.300   7.051   2.169
 6866WAT      O20839   9.126   1.194   0.347
 6866WAT     H120840   9.066   1.232   0.277
 6866WAT     H220841   9.098   1.227   0.437
 6867WAT      O20842   1.068   4.900   4.564
 6867WAT     H120843   1.123   4.930   4.487
 6867WAT     H220844   1.010   4.975   4.596
 6868WAT      O20845   8.523   8.612   3.747
 6868WAT     H120846   8.440   8.558   3.733
 6868WAT     H220847   8.596   8.553   3.782
 6869WAT      O20848   2.485   1.414   6.378
 6869WAT     H120849   2.556   1.441   6.312
 6869WAT     H220850   2.511   1.329   6.422
 6870WAT      O20851   2.287   3.166   0.687
 6870WAT     H120852   2.266   3.262   0.671
 6870WAT     H220853   2.343   3.131   0.612
 6871WAT      O20854   5.611   1.142   7.739
 6871WAT     H120855   5.559   1.058   7.758
 6871WAT     H220856   5.551   1.208   7.693
 6872WAT      O20857   3.019   4.115   2.800
 6872WAT     H120858   3.073   4.166   2.867
 6872WAT     H220859   3.078   4.089   2.724
 6873WAT      O20860   5.624   3.987   8.385
 6873WAT     H120861   5.553   3.996   8.314
 6873WAT     H220862   5.712   3.971   8.341
 6874WAT      O20863   5.594   2.509   1.871
 6874WAT     H120864   5.542   2.497   1.786
 6874WAT     H220865   5.673   2.568   1.854
 6875WAT      O20866   4.007   8.556   4.981
 6875WAT     H120867   4.031   8.628   4.916
 6875WAT     H220868   4.026   8.467   4.940
 6876WAT      O20869   9.825   7.869   3.288
 6876WAT     H120870   9.803   7.780   3.327
 6876WAT     H220871   9.916   7.866   3.245
 6877WAT      O20872   4.044   0.118   4.660
 6877WAT     H120873   4.084   0.182   4.594
 6877WAT     H220874   4.082   0.137   4.751
 6878WAT      O20875   2.400   7.387   6.858
 6878WAT     H120876   2.369   7.376   6.764
 6878WAT     H220877   2.490   7.431   6.859
 6879WAT      O20878   5.412   3.862   7.565
 6879WAT     H120879   5.398   3.810   7.480
 6879WAT     H220880   5.467   3.943   7.545
 6880WAT      O20881   0.344   3.853   9.592
 6880WAT     H120882   0.247   3.849   9.617
 6880WAT     H220883   0.399   3.814   9.664
 6881WAT      O20884   9.117   1.794   2.156
 6881WAT     H120885   9.055   1.855   2.109
 6881WAT     H220886   9.174   1.746   2.089
 6882WAT      O20887   5.327   3.370   8.113
 6882WAT     H120888   5.300   3.328   8.026
 6882WAT     H220889   5.321   3.302   8.186
 6883WAT      O20890   0.090   8.836   2.452
 6883WAT     H120891   0.041   8.815   2.537
 6883WAT     H220892   0.161   8.767   2.437
 6884WAT      O20893   9.747   4.214   8.254
 6884WAT     H120894   9.779   4.302   8.217
 6884WAT     H220895   9.821   4.147   8.248
 6885WAT      O20896   6.598   6.191   6.860
 6885WAT     H120897   6.583   6.204   6.762
 6885WAT     H220898   6.589   6.279   6.907
 6886WAT      O20899   2.355   8.303   1.411
 6886WAT     H120900   2.385   8.378   1.353
 6886WAT     H220901   2.408   8.302   1.495
 6887WAT      O20902   4.197   2.489   9.767
 6887WAT     H120903   4.293   2.487   9.792
 6887WAT     H220904   4.187   2.480   9.668
 6888WAT      O20905   5.883   9.162   1.561
 6888WAT     H120906   5.812   9.210   1.511
 6888WAT     H220907   5.842   9.089   1.615
 6889WAT      O20908   5.347   4.937   1.440
 6889WAT     H120909   5.415   4.948   1.512
 6889WAT     H220910   5.389   4.893   1.361
 6890WAT      O20911   7.023   0.710   4.354
 6890WAT     H120912   6.989   0.617   4.369
 6890WAT     H220913   7.116   0.707   4.318
 6891WAT      O20914   1.108   5.373   1.713
 6891WAT     H120915   1.024   5.337   1.674
 6891WAT     H220916   1.130   5.460   1.669
 6892WAT      O20917   0.765   4.376   2.159
 6892WAT     H120918   0.739   4.472   2.168
 6892WAT     H220919   0.821   4.364   2.077
 6893WAT      O20920   4.294   2.453   7.335
 6893WAT     H120921   4.290   2.479   7.432
 6893WAT     H220922   4.293   2.354   7.326
 6894WAT      O20923   7.749   1.232   8.967
 6894WAT     H120924   7.677   1.184   9.017
 6894WAT     H220925   7.827   1.170   8.953
 6895WAT      O20926   4.677   8.255   1.379
 6895WAT     H120927   4.643   8.323   1.314
 6895WAT     H220928   4.777   8.263   1.387
 6896WAT      O20929   0.833   4.953   4.014
 6896WAT     H120930   0.783   4.991   3.936
 6896WAT     H220931   0.912   4.902   3.981
 6897WAT      O20932   4.608   1.258   3.167
 6897WAT     H120933   4.685   1.257   3.231
 6897WAT     H220934   4.588   1.165   3.137
 6898WAT      O20935   2.149   3.320   6.606
 6898WAT     H120936   2.074   3.351   6.548
 6898WAT     H220937   2.116   3.306   6.699
 6899WAT      O20938   8.239   8.953   9.363
 6899WAT     H120939   8.256   9.020   9.290
 6899WAT     H220940   8.316   8.890   9.369
 6900WAT      O20941   5.494   0.021   0.430
 6900WAT     H120942   5.465   0.077   0.353
 6900WAT     H220943   5.491  -0.075   0.404
 6901WAT      O20944   8.394   8.788   9.068
 6901WAT     H120945   8.346   8.729   9.004
 6901WAT     H220946   8.368   8.764   9.162
 6902WAT      O20947   0.247   6.706   1.228
 6902WAT     H120948   0.161   6.663   1.201
 6902WAT     H220949   0.236   6.805   1.232
 6903WAT      O20950   2.500   0.123   5.211
 6903WAT     H120951   2.525   0.166   5.298
 6903WAT     H220952   2.409   0.083   5.219
 6904WAT      O20953   5.045   0.609   9.567
 6904WAT     H120954   4.968   0.665   9.597
 6904WAT     H220955   5.014   0.516   9.549
 6905WAT      O20956   4.526   9.567   4.517
 6905WAT     H120957   4.430   9.593   4.510
 6905WAT     H220958   4.580   9.647   4.544
 6906WAT      O20959   3.097   6.588   9.562
 6906WAT     H120960   3.150   6.596   9.477
 6906WAT     H220961   3.001   6.570   9.540
 6907WAT      O20962   7.290   8.048   8.937
 6907WAT     H120963   7.362   8.084   8.878
 6907WAT     H220964   7.231   7.987   8.883
 6908WAT      O20965   5.468   9.377   0.978
 6908WAT     H120966   5.513   9.457   1.017
 6908WAT     H220967   5.383   9.359   1.027
 6909WAT      O20968   1.861   1.224   7.584
 6909WAT     H120969   1.797   1.300   7.590
 6909WAT     H220970   1.948   1.250   7.627
 6910WAT      O20971   2.508   7.746   0.552
 6910WAT     H120972   2.479   7.841   0.564
 6910WAT     H220973   2.608   7.741   0.563
 6911WAT      O20974   2.776   5.570   8.716
 6911WAT     H120975   2.699   5.511   8.692
 6911WAT     H220976   2.860   5.515   8.722
 6912WAT      O20977   7.262   4.573   2.168
 6912WAT     H120978   7.304   4.628   2.096
 6912WAT     H220979   7.251   4.628   2.251
 6913WAT      O20980   9.797   6.755   3.283
 6913WAT     H120981   9.839   6.778   3.370
 6913WAT     H220982   9.817   6.826   3.216
 6914WAT      O20983   8.586   8.608   6.937
 6914WAT     H120984   8.539   8.524   6.910
 6914WAT     H220985   8.536   8.687   6.901
 6915WAT      O20986   3.305   2.121   6.763
 6915WAT     H120987   3.331   2.151   6.671
 6915WAT     H220988   3.244   2.189   6.804
 6916WAT      O20989   6.158   4.479   2.078
 6916WAT     H120990   6.185   4.564   2.121
 6916WAT     H220991   6.239   4.426   2.054
 6917WAT      O20992   0.522   5.158   6.317
 6917WAT     H120993   0.570   5.160   6.229
 6917WAT     H220994   0.482   5.068   6.331
 6918WAT      O20995   6.949   1.753   3.239
 6918WAT     H120996   6.916   1.741   3.333
 6918WAT     H220997   6.883   1.806   3.187
 6919WAT      O20998   0.989   5.127   7.215
 6919WAT     H120999   0.961   5.098   7.123
 6919WAT     H221000   0.912   5.115   7.278
 6920WAT      O21001   2.622   3.500   9.841
 6920WAT     H121002   2.622   3.434   9.916
 6920WAT     H221003   2.701   3.561   9.851
 6921WAT      O21004   1.871   0.907   6.223
 6921WAT     H121005   1.963   0.880   6.194
 6921WAT     H221006   1.819   0.940   6.144
 6922WAT      O21007   8.239   9.249   4.075
 6922WAT     H121008   8.264   9.188   4.000
 6922WAT     H221009   8.313   9.316   4.090
 6923WAT      O21010   6.204   7.417   8.026
 6923WAT     H121011   6.217   7.515   8.043
 6923WAT     H221012   6.235   7.365   8.106
 6924WAT      O21013   5.896   3.615   8.213
 6924WAT     H121014   5.797   3.614   8.196
 6924WAT     H221015   5.940   3.547   8.154
 6925WAT      O21016   9.208   4.099   6.509
 6925WAT     H121017   9.293   4.109   6.458
 6925WAT     H221018   9.175   4.004   6.501
 6926WAT      O21019   0.931   8.849   0.991
 6926WAT     H121020   0.996   8.844   1.068
 6926WAT     H221021   0.861   8.778   1.003
 6927WAT      O21022   1.605   9.779   9.048
 6927WAT     H121023   1.576   9.847   9.115
 6927WAT     H221024   1.627   9.694   9.095
 6928WAT      O21025   2.389   0.479   0.108
 6928WAT     H121026   2.412   0.382   0.101
 6928WAT     H221027   2.442   0.520   0.182
 6929WAT      O21028   3.832   8.690   8.526
 6929WAT     H121029   3.890   8.651   8.597
 6929WAT     H221030   3.800   8.617   8.465
 6930WAT      O21031   4.008   0.955   5.129
 6930WAT     H121032   4.041   0.861   5.127
 6930WAT     H221033   3.929   0.961   5.190
 6931WAT      O21034   1.230   1.061   7.010
 6931WAT     H121035   1.294   1.129   6.973
 6931WAT     H221036   1.174   1.104   7.081
 6932WAT      O21037   4.144   6.545   7.039
 6932WAT     H121038   4.188   6.565   6.951
 6932WAT     H221039   4.071   6.611   7.055
 6933WAT      O21040   3.063   2.576   7.490
 6933WAT     H121041   3.095   2.535   7.575
 6933WAT     H221042   3.009   2.657   7.510
 6934WAT      O21043   3.081   3.778   1.765
 6934WAT     H121044   3.097   3.805   1.670
 6934WAT     H221045   3.161   3.730   1.800
 6935WAT      O21046   2.705   2.339   1.498
 6935WAT     H121047   2.696   2.437   1.477
 6935WAT     H221048   2.801   2.313   1.493
 6936WAT      O21049   6.320   0.011   0.036
 6936WAT     H121050   6.387  -0.045  -0.013
 6936WAT     H221051   6.365   0.095   0.067
 6937WAT      O21052   5.813   7.791   0.407
 6937WAT     H121053   5.816   7.700   0.450
 6937WAT     H221054   5.747   7.790   0.332
 6938WAT      O21055   9.666   3.639   4.065
 6938WAT     H121056   9.614   3.569   4.115
 6938WAT     H221057   9.755   3.652   4.109
 6939WAT      O21058   8.980   5.511   2.070
 6939WAT     H121059   9.041   5.501   1.992
 6939WAT     H221060   8.885   5.507   2.038
 6940WAT      O21061   2.795   7.479   4.791
 6940WAT     H121062   2.701   7.451   4.810
 6940WAT     H221063   2.836   7.415   4.726
 6941WAT      O21064   4.981   3.547   6.432
 6941WAT     H121065   5.073   3.558   6.395
 6941WAT     H221066   4.966   3.614   6.505
 6942WAT      O21067   5.732   9.183   2.998
 6942WAT     H121068   5.641   9.208   3.032
 6942WAT     H221069   5.736   9.084   2.983
 6943WAT      O21070   6.790   5.077   3.335
 6943WAT     H121071   6.827   5.120   3.253
 6943WAT     H221072   6.690   5.088   3.336
 6944WAT      O21073   2.809   1.934   9.434
 6944WAT     H121074   2.714   1.902   9.439
 6944WAT     H221075   2.811   2.034   9.430
 6945WAT      O21076   6.797   8.573   8.629
 6945WAT     H121077   6.766   8.579   8.534
 6945WAT     H221078   6.876   8.633   8.642
 6946WAT      O21079   3.715   8.312   8.624
 6946WAT     H121080   3.773   8.360   8.557
 6946WAT     H221081   3.755   8.223   8.644
 6947WAT      O21082   4.225   6.441   8.477
 6947WAT     H121083   4.260   6.534   8.472
 6947WAT     H221084   4.182   6.416   8.390
 6948WAT      O21085   4.872   8.407   5.506
 6948WAT     H121086   4.931   8.432   5.429
 6948WAT     H221087   4.910   8.327   5.553
 6949WAT      O21088   2.457   3.466   2.864
 6949WAT     H121089   2.424   3.372   2.851
 6949WAT     H221090   2.504   3.472   2.952
 6950WAT      O21091   3.859   7.167   8.143
 6950WAT     H121092   3.874   7.070   8.157
 6950WAT     H221093   3.946   7.216   8.147
 6951WAT      O21094   3.913   2.125   0.044
 6951WAT     H121095   3.908   2.056  -0.029
 6951WAT     H221096   3.920   2.216   0.003
 6952WAT      O21097   8.131   8.095   2.625
 6952WAT     H121098   8.201   8.028   2.653
 6952WAT     H221099   8.040   8.057   2.639
 6953WAT      O21100   3.962   3.721   3.912
 6953WAT     H121101   3.907   3.784   3.967
 6953WAT     H221102   4.025   3.773   3.854
 6954WAT      O21103   4.056   9.427   9.607
 6954WAT     H121104   4.021   9.337   9.633
 6954WAT     H221105   3.995   9.498   9.642
 6955WAT      O21106   7.688   8.473   0.139
 6955WAT     H121107   7.607   8.530   0.129
 6955WAT     H221108   7.684   8.423   0.225
 6956WAT      O21109   2.083   5.770   1.906
 6956WAT     H121110   2.178   5.797   1.888
 6956WAT     H221111   2.065   5.681   1.866
 6957WAT      O21112   5.388   1.247   1.019
 6957WAT     H121113   5.340   1.201   1.094
 6957WAT     H221114   5.335   1.237   0.935
 6958WAT      O21115   9.484   3.373   9.272
 6958WAT     H121116   9.416   3.429   9.319
 6958WAT     H221117   9.442   3.287   9.243
 6959WAT      O21118   4.621   7.534   2.923
 6959WAT     H121119   4.704   7.481   2.902
 6959WAT     H221120   4.605   7.532   3.022
 6960WAT      O21121   5.769   9.355   1.864
 6960WAT     H121122   5.671   9.373   1.875
 6960WAT     H221123   5.808   9.423   1.801
 6961WAT      O21124   1.506   4.436   0.352
 6961WAT     H121125   1.523   4.533   0.372
 6961WAT     H221126   1.551   4.412   0.266
 6962WAT      O21127   1.047   0.418   6.536
 6962WAT     H121128   0.951   0.390   6.533
 6962WAT     H221129   1.098   0.371   6.463
 6963WAT      O21130   2.448   6.845   0.085
 6963WAT     H121131   2.402   6.887   0.164
 6963WAT     H221132   2.434   6.903   0.004
 6964WAT      O21133   0.402   3.230   8.503
 6964WAT     H121134   0.470   3.295   8.535
 6964WAT     H221135   0.326   3.279   8.461
 6965WAT      O21136   3.525   3.076   1.196
 6965WAT     H121137   3.537   3.048   1.291
 6965WAT     H221138   3.612   3.106   1.158
 6966WAT      O21139   0.464   7.976   9.569
 6966WAT     H121140   0.446   7.886   9.529
 6966WAT     H221141   0.445   8.047   9.501
 6967WAT      O21142   9.360   3.480   5.128
 6967WAT     H121143   9.403   3.411   5.186
 6967WAT     H221144   9.355   3.446   5.034
 6968WAT      O21145   0.122   1.203   1.670
 6968WAT     H121146   0.212   1.174   1.639
 6968WAT     H221147   0.131   1.287   1.723
 6969WAT      O21148   9.854   8.755   4.731
 6969WAT     H121149   9.760   8.741   4.699
 6969WAT     H221150   9.877   8.685   4.798
 6970WAT      O21151   9.277   6.913   7.593
 6970WAT     H121152   9.205   6.886   7.529
 6970WAT     H221153   9.365   6.911   7.547
 6971WAT      O21154   8.964   3.766   1.815
 6971WAT     H121155   8.958   3.793   1.911
 6971WAT     H221156   8.875   3.778   1.771
 6972WAT      O21157   7.465   3.108   2.834
 6972WAT     H121158   7.449   3.091   2.737
 6972WAT     H221159   7.562   3.129   2.848
 6973WAT      O21160   4.289   1.078   2.190
 6973WAT     H121161   4.221   1.082   2.263
 6973WAT     H221162   4.252   1.121   2.107
 6974WAT      O21163   8.367   4.060   1.498
 6974WAT     H121164   8.398   4.047   1.404
 6974WAT     H221165   8.427   4.125   1.545
 6975WAT      O21166   3.455   0.471   6.823
 6975WAT     H121167   3.521   0.512   6.887
 6975WAT     H221168   3.407   0.544   6.774
 6976WAT      O21169   0.858   3.167   9.434
 6976WAT     H121170   0.862   3.252   9.488
 6976WAT     H221171   0.942   3.158   9.381
 6977WAT      O21172   0.669   0.333   0.500
 6977WAT     H121173   0.583   0.365   0.540
 6977WAT     H221174   0.738   0.405   0.507
 6978WAT      O21175   2.160   4.923   2.220
 6978WAT     H121176   2.173   4.886   2.312
 6978WAT     H221177   2.198   4.859   2.153
 6979WAT      O21178   9.362   1.244   2.671
 6979WAT     H121179   9.381   1.324   2.615
 6979WAT     H221180   9.426   1.241   2.749
 6980WAT      O21181   9.696   6.019   8.950
 6980WAT     H121182   9.734   5.985   9.036
 6980WAT     H221183   9.768   6.023   8.881
 6981WAT      O21184   5.584   5.265   0.662
 6981WAT     H121185   5.665   5.288   0.716
 6981WAT     H221186   5.559   5.343   0.605
 6982WAT      O21187   5.024   1.364   7.358
 6982WAT     H121188   5.022   1.322   7.449
 6982WAT     H221189   5.051   1.460   7.367
 6983WAT      O21190   0.769   9.035   0.137
 6983WAT     H121191   0.862   9.034   0.174
 6983WAT     H221192   0.762   9.104   0.065
 6984WAT      O21193   1.275   4.947   9.596
 6984WAT     H121194   1.325   4.897   9.525
 6984WAT     H221195   1.340   4.976   9.667
 6985WAT      O21196   3.957   7.014   4.075
 6985WAT     H121197   3.864   6.997   4.108
 6985WAT     H221198   4.013   7.048   4.150
 6986WAT      O21199   4.051   4.201   4.395
 6986WAT     H121200   4.068   4.190   4.493
 6986WAT     H221201   3.977   4.139   4.367
 6987WAT      O21202   6.055   5.969   0.673
 6987WAT     H121203   5.986   5.918   0.723
 6987WAT     H221204   6.012   6.044   0.622
 6988WAT      O21205   9.441   6.737   5.688
 6988WAT     H121206   9.346   6.707   5.695
 6988WAT     H221207   9.496   6.664   5.646
 6989WAT      O21208   8.206   9.425   8.526
 6989WAT     H121209   8.194   9.326   8.528
 6989WAT     H221210   8.227   9.457   8.618
 6990WAT      O21211   7.041   2.109   4.670
 6990WAT     H121212   6.991   2.045   4.613
 6990WAT     H221213   6.983   2.189   4.690
 6991WAT      O21214   5.827   3.389   5.801
 6991WAT     H121215   5.814   3.485   5.823
 6991WAT     H221216   5.741   3.339   5.817
 6992WAT      O21217   3.746   0.236   6.222
 6992WAT     H121218   3.679   0.161   6.217
 6992WAT     H221219   3.814   0.224   6.150
 6993WAT      O21220   8.354   9.238   0.429
 6993WAT     H121221   8.427   9.226   0.496
 6993WAT     H221222   8.358   9.164   0.361
 6994WAT      O21223   0.357   0.855   3.148
 6994WAT     H121224   0.348   0.917   3.226
 6994WAT     H221225   0.452   0.824   3.141
 6995WAT      O21226   6.788   5.809   3.890
 6995WAT     H121227   6.730   5.851   3.820
 6995WAT     H221228   6.753   5.831   3.981
 6996WAT      O21229   5.207   7.769   9.472
 6996WAT     H121230   5.227   7.842   9.407
 6996WAT     H221231   5.167   7.807   9.556
 6997WAT      O21232   7.570   2.987   9.763
 6997WAT     H121233   7.566   3.087   9.766
 6997WAT     H221234   7.609   2.953   9.848
 6998WAT      O21235   1.943   3.081   6.627
 6998WAT     H121236   1.891   3.131   6.557
 6998WAT     H221237   1.921   3.119   6.717
 6999WAT      O21238   9.308   4.049   3.904
 6999WAT     H121239   9.321   4.080   3.998
 6999WAT     H221240   9.249   4.114   3.855
 7000WAT      O21241   5.886   3.749   2.395
 7000WAT     H121242   5.972   3.706   2.423
 7000WAT     H221243   5.885   3.762   2.296
 7001WAT      O21244   3.602   1.331   2.585
 7001WAT     H121245   3.512   1.331   2.541
 7001WAT     H221246   3.620   1.241   2.625
 7002WAT      O21247   1.880   1.131   5.848
 7002WAT     H121248   1.805   1.174   5.798
 7002WAT     H221249   1.950   1.100   5.783
 7003WAT      O21250   1.143   6.135   4.519
 7003WAT     H121251   1.106   6.101   4.605
 7003WAT     H221252   1.099   6.089   4.442
 7004WAT      O21253   4.538   6.796   0.100
 7004WAT     H121254   4.603   6.807   0.025
 7004WAT     H221255   4.517   6.885   0.140
 7005WAT      O21256   8.537   6.264   9.151
 7005WAT     H121257   8.578   6.208   9.223
 7005WAT     H221258   8.502   6.205   9.078
 7006WAT      O21259   4.677   7.083   7.007
 7006WAT     H121260   4.679   7.163   6.947
 7006WAT     H221261   4.708   7.109   7.098
 7007WAT      O21262   8.053   4.960   5.576
 7007WAT     H121263   8.148   4.989   5.569
 7007WAT     H221264   8.048   4.860   5.572
 7008WAT      O21265   6.533   0.960   7.989
 7008WAT     H121266   6.517   0.952   8.087
 7008WAT     H221267   6.468   1.026   7.950
 7009WAT      O21268   6.038   4.609   4.183
 7009WAT     H121269   6.034   4.522   4.232
 7009WAT     H221270   6.134   4.637   4.173
 7010WAT      O21271   0.048   3.242   0.943
 7010WAT     H121272  -0.001   3.270   0.860
 7010WAT     H221273   0.044   3.316   1.010
 7011WAT      O21274   5.975   6.038   2.351
 7011WAT     H121275   6.067   6.076   2.366
 7011WAT     H221276   5.909   6.087   2.407
 7012WAT      O21277   2.923   2.472   5.653
 7012WAT     H121278   2.832   2.463   5.614
 7012WAT     H221279   2.991   2.474   5.580
 7013WAT      O21280   3.765   8.096   8.103
 7013WAT     H121281   3.699   8.160   8.142
 7013WAT     H221282   3.723   8.005   8.095
 7014WAT      O21283   9.116   9.341   6.427
 7014WAT     H121284   9.132   9.383   6.516
 7014WAT     H221285   9.034   9.283   6.431
 7015WAT      O21286   8.539   5.643   4.356
 7015WAT     H121287   8.569   5.611   4.446
 7015WAT     H221288   8.446   5.678   4.362
 7016WAT      O21289   9.485   0.391   8.575
 7016WAT     H121290   9.561   0.344   8.620
 7016WAT     H221291   9.471   0.353   8.484
 7017WAT      O21292   9.544   2.067   0.465
 7017WAT     H121293   9.540   2.134   0.390
 7017WAT     H221294   9.483   1.991   0.444
 7018WAT      O21295   7.652   4.674   5.921
 7018WAT     H121296   7.571   4.680   5.980
 7018WAT     H221297   7.646   4.591   5.866
 7019WAT      O21298   2.872   7.055   9.737
 7019WAT     H121299   2.855   6.981   9.672
 7019WAT     H221300   2.805   7.050   9.812
 7020WAT      O21301   3.185   1.025   5.686
 7020WAT     H121302   3.233   1.109   5.663
 7020WAT     H221303   3.245   0.966   5.740
 7021WAT      O21304   5.549   3.109   4.332
 7021WAT     H121305   5.626   3.169   4.352
 7021WAT     H221306   5.467   3.144   4.379
 7022WAT      O21307   4.275   3.129   5.560
 7022WAT     H121308   4.356   3.111   5.504
 7022WAT     H221309   4.198   3.153   5.500
 7023WAT      O21310   4.843   8.095   2.572
 7023WAT     H121311   4.865   7.998   2.578
 7023WAT     H221312   4.920   8.149   2.605
 7024WAT      O21313   6.527   8.455   0.781
 7024WAT     H121314   6.572   8.404   0.854
 7024WAT     H221315   6.487   8.392   0.715
 7025WAT      O21316   4.772   9.260   7.518
 7025WAT     H121317   4.768   9.333   7.450
 7025WAT     H221318   4.771   9.172   7.472
 7026WAT      O21319   9.528   7.421   5.161
 7026WAT     H121320   9.489   7.486   5.097
 7026WAT     H221321   9.614   7.385   5.124
 7027WAT      O21322   3.235   1.544   4.934
 7027WAT     H121323   3.152   1.554   4.989
 7027WAT     H221324   3.288   1.466   4.968
 7028WAT      O21325   4.554   3.906   0.882
 7028WAT     H121326   4.601   3.991   0.857
 7028WAT     H221327   4.609   3.828   0.854
 7029WAT      O21328   6.932   4.912   5.024
 7029WAT     H121329   6.993   4.987   5.052
 7029WAT     H221330   6.987   4.832   4.998
 7030WAT      O21331   7.951   7.213   1.518
 7030WAT     H121332   8.050   7.224   1.522
 7030WAT     H221333   7.907   7.297   1.550
 7031WAT      O21334   9.017   8.367   3.903
 7031WAT     H121335   9.046   8.348   3.997
 7031WAT     H221336   8.961   8.291   3.869
 7032WAT      O21337   0.467   1.947   6.844
 7032WAT     H121338   0.511   1.903   6.766
 7032WAT     H221339   0.517   1.925   6.927
 7033WAT      O21340   5.668   2.881   0.889
 7033WAT     H121341   5.588   2.877   0.949
 7033WAT     H221342   5.749   2.850   0.939
 7034WAT      O21343   1.246   4.363   6.199
 7034WAT     H121344   1.152   4.377   6.231
 7034WAT     H221345   1.250   4.282   6.141
 7035WAT      O21346   3.040   4.288   0.782
 7035WAT     H121347   3.053   4.253   0.689
 7035WAT     H221348   3.128   4.294   0.828
 7036WAT      O21349   2.310   0.406   1.304
 7036WAT     H121350   2.345   0.314   1.319
 7036WAT     H221351   2.365   0.452   1.235
 7037WAT      O21352   8.328   0.155   4.917
 7037WAT     H121353   8.230   0.134   4.918
 7037WAT     H221354   8.362   0.148   4.823
 7038WAT      O21355   4.253   1.183   1.929
 7038WAT     H121356   4.266   1.205   1.833
 7038WAT     H221357   4.158   1.157   1.945
 7039WAT      O21358   8.615   9.497   1.716
 7039WAT     H121359   8.712   9.517   1.716
 7039WAT     H221360   8.589   9.454   1.803
 7040WAT      O21361   8.667   6.715   8.747
 7040WAT     H121362   8.753   6.766   8.746
 7040WAT     H221363   8.685   6.621   8.777
 7041WAT      O21364   5.799   0.400   6.817
 7041WAT     H121365   5.760   0.492   6.821
 7041WAT     H221366   5.834   0.382   6.725
 7042WAT      O21367   6.070   4.221   1.297
 7042WAT     H121368   6.117   4.216   1.209
 7042WAT     H221369   5.971   4.225   1.283
 7043WAT      O21370   1.698   0.516   9.770
 7043WAT     H121371   1.656   0.457   9.839
 7043WAT     H221372   1.636   0.592   9.749
 7044WAT      O21373   7.807   2.108   8.401
 7044WAT     H121374   7.796   2.113   8.302
 7044WAT     H221375   7.742   2.042   8.438
 7045WAT      O21376   8.185   2.713   4.325
 7045WAT     H121377   8.176   2.796   4.270
 7045WAT     H221378   8.218   2.639   4.267
 7046WAT      O21379   3.309   7.936   0.056
 7046WAT     H121380   3.269   7.882   0.130
 7046WAT     H221381   3.245   8.009   0.030
 7047WAT      O21382   4.370   5.653   4.992
 7047WAT     H121383   4.324   5.573   4.953
 7047WAT     H221384   4.360   5.652   5.091
 7048WAT      O21385   7.995   9.618   1.392
 7048WAT     H121386   7.996   9.594   1.489
 7048WAT     H221387   7.946   9.548   1.341
 7049WAT      O21388   8.076   6.717   4.148
 7049WAT     H121389   7.988   6.672   4.137
 7049WAT     H221390   8.144   6.673   4.090
 7050WAT      O21391   0.394   8.173   7.479
 7050WAT     H121392   0.395   8.132   7.387
 7050WAT     H221393   0.308   8.150   7.524
 7051WAT      O21394   2.527   5.637   1.843
 7051WAT     H121395   2.534   5.592   1.932
 7051WAT     H221396   2.618   5.642   1.801
 7052WAT      O21397   3.914   7.349   4.165
 7052WAT     H121398   3.962   7.289   4.229
 7052WAT     H221399   3.980   7.395   4.105
 7053WAT      O21400   7.596   5.949   0.951
 7053WAT     H121401   7.629   5.855   0.953
 7053WAT     H221402   7.574   5.975   0.857
 7054WAT      O21403   9.125   2.238   7.776
 7054WAT     H121404   9.092   2.279   7.691
 7054WAT     H221405   9.189   2.300   7.821
 7055WAT      O21406   7.756   3.117   3.283
 7055WAT     H121407   7.784   3.030   3.243
 7055WAT     H221408   7.689   3.161   3.222
 7056WAT      O21409   3.978   1.982   4.211
 7056WAT     H121410   4.023   1.978   4.300
 7056WAT     H221411   3.893   1.929   4.215
 7057WAT      O21412   7.843   3.410   6.717
 7057WAT     H121413   7.843   3.498   6.670
 7057WAT     H221414   7.779   3.413   6.794
 7058WAT      O21415   9.093   4.898   0.377
 7058WAT     H121416   8.997   4.884   0.399
 7058WAT     H221417   9.143   4.812   0.389
 7059WAT      O21418   0.262   5.120   7.055
 7059WAT     H121419   0.277   5.217   7.071
 7059WAT     H221420   0.179   5.107   7.000
 7060WAT      O21421   2.868   4.723   8.637
 7060WAT     H121422   2.784   4.721   8.584
 7060WAT     H221423   2.861   4.792   8.709
 7061WAT      O21424   4.944   6.102   0.679
 7061WAT     H121425   4.974   6.088   0.585
 7061WAT     H221426   5.006   6.055   0.742
 7062WAT      O21427   3.972   6.125   8.109
 7062WAT     H121428   4.052   6.123   8.049
 7062WAT     H221429   3.910   6.198   8.081
 7063WAT      O21430   4.532   5.442   2.846
 7063WAT     H121431   4.523   5.458   2.944
 7063WAT     H221432   4.507   5.525   2.797
 7064WAT      O21433   8.168   2.598   9.513
 7064WAT     H121434   8.099   2.534   9.546
 7064WAT     H221435   8.167   2.680   9.569
 7065WAT      O21436   8.222   3.080   4.850
 7065WAT     H121437   8.160   3.010   4.814
 7065WAT     H221438   8.182   3.123   4.930
 7066WAT      O21439   5.474   9.298   5.212
 7066WAT     H121440   5.432   9.270   5.299
 7066WAT     H221441   5.433   9.246   5.137
 7067WAT      O21442   5.157   0.130   5.539
 7067WAT     H121443   5.241   0.111   5.590
 7067WAT     H221444   5.083   0.071   5.572
 7068WAT      O21445   6.562   1.164   4.269
 7068WAT     H121446   6.505   1.128   4.343
 7068WAT     H221447   6.510   1.164   4.184
 7069WAT      O21448   4.047   7.076   3.262
 7069WAT     H121449   3.976   7.012   3.234
 7069WAT     H221450   4.016   7.128   3.342
 7070WAT      O21451   3.627   6.239   7.687
 7070WAT     H121452   3.531   6.258   7.711
 7070WAT     H221453   3.668   6.321   7.648
 7071WAT      O21454   6.366   2.276   6.436
 7071WAT     H121455   6.302   2.313   6.503
 7071WAT     H221456   6.458   2.310   6.457
 7072WAT      O21457   0.130   6.012   0.504
 7072WAT     H121458   0.054   6.060   0.547
 7072WAT     H221459   0.121   5.914   0.521
 7073WAT      O21460   8.885   2.946   8.958
 7073WAT     H121461   8.871   2.922   8.862
 7073WAT     H221462   8.801   2.929   9.009
 7074WAT      O21463   1.159   4.200   4.461
 7074WAT     H121464   1.112   4.166   4.379
 7074WAT     H221465   1.127   4.292   4.483
 7075WAT      O21466   4.818   0.139   9.328
 7075WAT     H121467   4.762   0.215   9.296
 7075WAT     H221468   4.810   0.131   9.427
 7076WAT      O21469   1.494   0.429   7.272
 7076WAT     H121470   1.509   0.359   7.202
 7076WAT     H221471   1.506   0.388   7.363
 7077WAT      O21472   0.054   6.190   6.153
 7077WAT     H121473   0.021   6.198   6.247
 7077WAT     H221474   0.010   6.112   6.109
 7078WAT      O21475   5.138   5.608   9.745
 7078WAT     H121476   5.217   5.566   9.700
 7078WAT     H221477   5.077   5.536   9.779
 7079WAT      O21478   6.778   1.459   5.496
 7079WAT     H121479   6.725   1.425   5.573
 7079WAT     H221480   6.850   1.521   5.529
 7080WAT      O21481   7.955   1.400   2.554
 7080WAT     H121482   7.952   1.419   2.455
 7080WAT     H221483   7.941   1.486   2.604
 7081WAT      O21484   7.005   6.024   8.486
 7081WAT     H121485   6.945   5.943   8.486
 7081WAT     H221486   7.063   6.023   8.406
 7082WAT      O21487   0.677   3.308   1.796
 7082WAT     H121488   0.659   3.369   1.720
 7082WAT     H221489   0.774   3.280   1.795
 7083WAT      O21490   2.096   4.033   7.167
 7083WAT     H121491   2.079   3.993   7.257
 7083WAT     H221492   2.163   4.107   7.176
 7084WAT      O21493   9.417   7.526   0.024
 7084WAT     H121494   9.471   7.610   0.017
 7084WAT     H221495   9.347   7.538   0.094
 7085WAT      O21496   9.782   2.367   9.429
 7085WAT     H121497   9.758   2.276   9.394
 7085WAT     H221498   9.769   2.435   9.357
 7086WAT      O21499   1.337   5.320   1.849
 7086WAT     H121500   1.338   5.223   1.873
 7086WAT     H221501   1.252   5.341   1.801
 7087WAT      O21502   9.170   6.600   1.817
 7087WAT     H121503   9.212   6.626   1.730
 7087WAT     H221504   9.197   6.665   1.888
 7088WAT      O21505   0.600   8.110   4.135
 7088WAT     H121506   0.558   8.035   4.084
 7088WAT     H221507   0.540   8.138   4.210
 7089WAT      O21508   5.962   6.801   0.939
 7089WAT     H121509   5.965   6.821   0.841
 7089WAT     H221510   5.884   6.742   0.959
 7090WAT      O21511   3.123   5.395   0.630
 7090WAT     H121512   3.077   5.481   0.609
 7090WAT     H221513   3.082   5.321   0.576
 7091WAT      O21514   6.460   9.614   8.997
 7091WAT     H121515   6.494   9.554   9.070
 7091WAT     H221516   6.418   9.695   9.038
 7092WAT      O21517   1.487   2.022   8.319
 7092WAT     H121518   1.561   1.958   8.340
 7092WAT     H221519   1.476   2.086   8.395
 7093WAT      O21520   5.168   7.839   0.807
 7093WAT     H121521   5.195   7.931   0.836
 7093WAT     H221522   5.207   7.820   0.717
 7094WAT      O21523   1.368   5.190   5.592
 7094WAT     H121524   1.409   5.242   5.518
 7094WAT     H221525   1.288   5.239   5.627
 7095WAT      O21526   9.553   9.013   0.559
 7095WAT     H121527   9.475   9.026   0.498
 7095WAT     H221528   9.590   8.920   0.548
 7096WAT      O21529   0.883   8.169   8.625
 7096WAT     H121530   0.813   8.229   8.588
 7096WAT     H221531   0.921   8.210   8.709
 7097WAT      O21532   5.435   7.180   4.615
 7097WAT     H121533   5.482   7.114   4.557
 7097WAT     H221534   5.493   7.261   4.627
 7098WAT      O21535   5.452   0.462   5.744
 7098WAT     H121536   5.437   0.475   5.646
 7098WAT     H221537   5.391   0.391   5.778
 7099WAT      O21538   3.782   8.847   4.782
 7099WAT     H121539   3.866   8.793   4.772
 7099WAT     H221540   3.740   8.860   4.692
 7100WAT      O21541   5.939   4.993   7.443
 7100WAT     H121542   5.847   4.995   7.483
 7100WAT     H221543   5.994   4.925   7.491
 7101WAT      O21544   6.377   5.584   5.092
 7101WAT     H121545   6.375   5.670   5.143
 7101WAT     H221546   6.285   5.563   5.057
 7102WAT      O21547   1.335   2.309   4.726
 7102WAT     H121548   1.425   2.282   4.761
 7102WAT     H221549   1.339   2.315   4.626
 7103WAT      O21550   9.616   7.011   2.504
 7103WAT     H121551   9.616   7.042   2.599
 7103WAT     H221552   9.530   6.966   2.483
 7104WAT      O21553   1.437   6.246   7.700
 7104WAT     H121554   1.348   6.239   7.654
 7104WAT     H221555   1.510   6.238   7.632
 7105WAT      O21556   1.487   6.624   7.660
 7105WAT     H121557   1.479   6.684   7.740
 7105WAT     H221558   1.567   6.565   7.670
 7106WAT      O21559   2.555   5.279   3.954
 7106WAT     H121560   2.565   5.203   4.018
 7106WAT     H221561   2.620   5.269   3.879
 7107WAT      O21562   4.591   3.496   0.065
 7107WAT     H121563   4.493   3.511   0.049
 7107WAT     H221564   4.604   3.416   0.123
 7108WAT      O21565   1.612   8.005   8.710
 7108WAT     H121566   1.641   8.068   8.782
 7108WAT     H221567   1.680   7.933   8.699
 7109WAT      O21568   4.078   6.469   9.295
 7109WAT     H121569   4.154   6.527   9.268
 7109WAT     H221570   3.999   6.486   9.236
 7110WAT      O21571   3.083   2.785   6.961
 7110WAT     H121572   3.178   2.801   6.933
 7110WAT     H221573   3.071   2.815   7.056
 7111WAT      O21574   9.531   4.516   0.853
 7111WAT     H121575   9.520   4.417   0.847
 7111WAT     H221576   9.444   4.557   0.880
 7112WAT      O21577   0.300   4.334   9.703
 7112WAT     H121578   0.358   4.387   9.766
 7112WAT     H221579   0.357   4.268   9.654
 7113WAT      O21580   3.992   8.618   3.403
 7113WAT     H121581   4.046   8.585   3.325
 7113WAT     H221582   3.966   8.714   3.387
 7114WAT      O21583   2.269   9.347   6.053
 7114WAT     H121584   2.290   9.444   6.066
 7114WAT     H221585   2.172   9.337   6.031
 7115WAT      O21586   5.632   3.935   2.870
 7115WAT     H121587   5.582   4.013   2.908
 7115WAT     H221588   5.702   3.969   2.806
 7116WAT      O21589   5.281   6.253   1.761
 7116WAT     H121590   5.376   6.224   1.749
 7116WAT     H221591   5.225   6.213   1.689
 7117WAT      O21592   7.455   0.929   2.962
 7117WAT     H121593   7.463   0.838   3.001
 7117WAT     H221594   7.539   0.951   2.911
 7118WAT      O21595   6.122   0.695   2.353
 7118WAT     H121596   6.078   0.609   2.377
 7118WAT     H221597   6.217   0.678   2.328
 7119WAT      O21598   8.976   0.867   1.324
 7119WAT     H121599   8.916   0.935   1.283
 7119WAT     H221600   8.967   0.780   1.277
 7120WAT      O21601   4.373   3.321   5.758
 7120WAT     H121602   4.344   3.236   5.714
 7120WAT     H221603   4.348   3.398   5.700
 7121WAT      O21604   4.816   3.995   8.564
 7121WAT     H121605   4.907   4.034   8.552
 7121WAT     H221606   4.818   3.898   8.537
 7122WAT      O21607   4.052   3.482   0.064
 7122WAT     H121608   4.028   3.396   0.110
 7122WAT     H221609   4.078   3.462  -0.031
 7123WAT      O21610   9.742   9.647   1.623
 7123WAT     H121611   9.819   9.594   1.659
 7123WAT     H221612   9.669   9.585   1.594
 7124WAT      O21613   5.797   1.785   0.668
 7124WAT     H121614   5.821   1.711   0.731
 7124WAT     H221615   5.708   1.766   0.627
 7125WAT      O21616   7.456   0.200   5.504
 7125WAT     H121617   7.539   0.256   5.508
 7125WAT     H221618   7.377   0.259   5.485
 7126WAT      O21619   0.984   1.557   7.626
 7126WAT     H121620   1.010   1.585   7.534
 7126WAT     H221621   1.062   1.566   7.687
 7127WAT      O21622   6.930   8.777   0.525
 7127WAT     H121623   6.871   8.711   0.479
 7127WAT     H221624   6.980   8.732   0.599
 7128WAT      O21625   4.647   3.036   1.208
 7128WAT     H121626   4.600   2.948   1.209
 7128WAT     H221627   4.740   3.024   1.171
 7129WAT      O21628   0.870   2.894   2.990
 7129WAT     H121629   0.900   2.872   2.897
 7129WAT     H221630   0.835   2.988   2.993
 7130WAT      O21631   1.950   3.444   7.968
 7130WAT     H121632   1.893   3.448   8.051
 7130WAT     H221633   2.039   3.486   7.987
 7131WAT      O21634   4.025   7.969   5.972
 7131WAT     H121635   4.120   8.002   5.972
 7131WAT     H221636   3.963   8.047   5.975
 7132WAT      O21637   2.835   1.340   4.517
 7132WAT     H121638   2.776   1.266   4.484
 7132WAT     H221639   2.813   1.425   4.469
 7133WAT      O21640   1.020   5.525   5.144
 7133WAT     H121641   1.008   5.446   5.082
 7133WAT     H221642   1.073   5.496   5.224
 7134WAT      O21643   3.112   0.101   0.807
 7134WAT     H121644   3.094   0.105   0.709
 7134WAT     H221645   3.158   0.186   0.835
 7135WAT      O21646   9.532   4.242   0.903
 7135WAT     H121647   9.452   4.205   0.951
 7135WAT     H221648   9.614   4.227   0.959
 7136WAT      O21649   0.933   8.098   5.714
 7136WAT     H121650   0.981   8.017   5.748
 7136WAT     H221651   0.840   8.100   5.751
 7137WAT      O21652   2.923   8.584   7.691
 7137WAT     H121653   2.921   8.497   7.641
 7137WAT     H221654   3.002   8.585   7.752
 7138WAT      O21655   4.381   0.208   8.359
 7138WAT     H121656   4.401   0.209   8.261
 7138WAT     H221657   4.456   0.164   8.408
 7139WAT      O21658   8.719   7.976   4.026
 7139WAT     H121659   8.802   7.979   4.081
 7139WAT     H221660   8.639   7.984   4.085
 7140WAT      O21661   3.224   6.562   2.599
 7140WAT     H121662   3.290   6.583   2.671
 7140WAT     H221663   3.149   6.627   2.602
 7141WAT      O21664   4.631   7.803   2.814
 7141WAT     H121665   4.601   7.715   2.851
 7141WAT     H221666   4.587   7.818   2.725
 7142WAT      O21667   9.427   8.706   2.160
 7142WAT     H121668   9.512   8.749   2.131
 7142WAT     H221669   9.429   8.692   2.259
 7143WAT      O21670   1.571   7.969   3.374
 7143WAT     H121671   1.555   7.975   3.473
 7143WAT     H221672   1.666   7.995   3.354
 7144WAT      O21673   9.058   9.250   8.010
 7144WAT     H121674   9.009   9.281   8.092
 7144WAT     H221675   9.102   9.328   7.967
 7145WAT      O21676   9.014   0.853   2.234
 7145WAT     H121677   9.009   0.894   2.143
 7145WAT     H221678   9.028   0.925   2.302
 7146WAT      O21679   0.285   3.698   7.977
 7146WAT     H121680   0.316   3.672   7.885
 7146WAT     H221681   0.286   3.797   7.986
 7147WAT      O21682   7.522   6.085   9.759
 7147WAT     H121683   7.468   6.144   9.819
 7147WAT     H221684   7.594   6.138   9.715
 7148WAT      O21685   3.208   0.352   4.101
 7148WAT     H121686   3.119   0.394   4.084
 7148WAT     H221687   3.196   0.256   4.126
 7149WAT      O21688   6.292   8.684   6.515
 7149WAT     H121689   6.321   8.767   6.562
 7149WAT     H221690   6.373   8.636   6.479
 7150WAT      O21691   5.468   5.970   3.707
 7150WAT     H121692   5.558   5.934   3.730
 7150WAT     H221693   5.403   5.895   3.696
 7151WAT      O21694   7.398   2.281   0.186
 7151WAT     H121695   7.325   2.225   0.144
 7151WAT     H221696   7.359   2.336   0.260
 7152WAT      O21697   7.142   8.330   2.319
 7152WAT     H121698   7.121   8.421   2.283
 7152WAT     H221699   7.107   8.322   2.413
 7153WAT      O21700   8.199   7.048   1.902
 7153WAT     H121701   8.147   6.966   1.879
 7153WAT     H221702   8.139   7.115   1.945
 7154WAT      O21703   9.565   3.772   5.477
 7154WAT     H121704   9.549   3.787   5.574
 7154WAT     H221705   9.533   3.852   5.426
 7155WAT      O21706   5.223   2.325   6.072
 7155WAT     H121707   5.135   2.370   6.088
 7155WAT     H221708   5.232   2.303   5.975
 7156WAT      O21709   0.007   2.304   6.570
 7156WAT     H121710   0.013   2.304   6.670
 7156WAT     H221711  -0.056   2.376   6.540
 7157WAT      O21712   6.773   9.281   9.407
 7157WAT     H121713   6.697   9.330   9.364
 7157WAT     H221714   6.739   9.225   9.482
 7158WAT      O21715   1.142   8.557   8.025
 7158WAT     H121716   1.136   8.505   8.110
 7158WAT     H221717   1.237   8.584   8.009
 7159WAT      O21718   0.356   5.033   4.494
 7159WAT     H121719   0.445   5.078   4.483
 7159WAT     H221720   0.367   4.950   4.548
 7160WAT      O21721   2.126   7.003   4.729
 7160WAT     H121722   2.154   7.061   4.653
 7160WAT     H221723   2.191   7.012   4.804
 7161WAT      O21724   9.035   2.973   9.522
 7161WAT     H121725   9.087   3.044   9.570
 7161WAT     H221726   9.093   2.892   9.511
 7162WAT      O21727   3.315   5.414   2.846
 7162WAT     H121728   3.336   5.507   2.815
 7162WAT     H221729   3.373   5.391   2.924
 7163WAT      O21730   6.428   2.982   7.846
 7163WAT     H121731   6.468   2.903   7.799
 7163WAT     H221732   6.438   3.063   7.789
 7164WAT      O21733   4.114   1.760   2.646
 7164WAT     H121734   4.117   1.722   2.553
 7164WAT     H221735   4.028   1.734   2.690
 7165WAT      O21736   9.530   8.234   8.421
 7165WAT     H121737   9.583   8.157   8.383
 7165WAT     H221738   9.433   8.214   8.415
 7166WAT      O21739   3.169   2.088   4.889
 7166WAT     H121740   3.096   2.024   4.863
 7166WAT     H221741   3.162   2.171   4.834
 7167WAT      O21742   7.064   4.899   3.047
 7167WAT     H121743   6.979   4.945   3.022
 7167WAT     H221744   7.115   4.876   2.964
 7168WAT      O21745   2.777   8.744   5.361
 7168WAT     H121746   2.739   8.724   5.270
 7168WAT     H221747   2.870   8.707   5.367
 7169WAT      O21748   2.614   5.166   2.664
 7169WAT     H121749   2.530   5.218   2.646
 7169WAT     H221750   2.606   5.120   2.752
 7170WAT      O21751   7.379   1.412   8.106
 7170WAT     H121752   7.380   1.499   8.056
 7170WAT     H221753   7.471   1.394   8.142
 7171WAT      O21754   7.338   5.287   3.784
 7171WAT     H121755   7.283   5.213   3.823
 7171WAT     H221756   7.401   5.249   3.716
 7172WAT      O21757   5.256   1.255   6.313
 7172WAT     H121758   5.348   1.225   6.337
 7172WAT     H221759   5.196   1.244   6.392
 7173WAT      O21760   6.685   2.047   7.024
 7173WAT     H121761   6.689   1.947   7.024
 7173WAT     H221762   6.627   2.078   7.100
 7174WAT      O21763   6.708   1.415   3.219
 7174WAT     H121764   6.689   1.487   3.153
 7174WAT     H221765   6.628   1.356   3.230
 7175WAT      O21766   5.333   0.942   5.209
 7175WAT     H121767   5.264   0.929   5.138
 7175WAT     H221768   5.418   0.897   5.181
 7176WAT      O21769   9.091   9.621   7.266
 7176WAT     H121770   9.002   9.581   7.290
 7176WAT     H221771   9.147   9.551   7.220
 7177WAT      O21772   4.722   1.948   6.943
 7177WAT     H121773   4.791   2.017   6.964
 7177WAT     H221774   4.687   1.908   7.027
 7178WAT      O21775   2.346   2.610   2.551
 7178WAT     H121776   2.414   2.539   2.564
 7178WAT     H221777   2.344   2.670   2.632
 7179WAT      O21778   1.327   8.808   4.946
 7179WAT     H121779   1.422   8.826   4.921
 7179WAT     H221780   1.324   8.741   5.021
 7180WAT      O21781   1.505   9.653   8.359
 7180WAT     H121782   1.593   9.680   8.319
 7180WAT     H221783   1.459   9.734   8.394
 7181WAT      O21784   4.168   6.219   3.860
 7181WAT     H121785   4.112   6.252   3.784
 7181WAT     H221786   4.156   6.120   3.871
 7182WAT      O21787   3.028   0.591   7.454
 7182WAT     H121788   3.041   0.668   7.392
 7182WAT     H221789   2.941   0.546   7.434
 7183WAT      O21790   4.753   8.259   9.392
 7183WAT     H121791   4.839   8.278   9.439
 7183WAT     H221792   4.678   8.303   9.441
 7184WAT      O21793   5.131   4.467   3.242
 7184WAT     H121794   5.167   4.460   3.335
 7184WAT     H221795   5.039   4.427   3.239
 7185WAT      O21796   2.789   1.373   8.590
 7185WAT     H121797   2.870   1.423   8.621
 7185WAT     H221798   2.813   1.278   8.571
 7186WAT      O21799   0.406   5.857   6.118
 7186WAT     H121800   0.362   5.771   6.091
 7186WAT     H221801   0.370   5.931   6.062
 7187WAT      O21802   4.871   6.413   6.069
 7187WAT     H121803   4.927   6.481   6.117
 7187WAT     H221804   4.791   6.392   6.125
 7188WAT      O21805   3.855   6.589   3.369
 7188WAT     H121806   3.854   6.492   3.393
 7188WAT     H221807   3.866   6.643   3.452
 7189WAT      O21808   6.703   5.895   4.153
 7189WAT     H121809   6.670   5.848   4.235
 7189WAT     H221810   6.740   5.984   4.177
 7190WAT      O21811   7.979   6.491   8.877
 7190WAT     H121812   7.886   6.514   8.848
 7190WAT     H221813   8.040   6.493   8.798
 7191WAT      O21814   3.345   2.648   8.557
 7191WAT     H121815   3.249   2.634   8.532
 7191WAT     H221816   3.353   2.649   8.657
 7192WAT      O21817   5.647   8.372   8.748
 7192WAT     H121818   5.705   8.290   8.751
 7192WAT     H221819   5.689   8.445   8.801
 7193WAT      O21820   0.678   2.175   6.981
 7193WAT     H121821   0.687   2.085   7.024
 7193WAT     H221822   0.589   2.214   7.003
 7194WAT      O21823   0.637   1.695   3.766
 7194WAT     H121824   0.606   1.601   3.779
 7194WAT     H221825   0.559   1.757   3.772
 7195WAT      O21826   8.548   3.152   8.636
 7195WAT     H121827   8.571   3.074   8.694
 7195WAT     H221828   8.624   3.216   8.633
 7196WAT      O21829   2.781   0.695   8.950
 7196WAT     H121830   2.717   0.619   8.937
 7196WAT     H221831   2.731   0.781   8.956
 7197WAT      O21832   7.642   0.867   5.925
 7197WAT     H121833   7.666   0.907   6.013
 7197WAT     H221834   7.716   0.882   5.859
 7198WAT      O21835   9.702   8.166   2.653
 7198WAT     H121836   9.777   8.105   2.629
 7198WAT     H221837   9.704   8.246   2.593
 7199WAT      O21838   3.941   1.812   9.718
 7199WAT     H121839   3.934   1.788   9.815
 7199WAT     H221840   3.849   1.825   9.681
 7200WAT      O21841   6.698   5.711   5.270
 7200WAT     H121842   6.678   5.794   5.323
 7200WAT     H221843   6.763   5.733   5.198
 7201WAT      O21844   9.842   7.557   3.104
 7201WAT     H121845   9.870   7.502   3.183
 7201WAT     H221846   9.748   7.589   3.118
 7202WAT      O21847   9.853   0.406   8.057
 7202WAT     H121848   9.938   0.354   8.069
 7202WAT     H221849   9.875   0.504   8.054
 7203WAT      O21850   0.772   1.568   2.593
 7203WAT     H121851   0.700   1.591   2.527
 7203WAT     H221852   0.846   1.635   2.586
 7204WAT      O21853   1.688   2.972   9.850
 7204WAT     H121854   1.679   3.018   9.762
 7204WAT     H221855   1.779   2.991   9.889
 7205WAT      O21856   4.608   5.644   7.258
 7205WAT     H121857   4.677   5.618   7.191
 7205WAT     H221858   4.652   5.663   7.346
 7206WAT      O21859   5.802   8.131   6.657
 7206WAT     H121860   5.749   8.210   6.627
 7206WAT     H221861   5.821   8.072   6.579
 7207WAT      O21862   3.145   2.386   8.723
 7207WAT     H121863   3.115   2.470   8.678
 7207WAT     H221864   3.096   2.376   8.810
 7208WAT      O21865   7.158   4.366   8.284
 7208WAT     H121866   7.240   4.384   8.338
 7208WAT     H221867   7.100   4.448   8.283
 7209WAT      O21868   1.689   7.647   8.835
 7209WAT     H121869   1.689   7.707   8.915
 7209WAT     H221870   1.611   7.585   8.840
 7210WAT      O21871   6.388   7.370   1.266
 7210WAT     H121872   6.405   7.318   1.182
 7210WAT     H221873   6.371   7.466   1.242
 7211WAT      O21874   0.672   8.927   3.966
 7211WAT     H121875   0.678   8.873   3.882
 7211WAT     H221876   0.588   8.981   3.966
 7212WAT      O21877   6.461   8.668   9.429
 7212WAT     H121878   6.384   8.642   9.487
 7212WAT     H221879   6.446   8.761   9.394
 7213WAT      O21880   0.958   9.382   3.704
 7213WAT     H121881   0.981   9.434   3.786
 7213WAT     H221882   1.006   9.421   3.625
 7214WAT      O21883   8.496   8.736   3.526
 7214WAT     H121884   8.551   8.819   3.517
 7214WAT     H221885   8.513   8.694   3.615
 7215WAT      O21886   9.322   9.382   6.054
 7215WAT     H121887   9.300   9.285   6.067
 7215WAT     H221888   9.290   9.412   5.964
 7216WAT      O21889   7.334   5.497   9.065
 7216WAT     H121890   7.430   5.511   9.038
 7216WAT     H221891   7.323   5.405   9.102
 7217WAT      O21892   8.428   7.720   5.473
 7217WAT     H121893   8.476   7.766   5.399
 7217WAT     H221894   8.427   7.778   5.554
 7218WAT      O21895   5.898   3.526   1.589
 7218WAT     H121896   5.945   3.502   1.673
 7218WAT     H221897   5.825   3.592   1.609
 7219WAT      O21898   3.286   7.891   0.711
 7219WAT     H121899   3.384   7.897   0.733
 7219WAT     H221900   3.271   7.929   0.620
 7220WAT      O21901   8.859   8.253   0.880
 7220WAT     H121902   8.930   8.323   0.867
 7220WAT     H221903   8.769   8.297   0.881
 7221WAT      O21904   2.260   6.270   1.915
 7221WAT     H121905   2.166   6.287   1.941
 7221WAT     H221906   2.278   6.312   1.825
 7222WAT      O21907   1.470   7.194   8.154
 7222WAT     H121908   1.447   7.217   8.249
 7222WAT     H221909   1.420   7.255   8.092
 7223WAT      O21910   6.730   7.987   8.621
 7223WAT     H121911   6.739   8.086   8.619
 7223WAT     H221912   6.638   7.961   8.591
 7224WAT      O21913   7.216   6.503   2.535
 7224WAT     H121914   7.193   6.596   2.565
 7224WAT     H221915   7.215   6.500   2.435
 7225WAT      O21916   6.995   2.314   7.210
 7225WAT     H121917   6.898   2.308   7.234
 7225WAT     H221918   7.049   2.330   7.292
 7226WAT      O21919   9.170   4.844   7.742
 7226WAT     H121920   9.199   4.754   7.773
 7226WAT     H221921   9.141   4.899   7.820
 7227WAT      O21922   7.664   0.788   1.077
 7227WAT     H121923   7.566   0.804   1.090
 7227WAT     H221924   7.707   0.776   1.166
 7228WAT      O21925   9.380   5.951   3.698
 7228WAT     H121926   9.282   5.950   3.676
 7228WAT     H221927   9.401   5.876   3.760
 7229WAT      O21928   3.274   6.282   6.994
 7229WAT     H121929   3.179   6.267   7.021
 7229WAT     H221930   3.329   6.302   7.075
 7230WAT      O21931   0.232   1.709   8.757
 7230WAT     H121932   0.157   1.745   8.703
 7230WAT     H221933   0.255   1.616   8.726
 7231WAT      O21934   2.055   3.172   1.262
 7231WAT     H121935   2.116   3.102   1.227
 7231WAT     H221936   2.096   3.262   1.248
 7232WAT      O21937   6.730   3.601   5.309
 7232WAT     H121938   6.780   3.628   5.227
 7232WAT     H221939   6.693   3.682   5.354
 7233WAT      O21940   5.501   9.261   9.236
 7233WAT     H121941   5.512   9.318   9.154
 7233WAT     H221942   5.568   9.186   9.233
 7234WAT      O21943   4.478   1.928   2.945
 7234WAT     H121944   4.441   1.846   2.903
 7234WAT     H221945   4.484   2.001   2.877
 7235WAT      O21946   7.007   3.263   0.670
 7235WAT     H121947   6.968   3.309   0.590
 7235WAT     H221948   7.101   3.236   0.651
 7236WAT      O21949   7.166   8.759   5.539
 7236WAT     H121950   7.180   8.735   5.443
 7236WAT     H221951   7.080   8.719   5.571
 7237WAT      O21952   4.505   6.224   0.698
 7237WAT     H121953   4.530   6.258   0.608
 7237WAT     H221954   4.485   6.126   0.693
 7238WAT      O21955   6.300   0.533   4.631
 7238WAT     H121956   6.295   0.473   4.710
 7238WAT     H221957   6.343   0.619   4.657
 7239WAT      O21958   5.379   9.407   3.755
 7239WAT     H121959   5.308   9.410   3.686
 7239WAT     H221960   5.340   9.375   3.842
 7240WAT      O21961   9.570   3.328   3.118
 7240WAT     H121962   9.491   3.386   3.096
 7240WAT     H221963   9.621   3.308   3.034
 7241WAT      O21964   4.083   6.462   4.190
 7241WAT     H121965   4.007   6.401   4.166
 7241WAT     H221966   4.059   6.515   4.271
 7242WAT      O21967   3.021   9.725   5.496
 7242WAT     H121968   3.104   9.713   5.441
 7242WAT     H221969   3.038   9.693   5.589
 7243WAT      O21970   9.108   2.768   1.354
 7243WAT     H121971   9.169   2.784   1.276
 7243WAT     H221972   9.121   2.840   1.422
 7244WAT      O21973   8.685   0.612   3.800
 7244WAT     H121974   8.628   0.616   3.882
 7244WAT     H221975   8.688   0.702   3.757
 7245WAT      O21976   9.828   3.748   1.803
 7245WAT     H121977   9.803   3.838   1.840
 7245WAT     H221978   9.772   3.729   1.722
 7246WAT      O21979   6.676   9.285   4.431
 7246WAT     H121980   6.687   9.218   4.358
 7246WAT     H221981   6.634   9.241   4.510
 7247WAT      O21982   7.867   2.176   5.443
 7247WAT     H121983   7.781   2.199   5.489
 7247WAT     H221984   7.851   2.169   5.345
 7248WAT      O21985   9.851   1.555   6.161
 7248WAT     H121986   9.780   1.486   6.145
 7248WAT     H221987   9.924   1.515   6.217
 7249WAT      O21988   0.440   6.813   2.589
 7249WAT     H121989   0.470   6.734   2.535
 7249WAT     H221990   0.476   6.897   2.548
 7250WAT      O21991   6.938   1.672   5.576
 7250WAT     H121992   6.928   1.735   5.498
 7250WAT     H221993   6.992   1.716   5.647
 7251WAT      O21994   1.641   2.948   8.243
 7251WAT     H121995   1.682   2.884   8.309
 7251WAT     H221996   1.684   2.935   8.154
 7252WAT      O21997   5.673   9.321   6.070
 7252WAT     H121998   5.627   9.326   5.982
 7252WAT     H221999   5.718   9.408   6.090
 7253WAT      O22000   8.324   7.924   6.337
 7253WAT     H122001   8.382   8.001   6.308
 7253WAT     H222002   8.381   7.842   6.348
 7254WAT      O22003   2.892   3.235   1.983
 7254WAT     H122004   2.934   3.245   1.892
 7254WAT     H222005   2.920   3.311   2.041
 7255WAT      O22006   8.130   0.653   7.579
 7255WAT     H122007   8.190   0.602   7.641
 7255WAT     H222008   8.186   0.714   7.522
 7256WAT      O22009   8.397   7.117   4.506
 7256WAT     H122010   8.427   7.185   4.574
 7256WAT     H222011   8.306   7.084   4.531
 7257WAT      O22012   4.699   7.259   1.095
 7257WAT     H122013   4.619   7.227   1.147
 7257WAT     H222014   4.697   7.218   1.004
 7258WAT      O22015   1.589   4.960   5.982
 7258WAT     H122016   1.598   5.042   5.925
 7258WAT     H222017   1.616   4.982   6.076
 7259WAT      O22018   7.917   6.150   7.265
 7259WAT     H122019   7.860   6.232   7.260
 7259WAT     H222020   8.006   6.168   7.224
 7260WAT      O22021   0.722   9.516   7.949
 7260WAT     H122022   0.761   9.597   7.907
 7260WAT     H222023   0.753   9.510   8.044
 7261WAT      O22024   5.885   4.284   0.513
 7261WAT     H122025   5.909   4.331   0.598
 7261WAT     H222026   5.966   4.244   0.473
 7262WAT      O22027   7.250   0.641   2.756
 7262WAT     H122028   7.229   0.552   2.797
 7262WAT     H222029   7.349   0.654   2.755
 7263WAT      O22030   1.208   5.405   4.334
 7263WAT     H122031   1.179   5.493   4.295
 7263WAT     H222032   1.150   5.383   4.413
 7264WAT      O22033   2.461   8.354   2.367
 7264WAT     H122034   2.536   8.302   2.327
 7264WAT     H222035   2.434   8.427   2.304
 7265WAT      O22036   7.090   5.507   5.545
 7265WAT     H122037   7.125   5.595   5.512
 7265WAT     H222038   6.990   5.512   5.552
 7266WAT      O22039   3.539   3.303   2.973
 7266WAT     H122040   3.599   3.312   3.053
 7266WAT     H222041   3.525   3.207   2.952
 7267WAT      O22042   0.792   4.715   6.031
 7267WAT     H122043   0.697   4.710   6.000
 7267WAT     H222044   0.833   4.623   6.027
 7268WAT      O22045   1.062   4.230   7.575
 7268WAT     H122046   1.053   4.159   7.645
 7268WAT     H222047   1.055   4.189   7.485
 7269WAT      O22048   3.885   3.314   2.655
 7269WAT     H122049   3.830   3.292   2.575
 7269WAT     H222050   3.976   3.344   2.626
 7270WAT      O22051   5.599   1.462   5.966
 7270WAT     H122052   5.646   1.409   6.036
 7270WAT     H222053   5.655   1.466   5.883
 7271WAT      O22054   8.706   8.629   7.214
 7271WAT     H122055   8.663   8.546   7.179
 7271WAT     H222056   8.739   8.685   7.138
 7272WAT      O22057   2.031   3.079   9.345
 7272WAT     H122058   1.934   3.053   9.353
 7272WAT     H222059   2.081   3.047   9.425
 7273WAT      O22060   6.377   2.799   6.722
 7273WAT     H122061   6.358   2.897   6.729
 7273WAT     H222062   6.469   2.781   6.758
 7274WAT      O22063   2.646   4.520   9.413
 7274WAT     H122064   2.697   4.555   9.335
 7274WAT     H222065   2.551   4.549   9.407
 7275WAT      O22066   3.248   6.258   2.736
 7275WAT     H122067   3.298   6.252   2.649
 7275WAT     H222068   3.176   6.189   2.738
 7276WAT      O22069   6.035   8.304   8.786
 7276WAT     H122070   6.076   8.294   8.877
 7276WAT     H222071   5.956   8.244   8.778
 7277WAT      O22072   6.993   1.566   6.898
 7277WAT     H122073   6.939   1.507   6.838
 7277WAT     H222074   7.026   1.513   6.976
 7278WAT      O22075   8.246   2.775   9.060
 7278WAT     H122076   8.162   2.809   9.017
 7278WAT     H222077   8.315   2.847   9.063
 7279WAT      O22078   0.036   3.163   6.334
 7279WAT     H122079   0.055   3.066   6.319
 7279WAT     H222080   0.069   3.216   6.256
 7280WAT      O22081   4.223   7.361   1.449
 7280WAT     H122082   4.196   7.433   1.512
 7280WAT     H222083   4.309   7.386   1.404
 7281WAT      O22084   3.373   1.430   2.346
 7281WAT     H122085   3.323   1.470   2.269
 7281WAT     H222086   3.365   1.331   2.344
 7282WAT      O22087   4.361   9.696   9.760
 7282WAT     H122088   4.268   9.669   9.736
 7282WAT     H222089   4.424   9.623   9.736
 7283WAT      O22090   1.740   4.926   7.720
 7283WAT     H122091   1.804   4.926   7.798
 7283WAT     H222092   1.646   4.929   7.754
 7284WAT      O22093   4.905   0.411   9.459
 7284WAT     H122094   4.819   0.385   9.416
 7284WAT     H222095   4.982   0.378   9.404
 7285WAT      O22096   9.338   9.811   9.013
 7285WAT     H122097   9.355   9.852   9.103
 7285WAT     H222098   9.301   9.719   9.024
 7286WAT      O22099   9.690   3.769   2.458
 7286WAT     H122100   9.738   3.700   2.403
 7286WAT     H222101   9.650   3.838   2.398
 7287WAT      O22102   0.979   6.614   9.206
 7287WAT     H122103   1.014   6.625   9.299
 7287WAT     H222104   0.951   6.519   9.191
 7288WAT      O22105   1.824   6.865   5.235
 7288WAT     H122106   1.843   6.903   5.145
 7288WAT     H222107   1.774   6.779   5.225
 7289WAT      O22108   5.795   5.048   2.874
 7289WAT     H122109   5.759   5.111   2.942
 7289WAT     H222110   5.720   5.014   2.817
 7290WAT      O22111   9.659   5.373   6.116
 7290WAT     H122112   9.716   5.447   6.153
 7290WAT     H222113   9.709   5.328   6.042
 7291WAT      O22114   7.863   5.215   9.318
 7291WAT     H122115   7.931   5.277   9.356
 7291WAT     H222116   7.837   5.148   9.387
 7292WAT      O22117   1.305   9.342   1.322
 7292WAT     H122118   1.312   9.435   1.287
 7292WAT     H222119   1.247   9.341   1.403
 7293WAT      O22120   0.454   5.156   5.285
 7293WAT     H122121   0.535   5.199   5.244
 7293WAT     H222122   0.374   5.174   5.227
 7294WAT      O22123   9.051   4.981   5.769
 7294WAT     H122124   9.009   4.927   5.695
 7294WAT     H222125   9.134   4.935   5.801
 7295WAT      O22126   9.031   1.880   4.272
 7295WAT     H122127   9.084   1.965   4.269
 7295WAT     H222128   8.934   1.902   4.280
 7296WAT      O22129   2.796   6.986   5.206
 7296WAT     H122130   2.720   6.988   5.271
 7296WAT     H222131   2.797   7.070   5.152
 7297WAT      O22132   1.610   6.718   7.393
 7297WAT     H122133   1.628   6.642   7.331
 7297WAT     H222134   1.562   6.683   7.474
 7298WAT      O22135   2.775   1.523   7.555
 7298WAT     H122136   2.837   1.483   7.623
 7298WAT     H222137   2.826   1.544   7.472
 7299WAT      O22138   0.840   4.092   1.472
 7299WAT     H122139   0.866   4.077   1.377
 7299WAT     H222140   0.899   4.037   1.532
 7300WAT      O22141   3.946   0.781   3.415
 7300WAT     H122142   4.044   0.790   3.429
 7300WAT     H222143   3.927   0.767   3.318
 7301WAT      O22144   1.590   1.595   8.983
 7301WAT     H122145   1.610   1.529   9.055
 7301WAT     H222146   1.600   1.552   8.894
 7302WAT      O22147   8.427   5.292   0.486
 7302WAT     H122148   8.501   5.265   0.423
 7302WAT     H222149   8.339   5.279   0.441
 7303WAT      O22150   7.177   1.375   5.188
 7303WAT     H122151   7.119   1.320   5.247
 7303WAT     H222152   7.135   1.465   5.175
 7304WAT      O22153   4.849   0.214   6.891
 7304WAT     H122154   4.828   0.254   6.980
 7304WAT     H222155   4.842   0.284   6.819
 7305WAT      O22156   2.986   1.867   5.762
 7305WAT     H122157   3.056   1.814   5.809
 7305WAT     H222158   2.965   1.950   5.814
 7306WAT      O22159   5.043   3.978   1.650
 7306WAT     H122160   5.023   3.883   1.626
 7306WAT     H222161   5.141   3.995   1.637
 7307WAT      O22162   6.314   1.450   1.157
 7307WAT     H122163   6.288   1.496   1.072
 7307WAT     H222164   6.379   1.377   1.137
 7308WAT      O22165   4.182   2.892   6.155
 7308WAT     H122166   4.221   2.881   6.246
 7308WAT     H222167   4.098   2.838   6.147
 7309WAT      O22168   1.005   1.335   9.225
 7309WAT     H122169   0.971   1.334   9.131
 7309WAT     H222170   0.962   1.411   9.275
 7310WAT      O22171   9.555   2.947   1.494
 7310WAT     H122172   9.498   2.869   1.518
 7310WAT     H222173   9.596   2.986   1.577
 7311WAT      O22174   4.218   5.299   0.682
 7311WAT     H122175   4.287   5.344   0.625
 7311WAT     H222176   4.238   5.201   0.688
 7312WAT      O22177   9.397   1.865   0.086
 7312WAT     H122178   9.422   1.945   0.030
 7312WAT     H222179   9.372   1.789   0.025
 7313WAT      O22180   8.960   0.565   5.615
 7313WAT     H122181   8.905   0.601   5.539
 7313WAT     H222182   9.026   0.634   5.644
 7314WAT      O22183   4.130   4.738   2.016
 7314WAT     H122184   4.058   4.803   1.992
 7314WAT     H222185   4.213   4.787   2.040
 7315WAT      O22186   3.559   5.538   8.387
 7315WAT     H122187   3.608   5.541   8.299
 7315WAT     H222188   3.524   5.446   8.402
 7316WAT      O22189   1.335   2.398   7.176
 7316WAT     H122190   1.342   2.471   7.245
 7316WAT     H222191   1.371   2.313   7.213
 7317WAT      O22192   4.731   4.896   1.467
 7317WAT     H122193   4.674   4.832   1.517
 7317WAT     H222194   4.673   4.959   1.414
 7318WAT      O22195   1.803   8.346   2.037
 7318WAT     H122196   1.817   8.288   1.956
 7318WAT     H222197   1.844   8.436   2.021
 7319WAT      O22198   6.485   9.601   3.016
 7319WAT     H122199   6.524   9.512   3.037
 7319WAT     H222200   6.387   9.592   2.998
 7320WAT      O22201   6.506   0.765   0.310
 7320WAT     H122202   6.504   0.864   0.302
 7320WAT     H222203   6.536   0.739   0.402
 7321WAT      O22204   8.751   8.552   8.583
 7321WAT     H122205   8.840   8.584   8.614
 7321WAT     H222206   8.756   8.527   8.486
 7322WAT      O22207   5.954   2.567   3.106
 7322WAT     H122208   5.974   2.495   3.174
 7322WAT     H222209   6.034   2.626   3.096
 7323WAT      O22210   0.914   0.553   2.817
 7323WAT     H122211   0.905   0.639   2.767
 7323WAT     H222212   0.854   0.555   2.897
 7324WAT      O22213   8.273   6.556   4.062
 7324WAT     H122214   8.268   6.459   4.084
 7324WAT     H222215   8.322   6.568   3.975
 7325WAT      O22216   0.369   8.198   7.866
 7325WAT     H122217   0.379   8.136   7.944
 7325WAT     H222218   0.272   8.213   7.848
 7326WAT      O22219   7.054   7.409   0.690
 7326WAT     H122220   7.075   7.437   0.597
 7326WAT     H222221   7.106   7.326   0.713
 7327WAT      O22222   6.557   7.168   9.192
 7327WAT     H122223   6.563   7.260   9.155
 7327WAT     H222224   6.484   7.163   9.259
 7328WAT      O22225   5.084   2.416   5.424
 7328WAT     H122226   5.111   2.380   5.334
 7328WAT     H222227   5.082   2.516   5.421
 7329WAT      O22228   2.341   5.124   5.315
 7329WAT     H122229   2.384   5.033   5.316
 7329WAT     H222230   2.334   5.159   5.409
 7330WAT      O22231   5.418   6.567   5.799
 7330WAT     H122232   5.461   6.657   5.799
 7330WAT     H222233   5.472   6.505   5.741
 7331WAT      O22234   7.624   6.265   2.031
 7331WAT     H122235   7.681   6.310   2.100
 7331WAT     H222236   7.572   6.334   1.981
 7332WAT      O22237   6.879   3.219   6.911
 7332WAT     H122238   6.900   3.282   6.837
 7332WAT     H222239   6.890   3.125   6.879
 7333WAT      O22240   5.314   8.911   7.102
 7333WAT     H122241   5.261   8.827   7.116
 7333WAT     H222242   5.278   8.982   7.163
 7334WAT      O22243   4.059   0.415   2.343
 7334WAT     H122244   3.991   0.350   2.310
 7334WAT     H222245   4.108   0.375   2.421
 7335WAT      O22246   1.046   8.964   3.479
 7335WAT     H122247   1.016   9.046   3.429
 7335WAT     H222248   1.074   8.894   3.413
 7336WAT      O22249   2.225   9.308   3.335
 7336WAT     H122250   2.288   9.310   3.413
 7336WAT     H222251   2.236   9.223   3.285
 7337WAT      O22252   2.850   0.218   7.431
 7337WAT     H122253   2.798   0.132   7.425
 7337WAT     H222254   2.941   0.199   7.466
 7338WAT      O22255   4.419   0.068   6.795
 7338WAT     H122256   4.475   0.149   6.811
 7338WAT     H222257   4.356   0.056   6.872
 7339WAT      O22258   7.446   7.293   3.831
 7339WAT     H122259   7.373   7.342   3.879
 7339WAT     H222260   7.406   7.235   3.760
 7340WAT      O22261   9.846   3.829   2.668
 7340WAT     H122262   9.905   3.755   2.702
 7340WAT     H222263   9.814   3.805   2.576
 7341WAT      O22264   0.805   6.189   1.741
 7341WAT     H122265   0.894   6.143   1.743
 7341WAT     H222266   0.760   6.171   1.654
 7342WAT      O22267   7.911   5.619   9.661
 7342WAT     H122268   7.983   5.577   9.716
 7342WAT     H222269   7.947   5.701   9.617
 7343WAT      O22270   2.861   2.413   6.298
 7343WAT     H122271   2.764   2.391   6.289
 7343WAT     H222272   2.881   2.497   6.247
 7344WAT      O22273   2.485   0.344   7.757
 7344WAT     H122274   2.571   0.395   7.751
 7344WAT     H222275   2.422   0.391   7.819
 7345WAT      O22276   1.183   5.089   0.997
 7345WAT     H122277   1.160   5.026   1.071
 7345WAT     H222278   1.100   5.133   0.963
 7346WAT      O22279   2.356   8.497   7.134
 7346WAT     H122280   2.443   8.501   7.086
 7346WAT     H222281   2.282   8.526   7.073
 7347WAT      O22282   4.653   0.446   8.289
 7347WAT     H122283   4.661   0.530   8.342
 7347WAT     H222284   4.729   0.441   8.224
 7348WAT      O22285   4.569   7.434   4.723
 7348WAT     H122286   4.490   7.379   4.696
 7348WAT     H222287   4.633   7.378   4.775
 7349WAT      O22288   6.446   2.473   2.863
 7349WAT     H122289   6.530   2.451   2.913
 7349WAT     H222290   6.469   2.524   2.780
 7350WAT      O22291   5.985   6.376   8.937
 7350WAT     H122292   5.986   6.471   8.969
 7350WAT     H222293   5.924   6.322   8.996
 7351WAT      O22294   0.853   7.800   9.246
 7351WAT     H122295   0.817   7.808   9.339
 7351WAT     H222296   0.837   7.707   9.212
 7352WAT      O22297   6.601   4.176   1.476
 7352WAT     H122298   6.506   4.145   1.469
 7352WAT     H222299   6.618   4.246   1.406
 7353WAT      O22300   5.458   1.411   1.909
 7353WAT     H122301   5.489   1.464   1.988
 7353WAT     H222302   5.482   1.459   1.825
 7354WAT      O22303   0.167   1.457   4.312
 7354WAT     H122304   0.225   1.536   4.295
 7354WAT     H222305   0.208   1.400   4.384
 7355WAT      O22306   4.477   8.733   2.593
 7355WAT     H122307   4.569   8.735   2.633
 7355WAT     H222308   4.415   8.684   2.655
 7356WAT      O22309   1.930   0.074   1.550
 7356WAT     H122310   1.919   0.042   1.644
 7356WAT     H222311   2.027   0.081   1.528
 7357WAT      O22312   9.350   5.638   9.106
 7357WAT     H122313   9.275   5.660   9.043
 7357WAT     H222314   9.408   5.719   9.119
 7358WAT      O22315   3.723   8.881   5.364
 7358WAT     H122316   3.755   8.799   5.317
 7358WAT     H222317   3.787   8.904   5.438
 7359WAT      O22318   4.503   0.222   5.165
 7359WAT     H122319   4.445   0.304   5.165
 7359WAT     H222320   4.523   0.195   5.260
 7360WAT      O22321   9.536   7.927   3.309
 7360WAT     H122322   9.635   7.932   3.294
 7360WAT     H222323   9.502   8.018   3.334
 7361WAT      O22324   1.848   9.538   0.534
 7361WAT     H122325   1.757   9.578   0.546
 7361WAT     H222326   1.890   9.522   0.624
 7362WAT      O22327   7.532   9.649   2.950
 7362WAT     H122328   7.513   9.692   2.862
 7362WAT     H222329   7.587   9.712   3.006
 7363WAT      O22330   1.208   5.755   9.777
 7363WAT     H122331   1.187   5.852   9.782
 7363WAT     H222332   1.202   5.725   9.681
 7364WAT      O22333   3.417   2.647   0.629
 7364WAT     H122334   3.408   2.649   0.530
 7364WAT     H222335   3.341   2.596   0.669
 7365WAT      O22336   2.544   4.066   1.829
 7365WAT     H122337   2.498   4.078   1.916
 7365WAT     H222338   2.636   4.104   1.834
 7366WAT      O22339   4.205   0.344   6.568
 7366WAT     H122340   4.297   0.316   6.541
 7366WAT     H222341   4.144   0.264   6.566
 7367WAT      O22342   1.127   6.159   2.679
 7367WAT     H122343   1.150   6.115   2.765
 7367WAT     H222344   1.029   6.177   2.675
 7368WAT      O22345   0.353   5.254   9.001
 7368WAT     H122346   0.369   5.246   9.099
 7368WAT     H222347   0.441   5.263   8.954
 7369WAT      O22348   3.820   3.565   1.551
 7369WAT     H122349   3.906   3.516   1.563
 7369WAT     H222350   3.829   3.633   1.479
 7370WAT      O22351   6.850   1.150   5.769
 7370WAT     H122352   6.835   1.244   5.738
 7370WAT     H222353   6.787   1.129   5.844
 7371WAT      O22354   1.181   0.421   4.404
 7371WAT     H122355   1.187   0.434   4.503
 7371WAT     H222356   1.122   0.492   4.365
 7372WAT      O22357   3.381   0.712   3.890
 7372WAT     H122358   3.373   0.621   3.849
 7372WAT     H222359   3.447   0.709   3.964
 7373WAT      O22360   7.416   0.906   6.799
 7373WAT     H122361   7.496   0.962   6.778
 7373WAT     H222362   7.349   0.961   6.850
 7374WAT      O22363   6.785   3.762   7.349
 7374WAT     H122364   6.798   3.686   7.411
 7374WAT     H222365   6.873   3.804   7.328
 7375WAT      O22366   8.816   5.358   4.291
 7375WAT     H122367   8.819   5.378   4.389
 7375WAT     H222368   8.875   5.280   4.271
 7376WAT      O22369   2.875   1.721   3.567
 7376WAT     H122370   2.807   1.677   3.627
 7376WAT     H222371   2.925   1.650   3.517
 7377WAT      O22372   3.297   3.189   7.038
 7377WAT     H122373   3.373   3.203   7.101
 7377WAT     H222374   3.307   3.101   6.993
 7378WAT      O22375   6.951   0.403   1.918
 7378WAT     H122376   7.041   0.416   1.959
 7378WAT     H222377   6.899   0.337   1.972
 7379WAT      O22378   4.057   7.635   4.404
 7379WAT     H122379   4.017   7.547   4.428
 7379WAT     H222380   4.156   7.633   4.422
 7380WAT      O22381   3.144   1.712   7.665
 7380WAT     H122382   3.146   1.756   7.754
 7380WAT     H222383   3.236   1.713   7.625
 7381WAT      O22384   5.582   9.546   3.648
 7381WAT     H122385   5.630   9.589   3.724
 7381WAT     H222386   5.528   9.469   3.681
 7382WAT      O22387   8.145   2.658   4.963
 7382WAT     H122388   8.236   2.617   4.955
 7382WAT     H222389   8.137   2.734   4.898
 7383WAT      O22390   5.196   8.664   7.147
 7383WAT     H122391   5.140   8.685   7.228
 7383WAT     H222392   5.146   8.600   7.088
 7384WAT      O22393   6.986   9.323   0.181
 7384WAT     H122394   6.971   9.285   0.272
 7384WAT     H222395   6.968   9.421   0.183
 7385WAT      O22396   4.916   0.061   0.116
 7385WAT     H122397   4.976   0.045   0.037
 7385WAT     H222398   4.967   0.110   0.186
 7386WAT      O22399   5.473   1.049   9.603
 7386WAT     H122400   5.562   1.028   9.644
 7386WAT     H222401   5.459   1.148   9.605
 7387WAT      O22402   9.002   8.068   6.087
 7387WAT     H122403   9.022   8.159   6.052
 7387WAT     H222404   8.937   8.022   6.027
 7388WAT      O22405   5.772   0.983   2.701
 7388WAT     H122406   5.822   0.979   2.788
 7388WAT     H222407   5.771   0.892   2.660
 7389WAT      O22408   6.406   1.345   2.518
 7389WAT     H122409   6.459   1.312   2.440
 7389WAT     H222410   6.338   1.410   2.487
 7390WAT      O22411   4.807   0.653   1.989
 7390WAT     H122412   4.894   0.697   2.010
 7390WAT     H222413   4.814   0.555   2.007
 7391WAT      O22414   6.154   2.051   3.834
 7391WAT     H122415   6.105   2.044   3.921
 7391WAT     H222416   6.223   1.979   3.829
 7392WAT      O22417   5.374   3.643   3.159
 7392WAT     H122418   5.461   3.612   3.198
 7392WAT     H222419   5.298   3.598   3.207
 7393WAT      O22420   7.437   3.805   6.476
 7393WAT     H122421   7.444   3.874   6.548
 7393WAT     H222422   7.387   3.843   6.398
 7394WAT      O22423   0.026   0.690   8.595
 7394WAT     H122424  -0.046   0.755   8.616
 7394WAT     H222425   0.115   0.728   8.622
 7395WAT      O22426   1.694   3.718   6.209
 7395WAT     H122427   1.628   3.760   6.147
 7395WAT     H222428   1.646   3.674   6.285
 7396WAT      O22429   3.541   6.998   7.952
 7396WAT     H122430   3.601   7.077   7.944
 7396WAT     H222431   3.455   7.015   7.904
 7397WAT      O22432   2.724   5.905   3.836
 7397WAT     H122433   2.767   5.995   3.832
 7397WAT     H222434   2.792   5.835   3.816
 7398WAT      O22435   7.774   5.929   7.278
 7398WAT     H122436   7.679   5.951   7.255
 7398WAT     H222437   7.833   6.006   7.254
 7399WAT      O22438   2.247   7.872   5.665
 7399WAT     H122439   2.259   7.967   5.636
 7399WAT     H222440   2.325   7.818   5.633
 7400WAT      O22441   8.726   8.257   1.727
 7400WAT     H122442   8.823   8.279   1.741
 7400WAT     H222443   8.717   8.192   1.652
 7401WAT      O22444   6.667   2.667   7.534
 7401WAT     H122445   6.672   2.567   7.530
 7401WAT     H222446   6.758   2.705   7.544
 7402WAT      O22447   3.202   0.874   7.984
 7402WAT     H122448   3.118   0.862   7.930
 7402WAT     H222449   3.242   0.785   8.003
 7403WAT      O22450   5.687   7.571   5.536
 7403WAT     H122451   5.772   7.588   5.487
 7403WAT     H222452   5.625   7.648   5.524
 7404WAT      O22453   0.919   7.930   9.700
 7404WAT     H122454   0.961   8.016   9.672
 7404WAT     H222455   0.942   7.911   9.795
 7405WAT      O22456   6.714   9.150   8.066
 7405WAT     H122457   6.676   9.212   8.134
 7405WAT     H222458   6.674   9.059   8.078
 7406WAT      O22459   4.315   0.362   4.212
 7406WAT     H122460   4.305   0.458   4.238
 7406WAT     H222461   4.404   0.349   4.167
 7407WAT      O22462   4.262   8.269   5.030
 7407WAT     H122463   4.344   8.229   4.987
 7407WAT     H222464   4.201   8.304   4.959
 7408WAT      O22465   1.845   3.203   2.141
 7408WAT     H122466   1.938   3.166   2.133
 7408WAT     H222467   1.782   3.129   2.167
 7409WAT      O22468   4.072   7.521   1.636
 7409WAT     H122469   4.110   7.606   1.673
 7409WAT     H222470   3.978   7.537   1.605
 7410WAT      O22471   5.158   7.314   0.909
 7410WAT     H122472   5.126   7.285   0.819
 7410WAT     H222473   5.135   7.411   0.924
 7411WAT      O22474   3.326   9.393   8.787
 7411WAT     H122475   3.402   9.458   8.797
 7411WAT     H222476   3.354   9.317   8.729
 7412WAT      O22477   7.581   5.009   8.796
 7412WAT     H122478   7.641   4.978   8.870
 7412WAT     H222479   7.578   4.940   8.724
 7413WAT      O22480   9.596   0.042   3.894
 7413WAT     H122481   9.575  -0.049   3.931
 7413WAT     H222482   9.694   0.050   3.879
 7414WAT      O22483   5.287   4.414   7.090
 7414WAT     H122484   5.363   4.459   7.135
 7414WAT     H222485   5.272   4.455   7.000
 7415WAT      O22486   6.009   0.030   1.772
 7415WAT     H122487   5.923   0.078   1.788
 7415WAT     H222488   6.084   0.079   1.817
 7416WAT      O22489   0.774   1.453   4.474
 7416WAT     H122490   0.683   1.493   4.462
 7416WAT     H222491   0.805   1.468   4.568
 7417WAT      O22492   4.856   0.479   5.370
 7417WAT     H122493   4.809   0.413   5.312
 7417WAT     H222494   4.922   0.530   5.316
 7418WAT      O22495   2.903   5.637   1.691
 7418WAT     H122496   2.951   5.715   1.652
 7418WAT     H222497   2.970   5.576   1.736
 7419WAT      O22498   4.042   6.975   2.842
 7419WAT     H122499   4.070   6.929   2.926
 7419WAT     H222500   4.068   6.920   2.763
 7420WAT      O22501   7.440   8.590   0.167
 7420WAT     H122502   7.383   8.671   0.173
 7420WAT     H222503   7.423   8.531   0.247
 7421WAT      O22504   8.071   6.396   2.274
 7421WAT     H122505   8.113   6.453   2.344
 7421WAT     H222506   8.142   6.349   2.222
 7422WAT      O22507   0.997   5.542   2.762
 7422WAT     H122508   0.983   5.580   2.854
 7422WAT     H222509   0.983   5.614   2.694
 7423WAT      O22510   5.928   9.778   7.818
 7423WAT     H122511   5.925   9.834   7.900
 7423WAT     H222512   5.973   9.691   7.838
 7424WAT      O22513   0.228   5.774   7.098
 7424WAT     H122514   0.207   5.777   7.000
 7424WAT     H222515   0.171   5.705   7.142
 7425WAT      O22516   0.389   7.252   2.475
 7425WAT     H122517   0.467   7.190   2.477
 7425WAT     H222518   0.419   7.342   2.444
 7426WAT      O22519   5.909   9.150   7.606
 7426WAT     H122520   5.826   9.196   7.638
 7426WAT     H222521   5.988   9.184   7.657
 7427WAT      O22522   1.624   1.135   1.273
 7427WAT     H122523   1.614   1.226   1.313
 7427WAT     H222524   1.673   1.143   1.186
 7428WAT      O22525   1.156   9.366   8.323
 7428WAT     H122526   1.104   9.429   8.381
 7428WAT     H222527   1.225   9.418   8.272
 7429WAT      O22528   2.238   3.228   2.120
 7429WAT     H122529   2.234   3.159   2.192
 7429WAT     H222530   2.239   3.183   2.031
 7430WAT      O22531   7.606   8.333   2.126
 7430WAT     H122532   7.567   8.241   2.136
 7430WAT     H222533   7.701   8.326   2.094
 7431WAT      O22534   8.460   8.337   8.543
 7431WAT     H122535   8.482   8.332   8.446
 7431WAT     H222536   8.364   8.312   8.556
 7432WAT      O22537   8.331   9.101   7.350
 7432WAT     H122538   8.353   9.012   7.309
 7432WAT     H222539   8.265   9.088   7.423
 7433WAT      O22540   9.639   2.546   8.299
 7433WAT     H122541   9.691   2.570   8.218
 7433WAT     H222542   9.574   2.619   8.320
 7434WAT      O22543   5.801   2.579   5.923
 7434WAT     H122544   5.798   2.610   5.828
 7434WAT     H222545   5.719   2.611   5.971
 7435WAT      O22546   6.134   1.528   2.651
 7435WAT     H122547   6.180   1.518   2.564
 7435WAT     H222548   6.103   1.438   2.683
 7436WAT      O22549   3.857   4.111   7.230
 7436WAT     H122550   3.954   4.089   7.244
 7436WAT     H222551   3.829   4.178   7.298
 7437WAT      O22552   0.226   7.890   3.557
 7437WAT     H122553   0.146   7.843   3.595
 7437WAT     H222554   0.216   7.901   3.459
 7438WAT      O22555   8.408   9.642   6.845
 7438WAT     H122556   8.324   9.648   6.899
 7438WAT     H222557   8.441   9.734   6.824
 7439WAT      O22558   4.032   5.769   2.664
 7439WAT     H122559   4.093   5.728   2.732
 7439WAT     H222560   3.986   5.848   2.704
 7440WAT      O22561   0.589   5.167   4.480
 7440WAT     H122562   0.668   5.146   4.422
 7440WAT     H222563   0.554   5.258   4.457
 7441WAT      O22564   9.340   2.695   8.599
 7441WAT     H122565   9.417   2.653   8.648
 7441WAT     H222566   9.348   2.675   8.501
 7442WAT      O22567   2.083   4.196   9.355
 7442WAT     H122568   2.151   4.268   9.341
 7442WAT     H222569   2.074   4.177   9.453
 7443WAT      O22570   0.161   1.947   5.538
 7443WAT     H122571   0.122   1.860   5.569
 7443WAT     H222572   0.234   1.974   5.601
 7444WAT      O22573   3.288   3.819   6.628
 7444WAT     H122574   3.199   3.781   6.654
 7444WAT     H222575   3.355   3.745   6.618
 7445WAT      O22576   7.251   2.609   4.541
 7445WAT     H122577   7.175   2.671   4.561
 7445WAT     H222578   7.232   2.560   4.456
 7446WAT      O22579   6.484   6.977   3.212
 7446WAT     H122580   6.445   6.887   3.196
 7446WAT     H222581   6.468   7.035   3.132
 7447WAT      O22582   3.488   7.386   2.859
 7447WAT     H122583   3.549   7.320   2.816
 7447WAT     H222584   3.404   7.395   2.805
 7448WAT      O22585   8.710   8.268   3.649
 7448WAT     H122586   8.702   8.345   3.586
 7448WAT     H222587   8.668   8.291   3.737
 7449WAT      O22588   7.668   0.451   3.140
 7449WAT     H122589   7.678   0.460   3.239
 7449WAT     H222590   7.754   0.476   3.096
 7450WAT      O22591   3.379   2.910   7.332
 7450WAT     H122592   3.445   2.976   7.296
 7450WAT     H222593   3.373   2.920   7.431
 7451WAT      O22594   4.347   0.466   5.173
 7451WAT     H122595   4.406   0.535   5.131
 7451WAT     H222596   4.255   0.473   5.137
 7452WAT      O22597   9.713   6.929   3.014
 7452WAT     H122598   9.724   7.022   3.046
 7452WAT     H222599   9.621   6.918   2.975
 7453WAT      O22600   8.353   2.977   4.149
 7453WAT     H122601   8.412   2.967   4.069
 7453WAT     H222602   8.405   2.954   4.231
 7454WAT      O22603   5.732   1.951   4.819
 7454WAT     H122604   5.690   2.042   4.820
 7454WAT     H222605   5.679   1.890   4.760
 7455WAT      O22606   4.890   0.849   4.452
 7455WAT     H122607   4.954   0.918   4.419
 7455WAT     H222608   4.937   0.761   4.459
 7456WAT      O22609   7.917   0.004   7.432
 7456WAT     H122610   7.993  -0.016   7.494
 7456WAT     H222611   7.836  -0.048   7.460
 7457WAT      O22612   5.410   4.765   8.229
 7457WAT     H122613   5.320   4.802   8.253
 7457WAT     H222614   5.479   4.802   8.290
 7458WAT      O22615   8.411   7.545   1.106
 7458WAT     H122616   8.481   7.558   1.036
 7458WAT     H222617   8.407   7.449   1.133
 7459WAT      O22618   9.066   5.322   0.533
 7459WAT     H122619   9.142   5.258   0.526
 7459WAT     H222620   9.089   5.406   0.482
 7460WAT      O22621   1.031   0.792   9.080
 7460WAT     H122622   0.973   0.743   9.015
 7460WAT     H222623   0.991   0.882   9.098
 7461WAT      O22624   1.347   5.067   1.948
 7461WAT     H122625   1.433   5.023   1.921
 7461WAT     H222626   1.275   4.998   1.956
 7462WAT      O22627   4.164   1.774   7.576
 7462WAT     H122628   4.155   1.705   7.504
 7462WAT     H222629   4.234   1.841   7.550
 7463WAT      O22630   1.498   4.191   2.470
 7463WAT     H122631   1.408   4.207   2.510
 7463WAT     H222632   1.568   4.197   2.541
 7464WAT      O22633   8.387   4.219   3.736
 7464WAT     H122634   8.347   4.311   3.730
 7464WAT     H222635   8.484   4.227   3.759
 7465WAT      O22636   1.992   2.320   8.890
 7465WAT     H122637   1.903   2.280   8.870
 7465WAT     H222638   2.017   2.298   8.984
 7466WAT      O22639   8.102   2.662   2.776
 7466WAT     H122640   8.017   2.668   2.723
 7466WAT     H222641   8.140   2.753   2.790
 7467WAT      O22642   3.728   4.866   1.502
 7467WAT     H122643   3.635   4.899   1.486
 7467WAT     H222644   3.739   4.775   1.462
 7468WAT      O22645   8.593   4.451   6.658
 7468WAT     H122646   8.613   4.530   6.600
 7468WAT     H222647   8.498   4.424   6.646
 7469WAT      O22648   9.708   3.644   1.576
 7469WAT     H122649   9.790   3.597   1.545
 7469WAT     H222650   9.686   3.719   1.513
 7470WAT      O22651   5.483   5.744   9.189
 7470WAT     H122652   5.482   5.649   9.159
 7470WAT     H222653   5.577   5.776   9.194
 7471WAT      O22654   8.614   3.679   9.335
 7471WAT     H122655   8.645   3.586   9.315
 7471WAT     H222656   8.587   3.686   9.431
 7472WAT      O22657   3.135   0.277   8.874
 7472WAT     H122658   3.215   0.249   8.927
 7472WAT     H222659   3.069   0.201   8.871
 7473WAT      O22660   3.846   4.914   8.017
 7473WAT     H122661   3.829   4.951   7.926
 7473WAT     H222662   3.771   4.941   8.078
 7474WAT      O22663   8.185   3.042   9.375
 7474WAT     H122664   8.188   3.084   9.285
 7474WAT     H222665   8.266   2.984   9.387
 7475WAT      O22666   9.202   0.046   0.976
 7475WAT     H122667   9.230  -0.041   0.936
 7475WAT     H222668   9.226   0.047   1.073
 7476WAT      O22669   3.721   8.475   4.080
 7476WAT     H122670   3.808   8.492   4.126
 7476WAT     H222671   3.739   8.452   3.984
 7477WAT      O22672   7.065   8.551   3.614
 7477WAT     H122673   7.068   8.637   3.562
 7477WAT     H222674   7.157   8.513   3.622
 7478WAT      O22675   2.131   0.726   1.366
 7478WAT     H122676   2.039   0.687   1.360
 7478WAT     H222677   2.183   0.678   1.436
 7479WAT      O22678   8.779   7.959   7.440
 7479WAT     H122679   8.758   8.050   7.405
 7479WAT     H222680   8.870   7.932   7.408
 7480WAT      O22681   4.655   6.820   6.906
 7480WAT     H122682   4.660   6.919   6.922
 7480WAT     H222683   4.635   6.773   6.992
 7481WAT      O22684   4.066   2.895   1.993
 7481WAT     H122685   4.148   2.939   1.958
 7481WAT     H222686   4.052   2.921   2.089
 7482WAT      O22687   0.591   9.560   3.033
 7482WAT     H122688   0.652   9.608   2.969
 7482WAT     H222689   0.629   9.566   3.125
 7483WAT      O22690   8.692   3.466   6.155
 7483WAT     H122691   8.716   3.386   6.210
 7483WAT     H222692   8.593   3.480   6.157
 7484WAT      O22693   1.343   2.658   0.506
 7484WAT     H122694   1.334   2.628   0.411
 7484WAT     H222695   1.434   2.635   0.539
 7485WAT      O22696   9.464   4.973   0.870
 7485WAT     H122697   9.407   4.930   0.800
 7485WAT     H222698   9.542   5.017   0.826
 7486WAT      O22699   1.424   8.666   3.693
 7486WAT     H122700   1.417   8.720   3.776
 7486WAT     H222701   1.433   8.726   3.614
 7487WAT      O22702   9.852   5.334   4.515
 7487WAT     H122703   9.842   5.427   4.549
 7487WAT     H222704   9.870   5.272   4.592
 7488WAT      O22705   7.404   7.218   5.169
 7488WAT     H122706   7.370   7.300   5.123
 7488WAT     H222707   7.428   7.240   5.264
 7489WAT      O22708   1.017   6.004   4.701
 7489WAT     H122709   1.037   5.934   4.770
 7489WAT     H222710   0.938   5.975   4.646
 7490WAT      O22711   1.285   8.632   8.707
 7490WAT     H122712   1.228   8.686   8.645
 7490WAT     H222713   1.364   8.597   8.656
 7491WAT      O22714   1.647   1.414   9.618
 7491WAT     H122715   1.653   1.504   9.660
 7491WAT     H222716   1.729   1.361   9.641
 7492WAT      O22717   2.543   7.842   2.393
 7492WAT     H122718   2.450   7.879   2.394
 7492WAT     H222719   2.542   7.747   2.425
 7493WAT      O22720   5.165   0.567   1.030
 7493WAT     H122721   5.109   0.640   1.068
 7493WAT     H222722   5.241   0.549   1.093
 7494WAT      O22723   1.807   3.748   3.524
 7494WAT     H122724   1.721   3.788   3.558
 7494WAT     H222725   1.883   3.807   3.550
 7495WAT      O22726   0.165   8.933   2.192
 7495WAT     H122727   0.125   8.898   2.276
 7495WAT     H222728   0.123   8.886   2.114
 7496WAT      O22729   0.558   9.525   3.746
 7496WAT     H122730   0.585   9.469   3.824
 7496WAT     H222731   0.551   9.621   3.775
 7497WAT      O22732   1.932   1.677   7.370
 7497WAT     H122733   1.870   1.730   7.428
 7497WAT     H222734   1.884   1.648   7.287
 7498WAT      O22735   8.753   8.477   8.319
 7498WAT     H122736   8.797   8.388   8.306
 7498WAT     H222737   8.654   8.468   8.304
 7499WAT      O22738   1.488   6.200   5.971
 7499WAT     H122739   1.556   6.219   5.900
 7499WAT     H222740   1.400   6.178   5.929
 7500WAT      O22741   6.961   7.571   9.334
 7500WAT     H122742   7.040   7.598   9.390
 7500WAT     H222743   6.899   7.514   9.388
 7501WAT      O22744   8.388   6.402   0.509
 7501WAT     H122745   8.352   6.369   0.422
 7501WAT     H222746   8.355   6.344   0.583
 7502WAT      O22747   9.159   9.383   0.972
 7502WAT     H122748   9.209   9.333   1.043
 7502WAT     H222749   9.131   9.320   0.901
 7503WAT      O22750   8.068   2.081   5.888
 7503WAT     H122751   7.986   2.137   5.876
 7503WAT     H222752   8.081   2.022   5.809
 7504WAT      O22753   6.856   2.297   3.692
 7504WAT     H122754   6.834   2.294   3.789
 7504WAT     H222755   6.955   2.304   3.680
 7505WAT      O22756   4.998   9.607   2.218
 7505WAT     H122757   5.027   9.699   2.244
 7505WAT     H222758   5.061   9.570   2.149
 7506WAT      O22759   2.480   4.198   8.688
 7506WAT     H122760   2.412   4.262   8.721
 7506WAT     H222761   2.565   4.248   8.666
 7507WAT      O22762   4.850   6.954   4.144
 7507WAT     H122763   4.906   6.976   4.064
 7507WAT     H222764   4.753   6.966   4.121
 7508WAT      O22765   8.504   1.941   4.524
 7508WAT     H122766   8.520   2.025   4.577
 7508WAT     H222767   8.590   1.893   4.511
 7509WAT      O22768   2.224   6.443   7.704
 7509WAT     H122769   2.300   6.378   7.711
 7509WAT     H222770   2.138   6.392   7.701
 7510WAT      O22771   1.426   7.705   9.060
 7510WAT     H122772   1.426   7.674   9.155
 7510WAT     H222773   1.364   7.783   9.051
 7511WAT      O22774   2.483   4.547   5.618
 7511WAT     H122775   2.523   4.457   5.632
 7511WAT     H222776   2.433   4.548   5.531
 7512WAT      O22777   4.427   4.971   5.852
 7512WAT     H122778   4.402   5.064   5.878
 7512WAT     H222779   4.527   4.962   5.849
 7513WAT      O22780   1.505   2.202   8.088
 7513WAT     H122781   1.505   2.132   8.159
 7513WAT     H222782   1.519   2.159   7.999
 7514WAT      O22783   5.090   4.177   3.294
 7514WAT     H122784   5.014   4.212   3.347
 7514WAT     H222785   5.151   4.124   3.353
 7515WAT      O22786   9.319   5.348   9.074
 7515WAT     H122787   9.238   5.328   9.129
 7515WAT     H222788   9.353   5.439   9.095
 7516WAT      O22789   6.511   2.755   5.576
 7516WAT     H122790   6.532   2.852   5.587
 7516WAT     H222791   6.412   2.743   5.569
 7517WAT      O22792   5.861   9.196   4.479
 7517WAT     H122793   5.916   9.247   4.545
 7517WAT     H222794   5.896   9.102   4.472
 7518WAT      O22795   8.193   0.312   5.850
 7518WAT     H122796   8.248   0.389   5.881
 7518WAT     H222797   8.172   0.252   5.928
 7519WAT      O22798   7.373   7.081   0.558
 7519WAT     H122799   7.469   7.098   0.580
 7519WAT     H222800   7.347   6.990   0.590
 7520WAT      O22801   2.515   1.016   5.253
 7520WAT     H122802   2.455   0.949   5.296
 7520WAT     H222803   2.502   1.015   5.154
 7521WAT      O22804   2.939   8.405   6.382
 7521WAT     H122805   3.009   8.375   6.316
 7521WAT     H222806   2.854   8.424   6.333
 7522WAT      O22807   3.747   5.797   6.915
 7522WAT     H122808   3.649   5.777   6.924
 7522WAT     H222809   3.760   5.892   6.889
 7523WAT      O22810   8.308   1.213   7.288
 7523WAT     H122811   8.384   1.251   7.342
 7523WAT     H222812   8.343   1.183   7.199
 7524WAT      O22813   6.429   3.743   4.191
 7524WAT     H122814   6.388   3.732   4.282
 7524WAT     H222815   6.522   3.777   4.200
 7525WAT      O22816   6.584   3.346   1.683
 7525WAT     H122817   6.566   3.347   1.584
 7525WAT     H222818   6.600   3.439   1.715
 7526WAT      O22819   7.330   7.610   8.433
 7526WAT     H122820   7.259   7.632   8.500
 7526WAT     H222821   7.419   7.611   8.479
 7527WAT      O22822   8.169   7.346   4.114
 7527WAT     H122823   8.096   7.278   4.113
 7527WAT     H222824   8.178   7.384   4.205
 7528WAT      O22825   2.186   2.330   5.563
 7528WAT     H122826   2.258   2.279   5.611
 7528WAT     H222827   2.113   2.268   5.538
 7529WAT      O22828   0.998   3.706   3.923
 7529WAT     H122829   1.011   3.656   4.008
 7529WAT     H222830   0.901   3.705   3.898
 7530WAT      O22831   7.597   1.509   1.400
 7530WAT     H122832   7.685   1.472   1.429
 7530WAT     H222833   7.535   1.512   1.479
 7531WAT      O22834   8.934   9.454   3.445
 7531WAT     H122835   8.895   9.542   3.473
 7531WAT     H222836   8.936   9.392   3.524
 7532WAT      O22837   8.191   9.575   0.244
 7532WAT     H122838   8.149   9.485   0.254
 7532WAT     H222839   8.235   9.582   0.155
 7533WAT      O22840   2.249   0.753   8.481
 7533WAT     H122841   2.290   0.755   8.390
 7533WAT     H222842   2.193   0.671   8.490
 7534WAT      O22843   7.635   3.941   2.594
 7534WAT     H122844   7.593   3.873   2.654
 7534WAT     H222845   7.724   3.968   2.632
 7535WAT      O22846   7.610   3.768   6.959
 7535WAT     H122847   7.523   3.795   6.917
 7535WAT     H222848   7.677   3.841   6.944
 7536WAT      O22849   7.452   0.235   2.231
 7536WAT     H122850   7.378   0.176   2.264
 7536WAT     H222851   7.421   0.330   2.233
 7537WAT      O22852   3.310   3.440   6.175
 7537WAT     H122853   3.306   3.394   6.087
 7537WAT     H222854   3.404   3.468   6.194
 7538WAT      O22855   5.537   0.699   6.120
 7538WAT     H122856   5.614   0.639   6.098
 7538WAT     H222857   5.572   0.785   6.157
 7539WAT      O22858   2.301   8.086   0.416
 7539WAT     H122859   2.361   8.097   0.337
 7539WAT     H222860   2.266   8.175   0.445
 7540WAT      O22861   9.259   2.157   3.199
 7540WAT     H122862   9.259   2.059   3.217
 7540WAT     H222863   9.230   2.173   3.104
 7541WAT      O22864   9.325   2.787   5.413
 7541WAT     H122865   9.322   2.742   5.502
 7541WAT     H222866   9.314   2.718   5.341
 7542WAT      O22867   9.142   4.459   6.787
 7542WAT     H122868   9.229   4.468   6.836
 7542WAT     H222869   9.129   4.364   6.760
 7543WAT      O22870   1.104   9.038   7.974
 7543WAT     H122871   1.070   8.950   8.008
 7543WAT     H222872   1.153   9.023   7.888
 7544WAT      O22873   5.912   1.727   0.409
 7544WAT     H122874   5.903   1.733   0.508
 7544WAT     H222875   5.864   1.646   0.375
 7545WAT      O22876   7.373   3.535   6.582
 7545WAT     H122877   7.350   3.632   6.581
 7545WAT     H222878   7.430   3.513   6.503
 7546WAT      O22879   5.019   4.829   6.276
 7546WAT     H122880   5.077   4.791   6.204
 7546WAT     H222881   5.019   4.929   6.270
 7547WAT      O22882   6.909   2.628   4.793
 7547WAT     H122883   6.872   2.664   4.879
 7547WAT     H222884   6.949   2.703   4.740
 7548WAT      O22885   3.125   4.128   4.339
 7548WAT     H122886   3.039   4.146   4.293
 7548WAT     H222887   3.179   4.063   4.286
 7549WAT      O22888   3.518   9.163   5.200
 7549WAT     H122889   3.430   9.135   5.162
 7549WAT     H222890   3.590   9.144   5.134
 7550WAT      O22891   8.718   2.901   3.981
 7550WAT     H122892   8.811   2.931   4.000
 7550WAT     H222893   8.717   2.802   3.971
 7551WAT      O22894   6.448   7.935   4.219
 7551WAT     H122895   6.400   8.003   4.163
 7551WAT     H222896   6.541   7.967   4.238
 7552WAT      O22897   5.554   1.937   7.803
 7552WAT     H122898   5.526   1.924   7.898
 7552WAT     H222899   5.651   1.914   7.793
 7553WAT      O22900   4.329   1.940   0.548
 7553WAT     H122901   4.377   1.888   0.477
 7553WAT     H222902   4.310   2.033   0.514
 7554WAT      O22903   2.685   8.591   8.006
 7554WAT     H122904   2.752   8.666   8.015
 7554WAT     H222905   2.676   8.544   8.094
 7555WAT      O22906   9.120   7.723   8.140
 7555WAT     H122907   9.217   7.727   8.165
 7555WAT     H222908   9.066   7.694   8.220
 7556WAT      O22909   7.718   7.004   2.506
 7556WAT     H122910   7.667   7.047   2.581
 7556WAT     H222911   7.807   7.049   2.497
 7557WAT      O22912   1.928   2.972   7.733
 7557WAT     H122913   1.843   3.020   7.714
 7557WAT     H222914   1.981   3.024   7.801
 7558WAT      O22915   6.747   3.894   0.918
 7558WAT     H122916   6.784   3.941   0.998
 7558WAT     H222917   6.820   3.879   0.851
 7559WAT      O22918   7.822   6.121   3.957
 7559WAT     H122919   7.760   6.193   3.927
 7559WAT     H222920   7.801   6.036   3.908
 7560WAT      O22921   0.439   1.101   1.911
 7560WAT     H122922   0.510   1.031   1.918
 7560WAT     H222923   0.351   1.061   1.933
 7561WAT      O22924   2.130   7.422   6.342
 7561WAT     H122925   2.158   7.390   6.252
 7561WAT     H222926   2.126   7.345   6.405
 7562WAT      O22927   5.268   4.323   8.223
 7562WAT     H122928   5.175   4.287   8.231
 7562WAT     H222929   5.291   4.376   8.304
 7563WAT      O22930   1.806   3.661   1.991
 7563WAT     H122931   1.898   3.674   1.952
 7563WAT     H222932   1.783   3.740   2.049
 7564WAT      O22933   4.949   6.963   0.630
 7564WAT     H122934   4.914   6.872   0.607
 7564WAT     H222935   5.049   6.958   0.641
 7565WAT      O22936   4.380   9.393   5.554
 7565WAT     H122937   4.456   9.457   5.542
 7565WAT     H222938   4.298   9.443   5.580
 7566WAT      O22939   1.601   2.142   5.978
 7566WAT     H122940   1.649   2.159   6.064
 7566WAT     H222941   1.548   2.058   5.986
 7567WAT      O22942   2.053   4.054   1.357
 7567WAT     H122943   2.053   4.154   1.353
 7567WAT     H222944   2.011   4.024   1.443
 7568WAT      O22945   0.908   8.835   6.212
 7568WAT     H122946   0.898   8.744   6.170
 7568WAT     H222947   0.829   8.854   6.270
 7569WAT      O22948   2.478   9.709   2.904
 7569WAT     H122949   2.514   9.695   2.812
 7569WAT     H222950   2.480   9.806   2.926
 7570WAT      O22951   6.498   9.476   7.296
 7570WAT     H122952   6.585   9.521   7.316
 7570WAT     H222953   6.434   9.490   7.371
 7571WAT      O22954   4.198   3.229   5.954
 7571WAT     H122955   4.251   3.303   5.913
 7571WAT     H222956   4.249   3.190   6.031
 7572WAT      O22957   7.771   7.295   7.355
 7572WAT     H122958   7.811   7.314   7.265
 7572WAT     H222959   7.820   7.346   7.425
 7573WAT      O22960   7.546   7.529   0.386
 7573WAT     H122961   7.627   7.524   0.327
 7573WAT     H222962   7.569   7.578   0.470
 7574WAT      O22963   8.886   5.467   7.089
 7574WAT     H122964   8.943   5.401   7.042
 7574WAT     H222965   8.941   5.545   7.118
 7575WAT      O22966   1.042   1.242   6.708
 7575WAT     H122967   0.969   1.239   6.640
 7575WAT     H222968   1.128   1.212   6.668
 7576WAT      O22969   5.400   0.149   4.811
 7576WAT     H122970   5.389   0.199   4.897
 7576WAT     H222971   5.346   0.065   4.813
 7577WAT      O22972   9.342   6.226   9.467
 7577WAT     H122973   9.275   6.182   9.527
 7577WAT     H222974   9.302   6.307   9.426
 7578WAT      O22975   7.282   5.662   8.864
 7578WAT     H122976   7.276   5.621   8.955
 7578WAT     H222977   7.350   5.613   8.810
 7579WAT      O22978   3.321   5.674   8.347
 7579WAT     H122979   3.408   5.625   8.340
 7579WAT     H222980   3.307   5.702   8.442
 7580WAT      O22981   0.182   7.903   4.014
 7580WAT     H122982   0.118   7.958   4.067
 7580WAT     H222983   0.145   7.810   4.003
 7581WAT      O22984   5.203   7.778   0.526
 7581WAT     H122985   5.239   7.790   0.434
 7581WAT     H222986   5.176   7.683   0.540
 7582WAT      O22987   0.517   4.808   2.761
 7582WAT     H122988   0.531   4.714   2.790
 7582WAT     H222989   0.587   4.833   2.693
 7583WAT      O22990   6.612   7.265   2.073
 7583WAT     H122991   6.537   7.308   2.023
 7583WAT     H222992   6.638   7.180   2.028
 7584WAT      O22993   7.486   1.593   4.926
 7584WAT     H122994   7.584   1.597   4.906
 7584WAT     H222995   7.470   1.532   5.004
 7585WAT      O22996   2.729   9.391   1.205
 7585WAT     H122997   2.635   9.365   1.226
 7585WAT     H222998   2.758   9.463   1.268
 7586WAT      O22999   3.282   1.357   9.434
 7586WAT     H123000   3.379   1.331   9.437
 7586WAT     H223001   3.233   1.293   9.375
 7587WAT      O23002   9.796   1.069   0.095
 7587WAT     H123003   9.895   1.064   0.112
 7587WAT     H223004   9.773   1.160   0.061
 7588WAT      O23005   5.545   0.652   6.668
 7588WAT     H123006   5.447   0.638   6.678
 7588WAT     H223007   5.591   0.634   6.755
 7589WAT      O23008   0.160   2.243   9.398
 7589WAT     H123009   0.142   2.150   9.367
 7589WAT     H223010   0.074   2.287   9.425
 7590WAT      O23011   7.210   1.799   4.540
 7590WAT     H123012   7.127   1.743   4.548
 7590WAT     H223013   7.282   1.760   4.597
 7591WAT      O23014   5.301   2.651   1.962
 7591WAT     H123015   5.244   2.591   2.018
 7591WAT     H223016   5.288   2.629   1.866
 7592WAT      O23017   2.238   6.564   0.567
 7592WAT     H123018   2.241   6.485   0.506
 7592WAT     H223019   2.182   6.636   0.526
 7593WAT      O23020   6.292   4.027   4.576
 7593WAT     H123021   6.319   4.120   4.552
 7593WAT     H223022   6.195   4.025   4.596
 7594WAT      O23023   9.426   0.193   8.879
 7594WAT     H123024   9.402   0.097   8.865
 7594WAT     H223025   9.348   0.241   8.918
 7595WAT      O23026   5.663   3.313   4.945
 7595WAT     H123027   5.716   3.232   4.973
 7595WAT     H223028   5.630   3.361   5.026
 7596WAT      O23029   6.199   0.285   7.961
 7596WAT     H123030   6.276   0.228   7.988
 7596WAT     H223031   6.167   0.258   7.870
 7597WAT      O23032   4.866   4.449   5.187
 7597WAT     H123033   4.856   4.415   5.280
 7597WAT     H223034   4.902   4.377   5.128
 7598WAT      O23035   6.806   6.741   2.261
 7598WAT     H123036   6.808   6.734   2.161
 7598WAT     H223037   6.897   6.719   2.297
 7599WAT      O23038   0.588   2.631   7.016
 7599WAT     H123039   0.495   2.609   7.044
 7599WAT     H223040   0.590   2.648   6.917
 7600WAT      O23041   3.723   1.280   5.297
 7600WAT     H123042   3.802   1.222   5.276
 7600WAT     H223043   3.652   1.225   5.341
 7601WAT      O23044   1.660   3.213   2.450
 7601WAT     H123045   1.583   3.276   2.460
 7601WAT     H223046   1.654   3.143   2.521
 7602WAT      O23047   9.467   9.212   5.722
 7602WAT     H123048   9.503   9.138   5.665
 7602WAT     H223049   9.524   9.223   5.803
 7603WAT      O23050   0.346   2.883   6.088
 7603WAT     H123051   0.392   2.929   6.163
 7603WAT     H223052   0.261   2.931   6.065
 7604WAT      O23053   1.860   7.642   9.139
 7604WAT     H123054   1.768   7.658   9.104
 7604WAT     H223055   1.927   7.683   9.076
 7605WAT      O23056   8.201   4.117   6.736
 7605WAT     H123057   8.144   4.110   6.654
 7605WAT     H223058   8.184   4.039   6.796
 7606WAT      O23059   0.363   4.911   7.994
 7606WAT     H123060   0.330   4.887   8.086
 7606WAT     H223061   0.443   4.970   8.002
 7607WAT      O23062   0.897   5.067   8.520
 7607WAT     H123063   0.914   5.087   8.423
 7607WAT     H223064   0.984   5.069   8.570
 7608WAT      O23065   9.503   2.205   3.644
 7608WAT     H123066   9.586   2.218   3.590
 7608WAT     H223067   9.526   2.207   3.742
 7609WAT      O23068   6.248   9.599   1.890
 7609WAT     H123069   6.213   9.609   1.796
 7609WAT     H223070   6.215   9.675   1.946
 7610WAT      O23071   8.292   9.371   4.874
 7610WAT     H123072   8.209   9.366   4.818
 7610WAT     H223073   8.338   9.459   4.857
 7611WAT      O23074   7.156   8.397   1.673
 7611WAT     H123075   7.057   8.381   1.677
 7611WAT     H223076   7.174   8.479   1.618
 7612WAT      O23077   9.362   1.543   5.035
 7612WAT     H123078   9.356   1.619   5.100
 7612WAT     H223079   9.407   1.465   5.078
 7613WAT      O23080   3.743   6.968   3.710
 7613WAT     H123081   3.835   6.934   3.692
 7613WAT     H223082   3.691   6.900   3.761
 7614WAT      O23083   7.998   2.191   6.139
 7614WAT     H123084   8.063   2.169   6.212
 7614WAT     H223085   8.028   2.150   6.054
 7615WAT      O23086   5.144   3.987   8.145
 7615WAT     H123087   5.076   4.043   8.191
 7615WAT     H223088   5.236   4.014   8.176
 7616WAT      O23089   5.869   8.785   6.506
 7616WAT     H123090   5.822   8.834   6.580
 7616WAT     H223091   5.878   8.845   6.426
 7617WAT      O23092   4.270   2.452   5.580
 7617WAT     H123093   4.368   2.458   5.563
 7617WAT     H223094   4.252   2.465   5.678
 7618WAT      O23095   6.971   2.828   3.583
 7618WAT     H123096   7.070   2.815   3.590
 7618WAT     H223097   6.925   2.741   3.596
 7619WAT      O23098   1.331   2.457   6.893
 7619WAT     H123099   1.253   2.414   6.848
 7619WAT     H223100   1.314   2.464   6.991
 7620WAT      O23101   9.588   6.523   2.823
 7620WAT     H123102   9.542   6.444   2.864
 7620WAT     H223103   9.678   6.534   2.864
 7621WAT      O23104   7.534   1.658   3.567
 7621WAT     H123105   7.585   1.637   3.484
 7621WAT     H223106   7.437   1.667   3.544
 7622WAT      O23107   3.177   3.191   3.816
 7622WAT     H123108   3.120   3.111   3.797
 7622WAT     H223109   3.141   3.270   3.767
 7623WAT      O23110   5.350   2.066   6.693
 7623WAT     H123111   5.372   2.074   6.790
 7623WAT     H223112   5.381   2.148   6.645
 7624WAT      O23113   5.372   6.679   8.570
 7624WAT     H123114   5.276   6.707   8.579
 7624WAT     H223115   5.418   6.691   8.658
 7625WAT      O23116   2.279   9.789   9.181
 7625WAT     H123117   2.204   9.723   9.171
 7625WAT     H223118   2.330   9.769   9.264
 7626WAT      O23119   6.898   1.878   0.058
 7626WAT     H123120   6.851   1.959   0.092
 7626WAT     H223121   6.981   1.862   0.111
 7627WAT      O23122   8.498   3.317   5.651
 7627WAT     H123123   8.431   3.275   5.589
 7627WAT     H223124   8.571   3.252   5.670
 7628WAT      O23125   5.701   4.538   2.790
 7628WAT     H123126   5.769   4.503   2.854
 7628WAT     H223127   5.610   4.505   2.815
 7629WAT      O23128   4.091   0.592   2.812
 7629WAT     H123129   4.180   0.594   2.768
 7629WAT     H223130   4.094   0.533   2.893
 7630WAT      O23131   9.141   8.013   6.305
 7630WAT     H123132   9.169   7.918   6.302
 7630WAT     H223133   9.085   8.034   6.224
 7631WAT      O23134   6.361   0.826   2.510
 7631WAT     H123135   6.454   0.841   2.542
 7631WAT     H223136   6.329   0.906   2.459
 7632WAT      O23137   6.649   0.137   9.756
 7632WAT     H123138   6.604   0.222   9.731
 7632WAT     H223139   6.719   0.155   9.826
 7633WAT      O23140   7.661   9.797   0.817
 7633WAT     H123141   7.578   9.849   0.841
 7633WAT     H223142   7.667   9.717   0.876
 7634WAT      O23143   4.346   0.557   4.852
 7634WAT     H123144   4.399   0.618   4.912
 7634WAT     H223145   4.249   0.566   4.874
 7635WAT      O23146   0.668   3.320   6.019
 7635WAT     H123147   0.709   3.408   5.998
 7635WAT     H223148   0.734   3.247   6.000
 7636WAT      O23149   9.546   2.486   5.705
 7636WAT     H123150   9.574   2.405   5.653
 7636WAT     H223151   9.559   2.468   5.803
 7637WAT      O23152   7.703   7.148   6.729
 7637WAT     H123153   7.671   7.138   6.635
 7637WAT     H223154   7.627   7.135   6.792
 7638WAT      O23155   4.581   1.299   2.323
 7638WAT     H123156   4.611   1.380   2.272
 7638WAT     H223157   4.571   1.222   2.260
 7639WAT      O23158   7.947   8.906   0.188
 7639WAT     H123159   7.922   8.943   0.099
 7639WAT     H223160   7.894   8.823   0.206
 7640WAT      O23161   8.831   1.900   5.887
 7640WAT     H123162   8.770   1.913   5.964
 7640WAT     H223163   8.780   1.912   5.801
 7641WAT      O23164   7.558   7.794   4.620
 7641WAT     H123165   7.576   7.730   4.695
 7641WAT     H223166   7.643   7.808   4.568
 7642WAT      O23167   5.309   0.627   9.209
 7642WAT     H123168   5.248   0.683   9.264
 7642WAT     H223169   5.280   0.629   9.113
 7643WAT      O23170   8.152   9.583   2.575
 7643WAT     H123171   8.180   9.619   2.664
 7643WAT     H223172   8.183   9.645   2.503
 7644WAT      O23173   9.426   9.447   8.962
 7644WAT     H123174   9.363   9.505   9.014
 7644WAT     H223175   9.512   9.496   8.946
 7645WAT      O23176   6.147   8.352   0.074
 7645WAT     H123177   6.227   8.309   0.116
 7645WAT     H223178   6.143   8.326  -0.023
 7646WAT      O23179   1.204   3.206   7.502
 7646WAT     H123180   1.288   3.161   7.472
 7646WAT     H223181   1.145   3.138   7.547
 7647WAT      O23182   3.647   1.898   0.169
 7647WAT     H123183   3.724   1.864   0.116
 7647WAT     H223184   3.660   1.873   0.265
 7648WAT      O23185   3.037   4.155   0.495
 7648WAT     H123186   3.100   4.150   0.418
 7648WAT     H223187   2.946   4.125   0.466
 7649WAT      O23188   1.251   2.888   1.705
 7649WAT     H123189   1.316   2.893   1.781
 7649WAT     H223190   1.259   2.800   1.660
 7650WAT      O23191   2.929   5.225   2.998
 7650WAT     H123192   3.016   5.255   3.038
 7650WAT     H223193   2.932   5.126   2.982
 7651WAT      O23194   1.943   6.440   6.204
 7651WAT     H123195   1.916   6.527   6.162
 7651WAT     H223196   1.934   6.447   6.303
 7652WAT      O23197   1.623   4.608   9.121
 7652WAT     H123198   1.618   4.693   9.068
 7652WAT     H223199   1.531   4.585   9.154
 7653WAT      O23200   3.124   4.932   3.230
 7653WAT     H123201   3.202   4.978   3.188
 7653WAT     H223202   3.102   4.977   3.316
 7654WAT      O23203   7.270   3.472   7.651
 7654WAT     H123204   7.281   3.376   7.626
 7654WAT     H223205   7.349   3.524   7.617
 7655WAT      O23206   3.449   9.723   4.249
 7655WAT     H123207   3.390   9.643   4.241
 7655WAT     H223208   3.513   9.725   4.172
 7656WAT      O23209   2.535   6.185   9.479
 7656WAT     H123210   2.440   6.218   9.487
 7656WAT     H223211   2.545   6.102   9.533
 7657WAT      O23212   8.917   8.109   9.492
 7657WAT     H123213   8.967   8.164   9.559
 7657WAT     H223214   8.979   8.081   9.419
 7658WAT      O23215   8.620   0.247   8.865
 7658WAT     H123216   8.688   0.241   8.792
 7658WAT     H223217   8.558   0.324   8.847
 7659WAT      O23218   5.844   6.781   6.912
 7659WAT     H123219   5.749   6.789   6.883
 7659WAT     H223220   5.893   6.864   6.885
 7660WAT      O23221   2.105   3.986   7.958
 7660WAT     H123222   2.173   4.044   8.003
 7660WAT     H223223   2.047   4.043   7.899
 7661WAT      O23224   8.787   9.467   6.929
 7661WAT     H123225   8.844   9.401   6.978
 7661WAT     H223226   8.695   9.469   6.969
 7662WAT      O23227   5.169   6.314   8.758
 7662WAT     H123228   5.145   6.353   8.847
 7662WAT     H223229   5.181   6.215   8.767
 7663WAT      O23230   9.680   9.044   8.677
 7663WAT     H123231   9.665   8.955   8.720
 7663WAT     H223232   9.634   9.046   8.588
 7664WAT      O23233   4.159   3.850   5.880
 7664WAT     H123234   4.247   3.898   5.885
 7664WAT     H223235   4.104   3.889   5.806
 7665WAT      O23236   4.051   1.355   8.692
 7665WAT     H123237   4.108   1.431   8.724
 7665WAT     H223238   3.994   1.322   8.767
 7666WAT      O23239   1.674   0.080   3.894
 7666WAT     H123240   1.721   0.037   3.970
 7666WAT     H223241   1.575   0.069   3.905
 7667WAT      O23242   2.108   5.919   6.128
 7667WAT     H123243   2.057   5.999   6.162
 7667WAT     H223244   2.122   5.855   6.203
 7668WAT      O23245   5.284   5.482   0.961
 7668WAT     H123246   5.195   5.520   0.937
 7668WAT     H223247   5.295   5.483   1.061
 7669WAT      O23248   7.389   9.235   9.066
 7669WAT     H123249   7.362   9.140   9.052
 7669WAT     H223250   7.479   9.250   9.026
 7670WAT      O23251   3.524   4.381   8.651
 7670WAT     H123252   3.512   4.319   8.728
 7670WAT     H223253   3.440   4.384   8.597
 7671WAT      O23254   7.309   0.689   7.079
 7671WAT     H123255   7.311   0.590   7.064
 7671WAT     H223256   7.214   0.721   7.081
 7672WAT      O23257   4.486   5.091   1.677
 7672WAT     H123258   4.479   5.077   1.579
 7672WAT     H223259   4.405   5.053   1.722
 7673WAT      O23260   9.756   9.045   7.414
 7673WAT     H123261   9.827   9.083   7.354
 7673WAT     H223262   9.796   9.024   7.503
 7674WAT      O23263   6.998   5.881   3.697
 7674WAT     H123264   6.975   5.926   3.611
 7674WAT     H223265   6.922   5.890   3.762
 7675WAT      O23266   9.160   7.101   6.462
 7675WAT     H123267   9.196   7.009   6.476
 7675WAT     H223268   9.167   7.153   6.547
 7676WAT      O23269   3.346   7.899   5.817
 7676WAT     H123270   3.287   7.913   5.737
 7676WAT     H223271   3.440   7.884   5.786
 7677WAT      O23272   6.947   3.976   0.575
 7677WAT     H123273   6.974   4.024   0.658
 7677WAT     H223274   6.851   3.995   0.554
 7678WAT      O23275   0.713   1.503   0.438
 7678WAT     H123276   0.643   1.476   0.505
 7678WAT     H223277   0.677   1.490   0.345
 7679WAT      O23278   8.021   3.183   3.451
 7679WAT     H123279   8.082   3.205   3.528
 7679WAT     H223280   7.932   3.228   3.466
 7680WAT      O23281   0.054   1.556   5.054
 7680WAT     H123282  -0.021   1.499   5.022
 7680WAT     H223283   0.125   1.560   4.984
 7681WAT      O23284   2.124   7.125   4.058
 7681WAT     H123285   2.120   7.188   3.980
 7681WAT     H223286   2.049   7.144   4.120
 7682WAT      O23287   5.380   6.335   6.244
 7682WAT     H123288   5.441   6.342   6.164
 7682WAT     H223289   5.428   6.288   6.318
 7683WAT      O23290   0.415   1.085   3.761
 7683WAT     H123291   0.501   1.123   3.729
 7683WAT     H223292   0.424   0.986   3.772
 7684WAT      O23293   6.783   4.562   1.517
 7684WAT     H123294   6.811   4.475   1.476
 7684WAT     H223295   6.730   4.544   1.600
 7685WAT      O23296   6.723   6.703   9.312
 7685WAT     H123297   6.816   6.715   9.279
 7685WAT     H223298   6.690   6.611   9.289
 7686WAT      O23299   7.869   6.528   5.071
 7686WAT     H123300   7.897   6.446   5.120
 7686WAT     H223301   7.948   6.588   5.057
 7687WAT      O23302   1.389   8.885   0.078
 7687WAT     H123303   1.297   8.916   0.055
 7687WAT     H223304   1.384   8.812   0.146
 7688WAT      O23305   1.078   7.782   2.156
 7688WAT     H123306   1.071   7.852   2.228
 7688WAT     H223307   1.066   7.826   2.067
 7689WAT      O23308   3.005   4.170   9.193
 7689WAT     H123309   3.054   4.206   9.272
 7689WAT     H223310   2.991   4.244   9.126
 7690WAT      O23311   7.665   1.618   8.995
 7690WAT     H123312   7.725   1.693   9.026
 7690WAT     H223313   7.715   1.532   8.999
 7691WAT      O23314   8.165   7.076   3.512
 7691WAT     H123315   8.232   7.024   3.458
 7691WAT     H223316   8.082   7.022   3.524
 7692WAT      O23317   9.882   7.307   3.594
 7692WAT     H123318   9.941   7.228   3.576
 7692WAT     H223319   9.839   7.297   3.683
 7693WAT      O23320   5.139   6.658   6.626
 7693WAT     H123321   5.184   6.602   6.556
 7693WAT     H223322   5.203   6.677   6.700
 7694WAT      O23323   8.923   5.158   7.648
 7694WAT     H123324   8.902   5.150   7.551
 7694WAT     H223325   8.868   5.094   7.701
 7695WAT      O23326   6.940   0.480   8.415
 7695WAT     H123327   6.964   0.452   8.322
 7695WAT     H223328   7.006   0.549   8.447
 7696WAT      O23329   0.866   7.633   5.893
 7696WAT     H123330   0.904   7.725   5.883
 7696WAT     H223331   0.863   7.589   5.803
 7697WAT      O23332   3.576   0.211   9.294
 7697WAT     H123333   3.592   0.308   9.275
 7697WAT     H223334   3.477   0.193   9.294
 7698WAT      O23335   0.547   2.860   9.314
 7698WAT     H123336   0.580   2.929   9.379
 7698WAT     H223337   0.577   2.770   9.343
 7699WAT      O23338   8.628   8.610   4.506
 7699WAT     H123339   8.587   8.634   4.594
 7699WAT     H223340   8.678   8.525   4.515
 7700WAT      O23341   5.648   2.836   8.205
 7700WAT     H123342   5.706   2.823   8.124
 7700WAT     H223343   5.641   2.750   8.256
 7701WAT      O23344   2.561   5.578   6.188
 7701WAT     H123345   2.523   5.532   6.268
 7701WAT     H223346   2.608   5.661   6.218
 7702WAT      O23347   5.807   5.245   7.303
 7702WAT     H123348   5.758   5.181   7.362
 7702WAT     H223349   5.787   5.339   7.332
 7703WAT      O23350   3.298   7.910   9.104
 7703WAT     H123351   3.348   7.967   9.169
 7703WAT     H223352   3.363   7.869   9.040
 7704WAT      O23353   1.162   3.587   5.089
 7704WAT     H123354   1.188   3.547   5.177
 7704WAT     H223355   1.207   3.538   5.015
 7705WAT      O23356   7.299   4.641   6.648
 7705WAT     H123357   7.284   4.656   6.745
 7705WAT     H223358   7.212   4.644   6.599
 7706WAT      O23359   0.956   4.494   3.920
 7706WAT     H123360   0.959   4.567   3.852
 7706WAT     H223361   0.935   4.533   4.010
 7707WAT      O23362   4.498   0.967   1.832
 7707WAT     H123363   4.561   0.907   1.882
 7707WAT     H223364   4.406   0.928   1.836
 7708WAT      O23365   3.367   1.252   5.622
 7708WAT     H123366   3.302   1.315   5.581
 7708WAT     H223367   3.429   1.218   5.551
 7709WAT      O23368   4.226   0.957   0.584
 7709WAT     H123369   4.248   0.964   0.681
 7709WAT     H223370   4.142   1.007   0.564
 7710WAT      O23371   4.405   6.503   4.271
 7710WAT     H123372   4.501   6.522   4.289
 7710WAT     H223373   4.361   6.471   4.355
 7711WAT      O23374   3.673   3.175   7.923
 7711WAT     H123375   3.729   3.252   7.895
 7711WAT     H223376   3.725   3.090   7.914
 7712WAT      O23377   8.708   2.909   1.470
 7712WAT     H123378   8.676   2.836   1.530
 7712WAT     H223379   8.782   2.959   1.515
 7713WAT      O23380   0.261   8.289   3.905
 7713WAT     H123381   0.231   8.206   3.857
 7713WAT     H223382   0.330   8.335   3.850
 7714WAT      O23383   9.263   0.124   0.105
 7714WAT     H123384   9.332   0.053   0.092
 7714WAT     H223385   9.248   0.172   0.018
 7715WAT      O23386   8.790   8.160   3.074
 7715WAT     H123387   8.819   8.216   3.152
 7715WAT     H223388   8.800   8.213   2.990
 7716WAT      O23389   2.906   4.441   9.238
 7716WAT     H123390   2.956   4.381   9.299
 7716WAT     H223391   2.966   4.474   9.166
 7717WAT      O23392   6.122   8.441   2.586
 7717WAT     H123393   6.124   8.370   2.515
 7717WAT     H223394   6.034   8.490   2.582
 7718WAT      O23395   8.537   5.775   2.852
 7718WAT     H123396   8.494   5.699   2.900
 7718WAT     H223397   8.568   5.744   2.762
 7719WAT      O23398   3.350   4.002   1.189
 7719WAT     H123399   3.341   4.064   1.267
 7719WAT     H223400   3.309   3.914   1.211
 7720WAT      O23401   9.878   1.859   1.023
 7720WAT     H123402   9.973   1.832   1.033
 7720WAT     H223403   9.822   1.778   1.006
 7721WAT      O23404   9.196   4.302   6.232
 7721WAT     H123405   9.168   4.353   6.313
 7721WAT     H223406   9.294   4.319   6.215
 7722WAT      O23407   1.686   8.498   3.064
 7722WAT     H123408   1.668   8.518   3.160
 7722WAT     H223409   1.773   8.540   3.037
 7723WAT      O23410   5.500   4.290   7.442
 7723WAT     H123411   5.439   4.347   7.496
 7723WAT     H223412   5.544   4.345   7.371
 7724WAT      O23413   6.650   9.613   9.380
 7724WAT     H123414   6.732   9.582   9.428
 7724WAT     H223415   6.633   9.709   9.402
 7725WAT      O23416   1.607   3.959   2.780
 7725WAT     H123417   1.553   4.004   2.851
 7725WAT     H223418   1.648   4.029   2.720
 7726WAT      O23419   4.366   4.638   6.726
 7726WAT     H123420   4.389   4.552   6.682
 7726WAT     H223421   4.290   4.681   6.676
 7727WAT      O23422   7.070   4.518   4.094
 7727WAT     H123423   7.020   4.479   4.016
 7727WAT     H223424   7.040   4.475   4.179
 7728WAT      O23425   1.184   0.998   7.500
 7728WAT     H123426   1.115   0.938   7.458
 7728WAT     H223427   1.261   1.008   7.437
 7729WAT      O23428   9.410   0.246   5.566
 7729WAT     H123429   9.478   0.315   5.543
 7729WAT     H223430   9.352   0.280   5.640
 7730WAT      O23431   8.866   8.838   3.817
 7730WAT     H123432   8.919   8.910   3.861
 7730WAT     H223433   8.868   8.755   3.874
 7731WAT      O23434   3.402   7.189   5.027
 7731WAT     H123435   3.423   7.147   4.939
 7731WAT     H223436   3.417   7.122   5.100
 7732WAT      O23437   7.389   6.227   4.479
 7732WAT     H123438   7.424   6.311   4.519
 7732WAT     H223439   7.385   6.156   4.549
 7733WAT      O23440   2.226   0.272   1.673
 7733WAT     H123441   2.246   0.227   1.760
 7733WAT     H223442   2.230   0.371   1.686
 7734WAT      O23443   1.999   3.804   6.381
 7734WAT     H123444   1.937   3.734   6.418
 7734WAT     H223445   2.069   3.824   6.449
 7735WAT      O23446   8.223   5.673   9.371
 7735WAT     H123447   8.271   5.647   9.287
 7735WAT     H223448   8.233   5.600   9.439
 7736WAT      O23449   6.771   4.463   0.665
 7736WAT     H123450   6.810   4.465   0.573
 7736WAT     H223451   6.824   4.522   0.726
 7737WAT      O23452   6.736   0.123   0.308
 7737WAT     H123453   6.705   0.030   0.327
 7737WAT     H223454   6.659   0.186   0.311
 7738WAT      O23455   5.013   9.006   4.535
 7738WAT     H123456   4.915   8.987   4.536
 7738WAT     H223457   5.030   9.089   4.481
 7739WAT      O23458   1.749   1.581   1.018
 7739WAT     H123459   1.664   1.581   0.966
 7739WAT     H223460   1.824   1.553   0.958
 7740WAT      O23461   4.523   6.076   2.393
 7740WAT     H123462   4.433   6.118   2.394
 7740WAT     H223463   4.519   5.987   2.350
 7741WAT      O23464   5.052   3.387   9.722
 7741WAT     H123465   5.112   3.410   9.646
 7741WAT     H223466   4.956   3.401   9.695
 7742WAT      O23467   0.054   6.400   6.832
 7742WAT     H123468   0.154   6.404   6.837
 7742WAT     H223469   0.024   6.304   6.833
 7743WAT      O23470   2.995   7.936   6.804
 7743WAT     H123471   3.054   7.902   6.876
 7743WAT     H223472   2.966   8.030   6.825
 7744WAT      O23473   7.090   5.690   3.510
 7744WAT     H123474   7.031   5.724   3.583
 7744WAT     H223475   7.142   5.611   3.543
 7745WAT      O23476   8.583   1.059   9.601
 7745WAT     H123477   8.495   1.032   9.562
 7745WAT     H223478   8.657   1.006   9.559
 7746WAT      O23479   7.419   0.467   6.402
 7746WAT     H123480   7.469   0.521   6.335
 7746WAT     H223481   7.451   0.490   6.494
 7747WAT      O23482   3.118   8.207   5.222
 7747WAT     H123483   3.198   8.154   5.251
 7747WAT     H223484   3.055   8.148   5.171
 7748WAT      O23485   4.596   5.816   8.475
 7748WAT     H123486   4.569   5.813   8.378
 7748WAT     H223487   4.638   5.729   8.500
 7749WAT      O23488   3.529   2.584   3.349
 7749WAT     H123489   3.619   2.628   3.352
 7749WAT     H223490   3.462   2.642   3.396
 7750WAT      O23491   3.904   6.340   2.311
 7750WAT     H123492   3.877   6.434   2.291
 7750WAT     H223493   3.978   6.341   2.379
 7751WAT      O23494   1.909   8.268   2.677
 7751WAT     H123495   1.827   8.304   2.721
 7751WAT     H223496   1.989   8.321   2.706
 7752WAT      O23497   8.517   3.907   6.307
 7752WAT     H123498   8.460   3.967   6.250
 7752WAT     H223499   8.594   3.873   6.252
 7753WAT      O23500   9.823   0.060   0.627
 7753WAT     H123501   9.820   0.127   0.553
 7753WAT     H223502   9.913   0.064   0.672
 7754WAT      O23503   4.380   3.885   5.472
 7754WAT     H123504   4.415   3.872   5.565
 7754WAT     H223505   4.280   3.890   5.475
 7755WAT      O23506   1.683   5.054   3.336
 7755WAT     H123507   1.597   5.060   3.286
 7755WAT     H223508   1.760   5.065   3.273
 7756WAT      O23509   9.577   7.260   4.148
 7756WAT     H123510   9.527   7.223   4.069
 7756WAT     H223511   9.668   7.288   4.119
 7757WAT      O23512   5.274   5.117   1.848
 7757WAT     H123513   5.324   5.155   1.926
 7757WAT     H223514   5.235   5.191   1.793
 7758WAT      O23515   9.295   1.558   7.774
 7758WAT     H123516   9.225   1.616   7.733
 7758WAT     H223517   9.290   1.466   7.736
 7759WAT      O23518   1.212   0.366   9.495
 7759WAT     H123519   1.159   0.386   9.412
 7759WAT     H223520   1.197   0.272   9.523
 7760WAT      O23521   2.314   9.169   7.766
 7760WAT     H123522   2.304   9.267   7.783
 7760WAT     H223523   2.268   9.145   7.681
 7761WAT      O23524   8.436   0.649   2.580
 7761WAT     H123525   8.380   0.726   2.613
 7761WAT     H223526   8.529   0.659   2.614
 7762WAT      O23527   7.408   3.663   9.670
 7762WAT     H123528   7.326   3.707   9.707
 7762WAT     H223529   7.441   3.594   9.734
 7763WAT      O23530   8.864   9.727   5.209
 7763WAT     H123531   8.808   9.726   5.126
 7763WAT     H223532   8.919   9.811   5.211
 7764WAT      O23533   5.688   2.124   2.989
 7764WAT     H123534   5.678   2.129   2.889
 7764WAT     H223535   5.718   2.032   3.015
 7765WAT      O23536   3.799   8.175   0.572
 7765WAT     H123537   3.867   8.187   0.645
 7765WAT     H223538   3.715   8.223   0.598
 7766WAT      O23539   2.184   0.256   7.199
 7766WAT     H123540   2.280   0.231   7.213
 7766WAT     H223541   2.178   0.342   7.149
 7767WAT      O23542   0.641   2.734   5.346
 7767WAT     H123543   0.637   2.658   5.410
 7767WAT     H223544   0.654   2.820   5.396
 7768WAT      O23545   5.649   9.114   4.630
 7768WAT     H123546   5.712   9.114   4.553
 7768WAT     H223547   5.639   9.207   4.665
 7769WAT      O23548   8.933   2.271   1.334
 7769WAT     H123549   9.014   2.329   1.341
 7769WAT     H223550   8.872   2.309   1.264
 7770WAT      O23551   0.611   0.291   2.890
 7770WAT     H123552   0.602   0.390   2.897
 7770WAT     H223553   0.527   0.247   2.922
 7771WAT      O23554   6.654   3.365   7.466
 7771WAT     H123555   6.712   3.287   7.440
 7771WAT     H223556   6.712   3.443   7.487
 7772WAT      O23557   9.479   6.087   8.797
 7772WAT     H123558   9.550   6.081   8.867
 7772WAT     H223559   9.505   6.155   8.728
 7773WAT      O23560   6.955   2.234   0.637
 7773WAT     H123561   7.009   2.192   0.563
 7773WAT     H223562   6.885   2.169   0.668
 7774WAT      O23563   9.066   6.274   2.531
 7774WAT     H123564   9.143   6.218   2.560
 7774WAT     H223565   9.077   6.367   2.566
 7775WAT      O23566   3.802   2.928   0.314
 7775WAT     H123567   3.745   3.004   0.281
 7775WAT     H223568   3.897   2.959   0.322
 7776WAT      O23569   5.942   8.998   0.064
 7776WAT     H123570   6.026   8.985   0.012
 7776WAT     H223571   5.929   8.922   0.127
 7777WAT      O23572   6.752   5.778   6.607
 7777WAT     H123573   6.654   5.795   6.601
 7777WAT     H223574   6.787   5.818   6.692
 7778WAT      O23575   6.667   2.367   5.768
 7778WAT     H123576   6.596   2.436   5.753
 7778WAT     H223577   6.661   2.332   5.862
 7779WAT      O23578   7.886   4.161   7.348
 7779WAT     H123579   7.827   4.095   7.300
 7779WAT     H223580   7.966   4.180   7.292
 7780WAT      O23581   8.784   7.214   1.886
 7780WAT     H123582   8.778   7.126   1.934
 7780WAT     H223583   8.750   7.203   1.792
 7781WAT      O23584   6.833   9.020   6.015
 7781WAT     H123585   6.783   9.009   6.101
 7781WAT     H223586   6.814   8.942   5.955
 7782WAT      O23587   2.735   5.355   5.549
 7782WAT     H123588   2.714   5.439   5.500
 7782WAT     H223589   2.832   5.353   5.573
 7783WAT      O23590   0.938   2.044   5.619
 7783WAT     H123591   0.969   2.139   5.615
 7783WAT     H223592   0.845   2.041   5.656
 7784WAT      O23593   6.217   7.281   9.558
 7784WAT     H123594   6.259   7.321   9.639
 7784WAT     H223595   6.151   7.346   9.519
 7785WAT      O23596   1.528   7.159   7.164
 7785WAT     H123597   1.623   7.136   7.182
 7785WAT     H223598   1.490   7.211   7.240
 7786WAT      O23599   0.608   2.639   7.702
 7786WAT     H123600   0.623   2.719   7.761
 7786WAT     H223601   0.674   2.568   7.727
 7787WAT      O23602   5.498   1.480   2.803
 7787WAT     H123603   5.430   1.413   2.773
 7787WAT     H223604   5.584   1.463   2.756
 7788WAT      O23605   2.857   9.028   9.276
 7788WAT     H123606   2.782   9.070   9.326
 7788WAT     H223607   2.882   8.942   9.321
 7789WAT      O23608   1.689   1.423   9.155
 7789WAT     H123609   1.776   1.443   9.198
 7789WAT     H223610   1.626   1.384   9.223
 7790WAT      O23611   5.402   3.087   5.646
 7790WAT     H123612   5.347   3.041   5.576
 7790WAT     H223613   5.405   3.185   5.627
 7791WAT      O23614   9.747   9.565   2.543
 7791WAT     H123615   9.675   9.582   2.476
 7791WAT     H223616   9.819   9.509   2.502
 7792WAT      O23617   7.157   9.142   0.434
 7792WAT     H123618   7.234   9.176   0.379
 7792WAT     H223619   7.120   9.216   0.490
 7793WAT      O23620   1.033   2.919   1.959
 7793WAT     H123621   1.055   2.999   1.904
 7793WAT     H223622   1.117   2.870   1.983
 7794WAT      O23623   1.353   2.054   1.027
 7794WAT     H123624   1.426   1.986   1.024
 7794WAT     H223625   1.264   2.008   1.024
 7795WAT      O23626   4.442   7.089   8.860
 7795WAT     H123627   4.470   7.071   8.954
 7795WAT     H223628   4.513   7.057   8.797
 7796WAT      O23629   2.975   4.623   6.253
 7796WAT     H123630   2.908   4.627   6.327
 7796WAT     H223631   2.947   4.685   6.180
 7797WAT      O23632   0.041   5.062   5.729
 7797WAT     H123633  -0.037   5.069   5.790
 7797WAT     H223634   0.119   5.022   5.778
 7798WAT      O23635   8.584   8.988   8.677
 7798WAT     H123636   8.543   9.038   8.753
 7798WAT     H223637   8.535   9.009   8.593
 7799WAT      O23638   7.764   2.246   4.420
 7799WAT     H123639   7.674   2.242   4.464
 7799WAT     H223640   7.834   2.264   4.490
 7800WAT      O23641   7.808   7.877   4.493
 7800WAT     H123642   7.904   7.897   4.514
 7800WAT     H223643   7.752   7.956   4.516
 7801WAT      O23644   0.799   7.131   8.228
 7801WAT     H123645   0.879   7.190   8.221
 7801WAT     H223646   0.826   7.044   8.270
 7802WAT      O23647   8.072   1.209   1.882
 7802WAT     H123648   8.029   1.287   1.927
 7802WAT     H223649   8.052   1.212   1.784
 7803WAT      O23650   0.049   8.833   3.147
 7803WAT     H123651   0.140   8.852   3.183
 7803WAT     H223652  -0.014   8.905   3.175
 7804WAT      O23653   6.680   4.298   9.059
 7804WAT     H123654   6.713   4.205   9.078
 7804WAT     H223655   6.662   4.307   8.961
 7805WAT      O23656   3.612   7.733   6.467
 7805WAT     H123657   3.622   7.696   6.560
 7805WAT     H223658   3.571   7.663   6.408
 7806WAT      O23659   1.861   0.874   7.798
 7806WAT     H123660   1.841   0.952   7.857
 7806WAT     H223661   1.839   0.789   7.847
 7807WAT      O23662   5.896   8.352   0.542
 7807WAT     H123663   5.831   8.352   0.618
 7807WAT     H223664   5.959   8.275   0.551
 7808WAT      O23665   8.826   4.957   4.921
 7808WAT     H123666   8.766   4.968   5.001
 7808WAT     H223667   8.770   4.943   4.839
 7809WAT      O23668   5.240   5.153   2.845
 7809WAT     H123669   5.215   5.160   2.942
 7809WAT     H223670   5.231   5.057   2.816
 7810WAT      O23671   6.688   2.738   6.378
 7810WAT     H123672   6.740   2.693   6.305
 7810WAT     H223673   6.728   2.827   6.397
 7811WAT      O23674   1.223   2.703   1.016
 7811WAT     H123675   1.284   2.782   1.010
 7811WAT     H223676   1.185   2.683   0.925
 7812WAT      O23677   8.833   9.787   9.773
 7812WAT     H123678   8.744   9.777   9.819
 7812WAT     H223679   8.857   9.701   9.729
 7813WAT      O23680   4.666   0.324   3.563
 7813WAT     H123681   4.654   0.383   3.643
 7813WAT     H223682   4.717   0.242   3.589
 7814WAT      O23683   6.386   3.520   4.878
 7814WAT     H123684   6.477   3.517   4.918
 7814WAT     H223685   6.321   3.474   4.939
 7815WAT      O23686   2.131   1.240   7.203
 7815WAT     H123687   2.117   1.317   7.141
 7815WAT     H223688   2.183   1.168   7.156
 7816WAT      O23689   5.232   6.045   7.568
 7816WAT     H123690   5.288   5.995   7.634
 7816WAT     H223691   5.287   6.070   7.489
 7817WAT      O23692   4.620   5.674   9.829
 7817WAT     H123693   4.529   5.634   9.834
 7817WAT     H223694   4.640   5.723   9.914
 7818WAT      O23695   8.039   9.676   5.760
 7818WAT     H123696   7.980   9.597   5.776
 7818WAT     H223697   7.989   9.744   5.706
 7819WAT      O23698   5.054   7.401   3.425
 7819WAT     H123699   5.135   7.451   3.394
 7819WAT     H223700   4.982   7.409   3.356
 7820WAT      O23701   3.109   3.601   3.343
 7820WAT     H123702   3.163   3.625   3.263
 7820WAT     H223703   3.046   3.676   3.364
 7821WAT      O23704   7.006   9.235   9.242
 7821WAT     H123705   7.065   9.207   9.319
 7821WAT     H223706   6.917   9.261   9.277
 7822WAT      O23707   6.004   1.305   3.859
 7822WAT     H123708   5.950   1.365   3.799
 7822WAT     H223709   5.947   1.273   3.934
 7823WAT      O23710   7.033   8.965   2.222
 7823WAT     H123711   6.941   9.000   2.207
 7823WAT     H223712   7.049   8.887   2.160
 7824WAT      O23713   7.962   2.292   4.614
 7824WAT     H123714   7.964   2.382   4.658
 7824WAT     H223715   8.029   2.232   4.657
 7825WAT      O23716   2.191   4.868   0.651
 7825WAT     H123717   2.239   4.790   0.612
 7825WAT     H223718   2.219   4.879   0.747
 7826WAT      O23719   9.886   3.486   8.315
 7826WAT     H123720   9.815   3.552   8.288
 7826WAT     H223721   9.846   3.395   8.324
 7827WAT      O23722   6.214   6.206   2.001
 7827WAT     H123723   6.230   6.118   1.957
 7827WAT     H223724   6.231   6.197   2.100
 7828WAT      O23725   0.020   9.062   9.534
 7828WAT     H123726   0.003   8.971   9.498
 7828WAT     H223727   0.065   9.055   9.623
 7829WAT      O23728   3.573   8.874   7.624
 7829WAT     H123729   3.509   8.948   7.603
 7829WAT     H223730   3.559   8.843   7.718
 7830WAT      O23731   9.517   2.433   0.830
 7830WAT     H123732   9.499   2.408   0.735
 7830WAT     H223733   9.596   2.494   0.833
 7831WAT      O23734   1.030   8.081   4.567
 7831WAT     H123735   1.064   8.167   4.528
 7831WAT     H223736   1.084   8.057   4.648
 7832WAT      O23737   5.899   5.188   8.892
 7832WAT     H123738   5.866   5.111   8.948
 7832WAT     H223739   5.843   5.268   8.910
 7833WAT      O23740   1.066   6.360   0.989
 7833WAT     H123741   1.149   6.402   1.026
 7833WAT     H223742   0.986   6.413   1.016
 7834WAT      O23743   3.328   3.690   9.418
 7834WAT     H123744   3.382   3.773   9.436
 7834WAT     H223745   3.233   3.716   9.400
 7835WAT      O23746   8.487   0.902   1.496
 7835WAT     H123747   8.456   0.976   1.556
 7835WAT     H223748   8.546   0.940   1.425
 7836WAT      O23749   8.326   7.722   4.035
 7836WAT     H123750   8.258   7.652   4.010
 7836WAT     H223751   8.284   7.789   4.096
 7837WAT      O23752   5.555   3.311   6.104
 7837WAT     H123753   5.625   3.374   6.139
 7837WAT     H223754   5.522   3.254   6.179
 7838WAT      O23755   2.666   4.237   1.384
 7838WAT     H123756   2.762   4.210   1.388
 7838WAT     H223757   2.650   4.311   1.448
 7839WAT      O23758   5.341   0.331   3.908
 7839WAT     H123759   5.264   0.383   3.871
 7839WAT     H223760   5.378   0.271   3.836
 7840WAT      O23761   7.781   6.595   6.382
 7840WAT     H123762   7.794   6.665   6.452
 7840WAT     H223763   7.870   6.574   6.340
 7841WAT      O23764   8.014   1.829   2.299
 7841WAT     H123765   7.951   1.785   2.235
 7841WAT     H223766   7.961   1.880   2.367
 7842WAT      O23767   9.574   0.513   9.153
 7842WAT     H123768   9.627   0.476   9.230
 7842WAT     H223769   9.482   0.535   9.185
 7843WAT      O23770   8.586   2.134   2.158
 7843WAT     H123771   8.619   2.070   2.089
 7843WAT     H223772   8.650   2.136   2.235
 7844WAT      O23773   5.144   7.654   5.523
 7844WAT     H123774   5.232   7.679   5.563
 7844WAT     H223775   5.155   7.635   5.426
 7845WAT      O23776   6.842   2.383   4.988
 7845WAT     H123777   6.797   2.469   5.013
 7845WAT     H223778   6.853   2.379   4.889
 7846WAT      O23779   3.262   3.233   1.649
 7846WAT     H123780   3.312   3.147   1.661
 7846WAT     H223781   3.320   3.309   1.677
 7847WAT      O23782   3.245   0.571   2.934
 7847WAT     H123783   3.181   0.634   2.976
 7847WAT     H223784   3.327   0.563   2.991
 7848WAT      O23785   4.848   5.719   1.402
 7848WAT     H123786   4.887   5.697   1.312
 7848WAT     H223787   4.922   5.727   1.469
 7849WAT      O23788   1.377   6.700   9.797
 7849WAT     H123789   1.298   6.640   9.810
 7849WAT     H223790   1.456   6.646   9.771
 7850WAT      O23791   3.888   5.351   7.470
 7850WAT     H123792   3.943   5.428   7.441
 7850WAT     H223793   3.942   5.293   7.532
 7851WAT      O23794   2.949   0.050   2.927
 7851WAT     H123795   3.047   0.066   2.924
 7851WAT     H223796   2.906   0.117   2.989
 7852WAT      O23797   3.635   6.073   7.209
 7852WAT     H123798   3.552   6.069   7.264
 7852WAT     H223799   3.683   5.985   7.214
 7853WAT      O23800   0.619   3.336   6.995
 7853WAT     H123801   0.622   3.426   7.039
 7853WAT     H223802   0.538   3.286   7.027
 7854WAT      O23803   1.481   4.077   0.592
 7854WAT     H123804   1.468   4.016   0.671
 7854WAT     H223805   1.462   4.027   0.508
 7855WAT      O23806   9.577   3.558   1.293
 7855WAT     H123807   9.641   3.481   1.286
 7855WAT     H223808   9.587   3.617   1.213
 7856WAT      O23809   7.644   5.889   1.688
 7856WAT     H123810   7.658   5.986   1.706
 7856WAT     H223811   7.621   5.841   1.772
 7857WAT      O23812   3.137   0.749   7.003
 7857WAT     H123813   3.111   0.744   7.099
 7857WAT     H223814   3.084   0.821   6.957
 7858WAT      O23815   1.182   2.258   5.909
 7858WAT     H123816   1.147   2.350   5.926
 7858WAT     H223817   1.142   2.195   5.976
 7859WAT      O23818   6.269   6.247   1.635
 7859WAT     H123819   6.302   6.241   1.541
 7859WAT     H223820   6.301   6.167   1.686
 7860WAT      O23821   5.022   1.476   8.587
 7860WAT     H123822   5.055   1.383   8.574
 7860WAT     H223823   4.970   1.482   8.672
 7861WAT      O23824   7.364   8.711   3.381
 7861WAT     H123825   7.333   8.627   3.337
 7861WAT     H223826   7.396   8.776   3.312
 7862WAT      O23827   0.823   6.934   3.824
 7862WAT     H123828   0.911   6.982   3.823
 7862WAT     H223829   0.833   6.844   3.780
 7863WAT      O23830   3.800   0.829   1.840
 7863WAT     H123831   3.822   0.833   1.938
 7863WAT     H223832   3.716   0.777   1.827
 7864WAT      O23833   6.761   2.937   3.970
 7864WAT     H123834   6.780   2.911   3.876
 7864WAT     H223835   6.672   2.982   3.975
 7865WAT      O23836   5.762   9.823   0.153
 7865WAT     H123837   5.784   9.784   0.243
 7865WAT     H223838   5.676   9.873   0.159
 7866WAT      O23839   2.569   5.983   8.767
 7866WAT     H123840   2.646   5.986   8.831
 7866WAT     H223841   2.518   5.898   8.780
 7867WAT      O23842   7.381   3.560   0.749
 7867WAT     H123843   7.381   3.614   0.665
 7867WAT     H223844   7.464   3.504   0.753
 7868WAT      O23845   2.215   3.147   1.851
 7868WAT     H123846   2.281   3.109   1.787
 7868WAT     H223847   2.122   3.122   1.822
 7869WAT      O23848   0.631   4.176   2.923
 7869WAT     H123849   0.580   4.259   2.902
 7869WAT     H223850   0.682   4.147   2.842
 7870WAT      O23851   7.862   8.337   5.182
 7870WAT     H123852   7.872   8.436   5.191
 7870WAT     H223853   7.882   8.310   5.088
 7871WAT      O23854   5.317   8.280   4.643
 7871WAT     H123855   5.268   8.306   4.560
 7871WAT     H223856   5.387   8.213   4.621
 7872WAT      O23857   4.573   5.624   5.271
 7872WAT     H123858   4.621   5.583   5.348
 7872WAT     H223859   4.571   5.559   5.195
 7873WAT      O23860   0.898   1.197   9.554
 7873WAT     H123861   0.975   1.175   9.614
 7873WAT     H223862   0.862   1.287   9.578
 7874WAT      O23863   0.180   6.005   9.657
 7874WAT     H123864   0.234   5.921   9.659
 7874WAT     H223865   0.083   5.982   9.655
 7875WAT      O23866   0.018   2.202   4.112
 7875WAT     H123867   0.054   2.133   4.048
 7875WAT     H223868  -0.057   2.162   4.164
 7876WAT      O23869   0.820   3.602   8.335
 7876WAT     H123870   0.906   3.642   8.304
 7876WAT     H223871   0.798   3.522   8.279
 7877WAT      O23872   9.105   8.431   7.483
 7877WAT     H123873   9.101   8.333   7.501
 7877WAT     H223874   9.033   8.456   7.418
 7878WAT      O23875   4.905   0.991   2.153
 7878WAT     H123876   4.806   0.983   2.154
 7878WAT     H223877   4.939   0.971   2.061
 7879WAT      O23878   8.706   2.179   7.239
 7879WAT     H123879   8.790   2.214   7.279
 7879WAT     H223880   8.727   2.101   7.180
 7880WAT      O23881   3.484   0.438   9.080
 7880WAT     H123882   3.412   0.372   9.056
 7880WAT     H223883   3.452   0.496   9.154
 7881WAT      O23884   4.244   5.386   8.106
 7881WAT     H123885   4.243   5.418   8.200
 7881WAT     H223886   4.154   5.350   8.082
 7882WAT      O23887   4.794   0.225   4.214
 7882WAT     H123888   4.792   0.220   4.114
 7882WAT     H223889   4.888   0.237   4.245
 7883WAT      O23890   3.038   2.133   9.178
 7883WAT     H123891   2.960   2.185   9.145
 7883WAT     H223892   3.029   2.116   9.276
 7884WAT      O23893   6.814   6.112   1.926
 7884WAT     H123894   6.796   6.208   1.903
 7884WAT     H223895   6.912   6.096   1.930
 7885WAT      O23896   9.275   1.556   3.007
 7885WAT     H123897   9.256   1.582   2.912
 7885WAT     H223898   9.215   1.608   3.068
 7886WAT      O23899   7.995   5.953   0.199
 7886WAT     H123900   7.940   5.962   0.116
 7886WAT     H223901   7.951   6.000   0.275
 7887WAT      O23902   7.074   2.050   3.998
 7887WAT     H123903   6.990   1.995   3.992
 7887WAT     H223904   7.153   1.989   4.006
 7888WAT      O23905   4.353   6.674   5.000
 7888WAT     H123906   4.364   6.601   5.068
 7888WAT     H223907   4.433   6.675   4.940
 7889WAT      O23908   1.617   3.319   2.845
 7889WAT     H123909   1.599   3.415   2.823
 7889WAT     H223910   1.585   3.300   2.938
 7890WAT      O23911   6.055   5.471   5.297
 7890WAT     H123912   6.049   5.383   5.250
 7890WAT     H223913   6.020   5.463   5.390
 7891WAT      O23914   6.926   0.753   5.920
 7891WAT     H123915   6.868   0.678   5.888
 7891WAT     H223916   6.925   0.755   6.020
 7892WAT      O23917   1.916   2.682   6.333
 7892WAT     H123918   1.884   2.650   6.244
 7892WAT     H223919   1.838   2.714   6.387
 7893WAT      O23920   4.493   7.521   7.853
 7893WAT     H123921   4.581   7.493   7.814
 7893WAT     H223922   4.489   7.621   7.854
 7894WAT      O23923   5.829   5.519   6.877
 7894WAT     H123924   5.831   5.619   6.870
 7894WAT     H223925   5.769   5.492   6.952
 7895WAT      O23926   0.519   6.424   2.671
 7895WAT     H123927   0.427   6.445   2.639
 7895WAT     H223928   0.553   6.343   2.623
 7896WAT      O23929   1.089   3.203   9.264
 7896WAT     H123930   1.115   3.299   9.261
 7896WAT     H223931   1.095   3.164   9.172
 7897WAT      O23932   3.500   7.077   0.163
 7897WAT     H123933   3.507   7.138   0.242
 7897WAT     H223934   3.535   7.124   0.082
 7898WAT      O23935   9.268   8.396   0.766
 7898WAT     H123936   9.347   8.334   0.763
 7898WAT     H223937   9.290   8.480   0.717
 7899WAT      O23938   4.085   3.154   5.314
 7899WAT     H123939   4.117   3.237   5.267
 7899WAT     H223940   3.990   3.136   5.288
 7900WAT      O23941   9.097   1.226   3.015
 7900WAT     H123942   9.118   1.148   3.074
 7900WAT     H223943   9.095   1.309   3.070
 7901WAT      O23944   9.868   7.336   9.419
 7901WAT     H123945   9.821   7.418   9.388
 7901WAT     H223946   9.813   7.255   9.398
 7902WAT      O23947   4.025   2.184   1.176
 7902WAT     H123948   3.928   2.197   1.155
 7902WAT     H223949   4.035   2.158   1.272
 7903WAT      O23950   2.492   7.120   5.889
 7903WAT     H123951   2.528   7.027   5.877
 7903WAT     H223952   2.447   7.127   5.978
 7904WAT      O23953   3.559   6.167   5.296
 7904WAT     H123954   3.514   6.142   5.210
 7904WAT     H223955   3.492   6.205   5.360
 7905WAT      O23956   8.805   2.139   5.010
 7905WAT     H123957   8.790   2.063   4.947
 7905WAT     H223958   8.779   2.224   4.966
 7906WAT      O23959   3.768   3.728   2.139
 7906WAT     H123960   3.706   3.800   2.107
 7906WAT     H223961   3.854   3.734   2.089
 7907WAT      O23962   3.316   4.459   5.855
 7907WAT     H123963   3.339   4.556   5.850
 7907WAT     H223964   3.326   4.418   5.764
 7908WAT      O23965   5.442   8.982   2.364
 7908WAT     H123966   5.541   8.994   2.364
 7908WAT     H223967   5.415   8.927   2.285
 7909WAT      O23968   4.781   7.224   3.014
 7909WAT     H123969   4.835   7.304   2.989
 7909WAT     H223970   4.721   7.247   3.091
 7910WAT      O23971   2.664   1.572   2.461
 7910WAT     H123972   2.648   1.634   2.538
 7910WAT     H223973   2.577   1.537   2.427
 7911WAT      O23974   9.059   7.615   9.468
 7911WAT     H123975   9.132   7.622   9.400
 7911WAT     H223976   9.098   7.618   9.560
 7912WAT      O23977   4.218   2.749   5.194
 7912WAT     H123978   4.184   2.765   5.286
 7912WAT     H223979   4.159   2.795   5.128
 7913WAT      O23980   5.271   3.428   0.486
 7913WAT     H123981   5.244   3.355   0.550
 7913WAT     H223982   5.363   3.410   0.452
 7914WAT      O23983   8.893   9.232   7.064
 7914WAT     H123984   8.852   9.142   7.051
 7914WAT     H223985   8.963   9.226   7.135
 7915WAT      O23986   8.033   2.102   0.675
 7915WAT     H123987   7.984   2.061   0.597
 7915WAT     H223988   8.082   2.183   0.644
 7916WAT      O23989   0.228   4.250   4.963
 7916WAT     H123990   0.230   4.216   5.057
 7916WAT     H223991   0.296   4.201   4.908
 7917WAT      O23992   8.145   5.407   8.093
 7917WAT     H123993   8.097   5.338   8.148
 7917WAT     H223994   8.244   5.391   8.098
 7918WAT      O23995   8.696   9.129   0.089
 7918WAT     H123996   8.634   9.201   0.058
 7918WAT     H223997   8.668   9.041   0.049
 7919WAT      O23998   5.257   9.140   4.903
 7919WAT     H123999   5.286   9.102   4.991
 7919WAT     H224000   5.328   9.201   4.868
 7920WAT      O24001   5.673   3.604   3.240
 7920WAT     H124002   5.692   3.699   3.265
 7920WAT     H224003   5.731   3.577   3.163
 7921WAT      O24004   2.054   1.358   7.763
 7921WAT     H124005   2.109   1.436   7.732
 7921WAT     H224006   1.975   1.391   7.814
 7922WAT      O24007   5.942   2.875   7.054
 7922WAT     H124008   5.943   2.929   7.138
 7922WAT     H224009   5.894   2.926   6.983
 7923WAT      O24010   4.810   2.663   5.978
 7923WAT     H124011   4.844   2.617   5.896
 7923WAT     H224012   4.882   2.719   6.017
 7924WAT      O24013   4.262   5.577   6.050
 7924WAT     H124014   4.328   5.651   6.042
 7924WAT     H224015   4.289   5.501   5.991
 7925WAT      O24016   9.681   9.565   3.663
 7925WAT     H124017   9.721   9.655   3.647
 7925WAT     H224018   9.592   9.576   3.709
 7926WAT      O24019   0.864   8.438   5.820
 7926WAT     H124020   0.828   8.357   5.867
 7926WAT     H224021   0.955   8.417   5.784
 7927WAT      O24022   3.536   0.151   1.808
 7927WAT     H124023   3.565   0.187   1.719
 7927WAT     H224024   3.617   0.122   1.860
 7928WAT      O24025   0.626   7.876   0.148
 7928WAT     H124026   0.627   7.877   0.048
 7928WAT     H224027   0.606   7.784   0.181
 7929WAT      O24028   3.045   5.660   5.630
 7929WAT     H124029   3.087   5.706   5.708
 7929WAT     H224030   3.066   5.711   5.546
 7930WAT      O24031   2.323   4.111   5.718
 7930WAT     H124032   2.360   4.027   5.756
 7930WAT     H224033   2.272   4.160   5.789
 7931WAT      O24034   7.837   9.669   1.733
 7931WAT     H124035   7.825   9.768   1.733
 7931WAT     H224036   7.819   9.632   1.824
 7932WAT      O24037   6.195   5.386   7.889
 7932WAT     H124038   6.131   5.459   7.864
 7932WAT     H224039   6.151   5.297   7.875
 7933WAT      O24040   9.116   7.827   4.689
 7933WAT     H124041   9.167   7.867   4.613
 7933WAT     H224042   9.018   7.842   4.674
 7934WAT      O24043   6.109   2.292   4.481
 7934WAT     H124044   6.119   2.392   4.481
 7934WAT     H224045   6.132   2.256   4.391
 7935WAT      O24046   0.283   3.159   8.892
 7935WAT     H124047   0.246   3.106   8.969
 7935WAT     H224048   0.215   3.164   8.820
 7936WAT      O24049   0.627   5.694   2.679
 7936WAT     H124050   0.610   5.685   2.581
 7936WAT     H224051   0.640   5.603   2.720
 7937WAT      O24052   6.389   1.101   4.765
 7937WAT     H124053   6.391   1.114   4.666
 7937WAT     H224054   6.480   1.078   4.797
 7938WAT      O24055   4.038   3.018   0.375
 7938WAT     H124056   4.106   3.009   0.303
 7938WAT     H224057   4.065   2.963   0.454
 7939WAT      O24058   4.827   2.916   0.081
 7939WAT     H124059   4.857   3.002   0.040
 7939WAT     H224060   4.735   2.893   0.049
 7940WAT      O24061   4.225   1.668   2.415
 7940WAT     H124062   4.308   1.700   2.462
 7940WAT     H224063   4.244   1.579   2.373
 7941WAT      O24064   9.879   9.385   2.200
 7941WAT     H124065   9.954   9.443   2.171
 7941WAT     H224066   9.893   9.292   2.165
 7942WAT      O24067   5.821   2.815   2.135
 7942WAT     H124068   5.778   2.746   2.193
 7942WAT     H224069   5.750   2.868   2.088
 7943WAT      O24070   8.402   2.500   4.551
 7943WAT     H124071   8.352   2.582   4.580
 7943WAT     H224072   8.434   2.512   4.457
 7944WAT      O24073   8.961   3.699   9.799
 7944WAT     H124074   8.885   3.697   9.864
 7944WAT     H224075   8.937   3.758   9.722
 7945WAT      O24076   7.603   3.119   6.375
 7945WAT     H124077   7.579   3.217   6.375
 7945WAT     H224078   7.678   3.104   6.441
 7946WAT      O24079   1.187   8.882   8.336
 7946WAT     H124080   1.206   8.979   8.353
 7946WAT     H224081   1.125   8.873   8.257
 7947WAT      O24082   5.722   5.046   1.182
 7947WAT     H124083   5.714   5.092   1.270
 7947WAT     H224084   5.679   5.101   1.111
 7948WAT      O24085   7.050   9.693   4.630
 7948WAT     H124086   7.122   9.724   4.569
 7948WAT     H224087   7.089   9.664   4.717
 7949WAT      O24088   6.398   7.472   7.605
 7949WAT     H124089   6.473   7.474   7.671
 7949WAT     H224090   6.422   7.410   7.530
 7950WAT      O24091   4.836   9.289   3.812
 7950WAT     H124092   4.818   9.375   3.765
 7950WAT     H224093   4.750   9.253   3.849
 7951WAT      O24094   5.687   7.305   0.342
 7951WAT     H124095   5.662   7.209   0.333
 7951WAT     H224096   5.725   7.320   0.434
 7952WAT      O24097   1.228   3.160   0.290
 7952WAT     H124098   1.148   3.208   0.255
 7952WAT     H224099   1.204   3.064   0.308
 7953WAT      O24100   9.019   8.360   8.860
 7953WAT     H124101   8.975   8.333   8.945
 7953WAT     H224102   9.030   8.459   8.857
 7954WAT      O24103   4.214   1.807   6.505
 7954WAT     H124104   4.155   1.755   6.566
 7954WAT     H224105   4.180   1.800   6.412
 7955WAT      O24106   1.370   5.395   8.152
 7955WAT     H124107   1.308   5.430   8.222
 7955WAT     H224108   1.457   5.444   8.157
 7956WAT      O24109   4.650   7.158   7.746
 7956WAT     H124110   4.704   7.182   7.665
 7956WAT     H224111   4.712   7.139   7.822
 7957WAT      O24112   1.144   9.811   5.770
 7957WAT     H124113   1.236   9.784   5.799
 7957WAT     H224114   1.077   9.779   5.837
 7958WAT      O24115   7.312   8.979   9.025
 7958WAT     H124116   7.217   9.009   9.027
 7958WAT     H224117   7.323   8.899   9.084
 7959WAT      O24118   8.106   9.795   9.696
 7959WAT     H124119   8.189   9.827   9.741
 7959WAT     H224120   8.088   9.700   9.724
 7960WAT      O24121   1.378   2.339   2.991
 7960WAT     H124122   1.321   2.411   2.950
 7960WAT     H224123   1.333   2.303   3.072
 7961WAT      O24124   1.262   5.795   1.197
 7961WAT     H124125   1.297   5.860   1.264
 7961WAT     H224126   1.337   5.742   1.158
 7962WAT      O24127   4.682   9.771   4.611
 7962WAT     H124128   4.693   9.821   4.525
 7962WAT     H224129   4.656   9.835   4.683
 7963WAT      O24130   0.147   8.041   1.889
 7963WAT     H124131   0.208   8.010   1.963
 7963WAT     H224132   0.115   8.134   1.909
 7964WAT      O24133   1.875   0.421   0.518
 7964WAT     H124134   1.858   0.331   0.559
 7964WAT     H224135   1.789   0.470   0.509
 7965WAT      O24136   6.915   3.692   3.196
 7965WAT     H124137   6.847   3.747   3.149
 7965WAT     H224138   6.973   3.646   3.128
 7966WAT      O24139   1.160   3.627   5.480
 7966WAT     H124140   1.117   3.541   5.453
 7966WAT     H224141   1.256   3.610   5.502
 7967WAT      O24142   5.289   7.851   1.718
 7967WAT     H124143   5.279   7.764   1.766
 7967WAT     H224144   5.386   7.876   1.713
 7968WAT      O24145   3.976   4.483   4.341
 7968WAT     H124146   3.934   4.539   4.413
 7968WAT     H224147   4.011   4.398   4.381
 7969WAT      O24148   6.670   3.947   8.479
 7969WAT     H124149   6.602   3.974   8.547
 7969WAT     H224150   6.624   3.903   8.401
 7970WAT      O24151   7.430   1.738   3.121
 7970WAT     H124152   7.370   1.808   3.158
 7970WAT     H224153   7.389   1.648   3.134
 7971WAT      O24154   5.504   0.118   0.187
 7971WAT     H124155   5.534   0.213   0.179
 7971WAT     H224156   5.460   0.089   0.102
 7972WAT      O24157   8.385   7.999   0.916
 7972WAT     H124158   8.320   8.002   0.840
 7972WAT     H224159   8.342   7.953   0.994
 7973WAT      O24160   9.418   9.362   8.269
 7973WAT     H124161   9.347   9.401   8.211
 7973WAT     H224162   9.502   9.414   8.259
 7974WAT      O24163   0.275   6.013   5.905
 7974WAT     H124164   0.365   6.012   5.862
 7974WAT     H224165   0.228   5.926   5.886
 7975WAT      O24166   5.921   8.611   6.898
 7975WAT     H124167   5.976   8.657   6.829
 7975WAT     H224168   5.858   8.547   6.853
 7976WAT      O24169   8.108   2.858   7.120
 7976WAT     H124170   8.189   2.876   7.175
 7976WAT     H224171   8.077   2.764   7.137
 7977WAT      O24172   0.321   9.813   8.391
 7977WAT     H124173   0.347   9.750   8.317
 7977WAT     H224174   0.398   9.874   8.411
 7978WAT      O24175   0.906   4.452   5.979
 7978WAT     H124176   0.911   4.377   6.045
 7978WAT     H224177   0.903   4.415   5.886
 7979WAT      O24178   1.421   8.623   8.024
 7979WAT     H124179   1.418   8.720   7.999
 7979WAT     H224180   1.475   8.613   8.108
 7980WAT      O24181   2.543   5.046   7.554
 7980WAT     H124182   2.501   5.137   7.552
 7980WAT     H224183   2.505   4.990   7.481
 7981WAT      O24184   2.140   1.885   0.676
 7981WAT     H124185   2.234   1.859   0.656
 7981WAT     H224186   2.122   1.977   0.641
 7982WAT      O24187   2.245   9.000   4.064
 7982WAT     H124188   2.190   9.063   4.008
 7982WAT     H224189   2.301   9.052   4.128
 7983WAT      O24190   7.496   9.475   2.149
 7983WAT     H124191   7.536   9.422   2.074
 7983WAT     H224192   7.518   9.431   2.236
 7984WAT      O24193   9.530   4.839   7.760
 7984WAT     H124194   9.614   4.794   7.729
 7984WAT     H224195   9.453   4.776   7.749
 7985WAT      O24196   6.202   5.729   4.530
 7985WAT     H124197   6.184   5.796   4.457
 7985WAT     H224198   6.122   5.723   4.589
 7986WAT      O24199   1.517   5.213   8.792
 7986WAT     H124200   1.481   5.121   8.810
 7986WAT     H224201   1.611   5.206   8.758
 7987WAT      O24202   0.565   8.454   3.848
 7987WAT     H124203   0.657   8.458   3.808
 7987WAT     H224204   0.500   8.498   3.787
 7988WAT      O24205   9.076   6.540   4.669
 7988WAT     H124206   9.093   6.567   4.574
 7988WAT     H224207   9.064   6.621   4.725
 7989WAT      O24208   3.372   0.850   6.908
 7989WAT     H124209   3.392   0.790   6.831
 7989WAT     H224210   3.285   0.824   6.950
 7990WAT      O24211   1.517   0.517   5.632
 7990WAT     H124212   1.585   0.564   5.688
 7990WAT     H224213   1.524   0.549   5.538
 7991WAT      O24214   2.609   0.718   0.558
 7991WAT     H124215   2.655   0.789   0.504
 7991WAT     H224216   2.528   0.757   0.600
 7992WAT      O24217   2.920   1.086   7.949
 7992WAT     H124218   2.823   1.088   7.923
 7992WAT     H224219   2.961   1.001   7.917
 7993WAT      O24220   2.188   6.343   3.690
 7993WAT     H124221   2.175   6.348   3.591
 7993WAT     H224222   2.286   6.346   3.711
 7994WAT      O24223   7.109   6.206   9.674
 7994WAT     H124224   7.060   6.284   9.714
 7994WAT     H224225   7.180   6.239   9.613
 7995WAT      O24226   2.872   6.978   8.318
 7995WAT     H124227   2.824   7.060   8.350
 7995WAT     H224228   2.925   6.940   8.394
 7996WAT      O24229   1.271   1.516   5.194
 7996WAT     H124230   1.243   1.602   5.151
 7996WAT     H224231   1.284   1.530   5.292
 7997WAT      O24232   9.173   5.692   9.845
 7997WAT     H124233   9.122   5.607   9.860
 7997WAT     H224234   9.182   5.742   9.931
 7998WAT      O24235   6.348   5.007   2.935
 7998WAT     H124236   6.335   5.085   2.874
 7998WAT     H224237   6.259   4.964   2.952
 7999WAT      O24238   6.787   1.689   5.968
 7999WAT     H124239   6.787   1.590   5.981
 7999WAT     H224240   6.881   1.720   5.951
 8000WAT      O24241   2.364   6.553   0.835
 8000WAT     H124242   2.302   6.558   0.757
 8000WAT     H224243   2.396   6.644   0.859
 8001WAT      O24244   4.338   1.989   1.924
 8001WAT     H124245   4.294   1.929   1.857
 8001WAT     H224246   4.330   2.084   1.894
 8002WAT      O24247   2.606   6.289   3.431
 8002WAT     H124248   2.706   6.283   3.438
 8002WAT     H224249   2.580   6.309   3.336
 8003WAT      O24250   4.927   7.075   4.956
 8003WAT     H124251   4.897   7.024   5.037
 8003WAT     H224252   5.019   7.046   4.931
 8004WAT      O24253   7.693   6.862   9.343
 8004WAT     H124254   7.595   6.867   9.325
 8004WAT     H224255   7.713   6.779   9.395
 8005WAT      O24256   8.200   6.854   5.295
 8005WAT     H124257   8.293   6.818   5.298
 8005WAT     H224258   8.202   6.952   5.313
 8006WAT      O24259   4.599   3.234   7.121
 8006WAT     H124260   4.650   3.278   7.047
 8006WAT     H224261   4.614   3.135   7.117
 8007WAT      O24262   6.015   7.431   8.939
 8007WAT     H124263   5.968   7.343   8.937
 8007WAT     H224264   6.074   7.439   8.859
 8008WAT      O24265   5.087   7.658   6.396
 8008WAT     H124266   5.044   7.568   6.385
 8008WAT     H224267   5.026   7.728   6.359
 8009WAT      O24268   3.298   5.455   8.775
 8009WAT     H124269   3.304   5.546   8.817
 8009WAT     H224270   3.367   5.395   8.814
 8010WAT      O24271   3.299   0.438   5.682
 8010WAT     H124272   3.392   0.468   5.663
 8010WAT     H224273   3.237   0.517   5.681
 8011WAT      O24274   5.068   1.752   2.150
 8011WAT     H124275   4.979   1.797   2.153
 8011WAT     H224276   5.061   1.665   2.099
 8012WAT      O24277   5.161   5.791   7.884
 8012WAT     H124278   5.205   5.864   7.936
 8012WAT     H224279   5.229   5.721   7.861
 8013WAT      O24280   3.261   9.085   4.733
 8013WAT     H124281   3.358   9.093   4.756
 8013WAT     H224282   3.238   9.150   4.660
 8014WAT      O24283   6.964   8.988   3.105
 8014WAT     H124284   6.954   8.998   3.006
 8014WAT     H224285   6.986   8.893   3.127
 8015WAT      O24286   7.526   8.649   2.968
 8015WAT     H124287   7.517   8.740   2.927
 8015WAT     H224288   7.552   8.659   3.064
 8016WAT      O24289   2.320   4.119   9.143
 8016WAT     H124290   2.349   4.214   9.134
 8016WAT     H224291   2.221   4.113   9.141
 8017WAT      O24292   9.168   4.848   6.333
 8017WAT     H124293   9.084   4.813   6.373
 8017WAT     H224294   9.193   4.793   6.253
 8018WAT      O24295   0.490   3.671   6.663
 8018WAT     H124296   0.567   3.608   6.656
 8018WAT     H224297   0.522   3.765   6.649
 8019WAT      O24298   0.105   2.607   5.060
 8019WAT     H124299   0.168   2.646   5.127
 8019WAT     H224300   0.044   2.678   5.026
 8020WAT      O24301   5.787   0.208   2.181
 8020WAT     H124302   5.749   0.191   2.272
 8020WAT     H224303   5.876   0.254   2.190
 8021WAT      O24304   4.392   8.210   8.724
 8021WAT     H124305   4.380   8.238   8.819
 8021WAT     H224306   4.307   8.170   8.690
 8022WAT      O24307   2.923   2.370   5.899
 8022WAT     H124308   3.000   2.416   5.943
 8022WAT     H224309   2.902   2.416   5.813
 8023WAT      O24310   7.117   5.611   4.333
 8023WAT     H124311   7.039   5.560   4.297
 8023WAT     H224312   7.197   5.550   4.337
 8024WAT      O24313   8.325   7.590   2.140
 8024WAT     H124314   8.411   7.640   2.138
 8024WAT     H224315   8.252   7.649   2.173
 8025WAT      O24316   4.146   8.484   2.489
 8025WAT     H124317   4.062   8.510   2.442
 8025WAT     H224318   4.164   8.548   2.563
 8026WAT      O24319   9.653   8.789   6.569
 8026WAT     H124320   9.633   8.750   6.659
 8026WAT     H224321   9.602   8.874   6.556
 8027WAT      O24322   4.234   4.892   7.154
 8027WAT     H124323   4.196   4.806   7.188
 8027WAT     H224324   4.297   4.930   7.221
 8028WAT      O24325   5.815   0.755   8.137
 8028WAT     H124326   5.730   0.712   8.108
 8028WAT     H224327   5.807   0.784   8.233
 8029WAT      O24328   5.515   8.549   2.995
 8029WAT     H124329   5.492   8.558   3.092
 8029WAT     H224330   5.594   8.488   2.985
 8030WAT      O24331   0.658   7.949   8.361
 8030WAT     H124332   0.587   7.903   8.307
 8030WAT     H224333   0.614   8.005   8.431
 8031WAT      O24334   9.051   8.179   0.391
 8031WAT     H124335   9.036   8.222   0.480
 8031WAT     H224336   8.964   8.177   0.340
 8032WAT      O24337   1.682   6.135   1.582
 8032WAT     H124338   1.692   6.165   1.487
 8032WAT     H224339   1.770   6.099   1.615
 8033WAT      O24340   0.103   9.552   7.912
 8033WAT     H124341   0.032   9.581   7.847
 8033WAT     H224342   0.128   9.629   7.971
 8034WAT      O24343   8.176   7.011   8.110
 8034WAT     H124344   8.118   7.054   8.040
 8034WAT     H224345   8.118   6.969   8.180
 8035WAT      O24346   2.034   5.157   0.861
 8035WAT     H124347   2.130   5.170   0.835
 8035WAT     H224348   1.978   5.150   0.779
 8036WAT      O24349   8.363   6.273   9.550
 8036WAT     H124350   8.285   6.325   9.517
 8036WAT     H224351   8.339   6.227   9.636
 8037WAT      O24352   6.106   9.540   3.268
 8037WAT     H124353   6.099   9.610   3.197
 8037WAT     H224354   6.202   9.518   3.284
 8038WAT      O24355   7.867   8.223   4.409
 8038WAT     H124356   7.780   8.189   4.446
 8038WAT     H224357   7.941   8.200   4.472
 8039WAT      O24358   9.134   2.478   1.375
 8039WAT     H124359   9.100   2.572   1.368
 8039WAT     H224360   9.224   2.479   1.420
 8040WAT      O24361   5.960   4.176   0.231
 8040WAT     H124362   5.936   4.087   0.192
 8040WAT     H224363   6.059   4.190   0.224
 8041WAT      O24364   9.108   4.142   2.822
 8041WAT     H124365   9.129   4.108   2.730
 8041WAT     H224366   9.106   4.066   2.886
 8042WAT      O24367   7.409   4.064   2.847
 8042WAT     H124368   7.499   4.020   2.842
 8042WAT     H224369   7.358   4.046   2.763
 8043WAT      O24370   2.823   3.059   4.099
 8043WAT     H124371   2.782   3.013   4.020
 8043WAT     H224372   2.815   3.158   4.087
 8044WAT      O24373   5.168   9.755   6.394
 8044WAT     H124374   5.222   9.672   6.377
 8044WAT     H224375   5.211   9.833   6.350
 8045WAT      O24376   6.819   3.637   9.625
 8045WAT     H124377   6.766   3.720   9.644
 8045WAT     H224378   6.808   3.573   9.701
 8046WAT      O24379   8.740   9.338   5.825
 8046WAT     H124380   8.689   9.297   5.749
 8046WAT     H224381   8.807   9.403   5.790
 8047WAT      O24382   2.953   7.698   6.112
 8047WAT     H124383   3.035   7.745   6.080
 8047WAT     H224384   2.898   7.761   6.167
 8048WAT      O24385   1.430   5.753   0.771
 8048WAT     H124386   1.526   5.771   0.752
 8048WAT     H224387   1.400   5.671   0.721
 8049WAT      O24388   2.297   5.808   4.414
 8049WAT     H124389   2.364   5.835   4.345
 8049WAT     H224390   2.344   5.763   4.491
 8050WAT      O24391   1.567   0.611   5.373
 8050WAT     H124392   1.565   0.589   5.276
 8050WAT     H224393   1.647   0.668   5.393
 8051WAT      O24394   3.470   7.154   2.154
 8051WAT     H124395   3.408   7.232   2.147
 8051WAT     H224396   3.483   7.130   2.251
 8052WAT      O24397   4.691   7.599   2.256
 8052WAT     H124398   4.677   7.567   2.163
 8052WAT     H224399   4.784   7.636   2.265
 8053WAT      O24400   7.660   4.511   5.470
 8053WAT     H124401   7.603   4.434   5.441
 8053WAT     H224402   7.749   4.477   5.502
 8054WAT      O24403   5.562   5.890   9.635
 8054WAT     H124404   5.505   5.942   9.699
 8054WAT     H224405   5.653   5.932   9.630
 8055WAT      O24406   6.242   8.813   3.208
 8055WAT     H124407   6.169   8.821   3.277
 8055WAT     H224408   6.202   8.783   3.121
 8056WAT      O24409   4.452   9.618   8.180
 8056WAT     H124410   4.533   9.617   8.122
 8056WAT     H224411   4.372   9.640   8.124
 8057WAT      O24412   0.525   4.906   6.738
 8057WAT     H124413   0.514   4.939   6.832
 8057WAT     H224414   0.466   4.827   6.723
 8058WAT      O24415   0.454   3.884   4.513
 8058WAT     H124416   0.464   3.853   4.608
 8058WAT     H224417   0.358   3.874   4.485
 8059WAT      O24418   7.888   1.315   3.468
 8059WAT     H124419   7.934   1.235   3.430
 8059WAT     H224420   7.799   1.327   3.422
 8060WAT      O24421   0.799   1.530   5.703
 8060WAT     H124422   0.831   1.575   5.620
 8060WAT     H224423   0.864   1.547   5.777
 8061WAT      O24424   5.291   2.930   6.338
 8061WAT     H124425   5.228   2.936   6.415
 8061WAT     H224426   5.384   2.913   6.372
 8062WAT      O24427   6.628   2.610   1.482
 8062WAT     H124428   6.698   2.628   1.413
 8062WAT     H224429   6.538   2.608   1.438
 8063WAT      O24430   2.353   8.817   3.370
 8063WAT     H124431   2.256   8.797   3.384
 8063WAT     H224432   2.399   8.824   3.459
 8064WAT      O24433   8.099   4.739   0.122
 8064WAT     H124434   8.125   4.657   0.172
 8064WAT     H224435   8.162   4.813   0.143
 8065WAT      O24436   8.648   9.770   4.700
 8065WAT     H124437   8.644   9.758   4.799
 8065WAT     H224438   8.611   9.689   4.654
 8066WAT      O24439   7.318   5.630   0.095
 8066WAT     H124440   7.360   5.548   0.133
 8066WAT     H224441   7.316   5.624  -0.005
 8067WAT      O24442   7.587   6.557   8.387
 8067WAT     H124443   7.681   6.561   8.352
 8067WAT     H224444   7.533   6.631   8.346
 8068WAT      O24445   8.439   8.343   4.432
 8068WAT     H124446   8.358   8.332   4.375
 8068WAT     H224447   8.435   8.432   4.478
 8069WAT      O24448   9.691   0.965   7.239
 8069WAT     H124449   9.683   0.992   7.143
 8069WAT     H224450   9.679   1.045   7.298
 8070WAT      O24451   0.008   2.848   0.260
 8070WAT     H124452   0.076   2.920   0.276
 8070WAT     H224453   0.002   2.789   0.341
 8071WAT      O24454   5.066   3.402   8.645
 8071WAT     H124455   5.151   3.420   8.595
 8071WAT     H224456   5.030   3.488   8.681
 8072WAT      O24457   6.297   6.757   2.823
 8072WAT     H124458   6.391   6.743   2.855
 8072WAT     H224459   6.250   6.821   2.883
 8073WAT      O24460   4.407   9.123   0.293
 8073WAT     H124461   4.377   9.194   0.357
 8073WAT     H224462   4.500   9.144   0.262
 8074WAT      O24463   0.735   3.159   2.247
 8074WAT     H124464   0.639   3.185   2.233
 8074WAT     H224465   0.794   3.224   2.200
 8075WAT      O24466   3.736   4.364   8.466
 8075WAT     H124467   3.661   4.360   8.532
 8075WAT     H224468   3.699   4.382   8.375
 8076WAT      O24469   0.965   8.838   2.531
 8076WAT     H124470   1.062   8.828   2.509
 8076WAT     H224471   0.914   8.858   2.448
 8077WAT      O24472   6.710   3.270   5.091
 8077WAT     H124473   6.700   3.188   5.035
 8077WAT     H224474   6.621   3.311   5.107
 8078WAT      O24475   7.599   2.696   7.253
 8078WAT     H124476   7.690   2.709   7.215
 8078WAT     H224477   7.605   2.681   7.352
 8079WAT      O24478   0.794   0.425   4.103
 8079WAT     H124479   0.721   0.388   4.045
 8079WAT     H224480   0.824   0.513   4.067
 8080WAT      O24481   9.388   6.825   0.344
 8080WAT     H124482   9.302   6.852   0.389
 8080WAT     H224483   9.372   6.818   0.245
 8081WAT      O24484   1.330   9.775   2.697
 8081WAT     H124485   1.390   9.750   2.621
 8081WAT     H224486   1.350   9.869   2.726
 8082WAT      O24487   1.032   1.019   2.871
 8082WAT     H124488   1.129   0.994   2.865
 8082WAT     H224489   0.985   0.953   2.929
 8083WAT      O24490   3.224   1.592   6.931
 8083WAT     H124491   3.130   1.570   6.907
 8083WAT     H224492   3.237   1.691   6.929
 8084WAT      O24493   3.913   2.925   5.361
 8084WAT     H124494   3.989   2.875   5.401
 8084WAT     H224495   3.839   2.933   5.428
 8085WAT      O24496   0.366   8.852   0.179
 8085WAT     H124497   0.266   8.846   0.183
 8085WAT     H224498   0.392   8.916   0.107
 8086WAT      O24499   3.920   6.037   9.837
 8086WAT     H124500   4.008   6.061   9.877
 8086WAT     H224501   3.898   6.103   9.765
 8087WAT      O24502   6.162   0.659   9.258
 8087WAT     H124503   6.068   0.690   9.274
 8087WAT     H224504   6.195   0.695   9.172
 8088WAT      O24505   6.937   9.081   8.780
 8088WAT     H124506   7.006   9.146   8.748
 8088WAT     H224507   6.848   9.108   8.745
 8089WAT      O24508   3.778   8.721   4.314
 8089WAT     H124509   3.815   8.661   4.385
 8089WAT     H224510   3.681   8.736   4.331
 8090WAT      O24511   6.420   2.464   8.390
 8090WAT     H124512   6.341   2.405   8.372
 8090WAT     H224513   6.427   2.482   8.488
 8091WAT      O24514   9.031   4.614   3.369
 8091WAT     H124515   9.107   4.654   3.318
 8091WAT     H224516   9.061   4.528   3.412
 8092WAT      O24517   4.600   0.104   2.550
 8092WAT     H124518   4.522   0.088   2.490
 8092WAT     H224519   4.567   0.128   2.642
 8093WAT      O24520   4.060   0.423   9.874
 8093WAT     H124521   3.960   0.424   9.870
 8093WAT     H224522   4.090   0.414   9.969
 8094WAT      O24523   0.533   9.658   4.531
 8094WAT     H124524   0.437   9.685   4.536
 8094WAT     H224525   0.560   9.615   4.618
 8095WAT      O24526   2.535   8.518   9.334
 8095WAT     H124527   2.501   8.612   9.340
 8095WAT     H224528   2.598   8.500   9.409
 8096WAT      O24529   9.083   7.740   7.705
 8096WAT     H124530   9.100   7.808   7.777
 8096WAT     H224531   9.040   7.659   7.746
 8097WAT      O24532   0.760   2.091   6.702
 8097WAT     H124533   0.732   2.126   6.792
 8097WAT     H224534   0.695   2.124   6.633
 8098WAT      O24535   4.382   5.945   9.850
 8098WAT     H124536   4.418   6.017   9.791
 8098WAT     H224537   4.335   5.877   9.795
 8099WAT      O24538   6.639   2.177   7.977
 8099WAT     H124539   6.553   2.127   7.962
 8099WAT     H224540   6.621   2.260   8.029
 8100WAT      O24541   7.250   7.989   0.647
 8100WAT     H124542   7.325   7.936   0.609
 8100WAT     H224543   7.238   7.965   0.743
 8101WAT      O24544   3.710   2.461   6.198
 8101WAT     H124545   3.666   2.545   6.165
 8101WAT     H224546   3.731   2.470   6.295
 8102WAT      O24547   8.335   5.756   7.935
 8102WAT     H124548   8.271   5.772   7.860
 8102WAT     H224549   8.398   5.833   7.943
 8103WAT      O24550   4.640   8.865   8.158
 8103WAT     H124551   4.665   8.929   8.086
 8103WAT     H224552   4.647   8.910   8.247
 8104WAT      O24553   4.234   2.606   3.379
 8104WAT     H124554   4.287   2.523   3.363
 8104WAT     H224555   4.237   2.630   3.476
 8105WAT      O24556   7.207   3.697   3.490
 8105WAT     H124557   7.143   3.645   3.546
 8105WAT     H224558   7.268   3.750   3.549
 8106WAT      O24559   4.716   2.172   6.586
 8106WAT     H124560   4.684   2.098   6.527
 8106WAT     H224561   4.646   2.243   6.594
 8107WAT      O24562   2.328   8.631   4.833
 8107WAT     H124563   2.252   8.566   4.842
 8107WAT     H224564   2.306   8.698   4.763
 8108WAT      O24565   3.569   1.100   6.483
 8108WAT     H124566   3.639   1.087   6.553
 8108WAT     H224567   3.480   1.071   6.520
 8109WAT      O24568   5.553   2.076   2.034
 8109WAT     H124569   5.496   2.157   2.044
 8109WAT     H224570   5.504   1.996   2.070
 8110WAT      O24571   5.695   5.957   1.192
 8110WAT     H124572   5.745   5.876   1.160
 8110WAT     H224573   5.599   5.949   1.165
 8111WAT      O24574   5.985   6.921   2.207
 8111WAT     H124575   5.933   6.868   2.141
 8111WAT     H224576   5.970   7.019   2.191
 8112WAT      O24577   1.011   1.743   3.065
 8112WAT     H124578   0.922   1.767   3.025
 8112WAT     H224579   0.997   1.677   3.139
 8113WAT      O24580   1.261   3.572   2.753
 8113WAT     H124581   1.224   3.479   2.758
 8113WAT     H224582   1.361   3.569   2.761
 8114WAT      O24583   6.539   8.563   8.259
 8114WAT     H124584   6.533   8.511   8.174
 8114WAT     H224585   6.469   8.531   8.323
 8115WAT      O24586   2.068   9.788   2.718
 8115WAT     H124587   2.120   9.816   2.798
 8115WAT     H224588   2.119   9.811   2.635
 8116WAT      O24589   9.129   3.242   2.956
 8116WAT     H124590   9.060   3.280   3.018
 8116WAT     H224591   9.185   3.176   3.005
 8117WAT      O24592   9.835   1.258   6.313
 8117WAT     H124593   9.844   1.299   6.404
 8117WAT     H224594   9.763   1.189   6.314
 8118WAT      O24595   8.909   3.009   5.058
 8118WAT     H124596   8.961   2.982   5.140
 8118WAT     H224597   8.847   2.935   5.032
 8119WAT      O24598   4.010   7.381   9.531
 8119WAT     H124599   4.097   7.339   9.502
 8119WAT     H224600   3.965   7.422   9.452
 8120WAT      O24601   6.513   9.306   3.731
 8120WAT     H124602   6.454   9.346   3.661
 8120WAT     H224603   6.603   9.285   3.692
 8121WAT      O24604   5.295   4.420   7.582
 8121WAT     H124605   5.287   4.508   7.629
 8121WAT     H224606   5.274   4.346   7.646
 8122WAT      O24607   8.898   8.166   5.809
 8122WAT     H124608   8.803   8.195   5.819
 8122WAT     H224609   8.902   8.070   5.781
 8123WAT      O24610   2.596   3.270   4.590
 8123WAT     H124611   2.518   3.317   4.632
 8123WAT     H224612   2.603   3.296   4.494
 8124WAT      O24613   0.013   7.308   6.241
 8124WAT     H124614  -0.038   7.393   6.258
 8124WAT     H224615  -0.006   7.277   6.147
 8125WAT      O24616   0.581   2.327   0.602
 8125WAT     H124617   0.666   2.379   0.592
 8125WAT     H224618   0.576   2.256   0.531
 8126WAT      O24619   1.125   6.947   5.531
 8126WAT     H124620   1.049   6.909   5.478
 8126WAT     H224621   1.202   6.884   5.530
 8127WAT      O24622   0.108   8.154   7.783
 8127WAT     H124623   0.083   8.232   7.842
 8127WAT     H224624   0.074   8.171   7.690
 8128WAT      O24625   9.736   0.995   0.694
 8128WAT     H124626   9.730   1.083   0.648
 8128WAT     H224627   9.682   0.998   0.778
 8129WAT      O24628   8.913   8.135   8.688
 8129WAT     H124629   8.977   8.209   8.707
 8129WAT     H224630   8.842   8.168   8.625
 8130WAT      O24631   0.574   8.822   4.948
 8130WAT     H124632   0.575   8.922   4.953
 8130WAT     H224633   0.654   8.791   4.897
 8131WAT      O24634   9.840   5.706   9.618
 8131WAT     H124635   9.906   5.710   9.693
 8131WAT     H224636   9.830   5.611   9.587
 8132WAT      O24637   1.330   8.750   2.934
 8132WAT     H124638   1.293   8.838   2.901
 8132WAT     H224639   1.386   8.709   2.863
 8133WAT      O24640   2.895   5.549   0.438
 8133WAT     H124641   2.837   5.500   0.373
 8133WAT     H224642   2.928   5.634   0.396
 8134WAT      O24643   7.608   8.948   1.880
 8134WAT     H124644   7.531   9.012   1.880
 8134WAT     H224645   7.574   8.854   1.869
 8135WAT      O24646   7.851   0.590   5.733
 8135WAT     H124647   7.841   0.594   5.833
 8135WAT     H224648   7.948   0.589   5.709
 8136WAT      O24649   2.297   1.353   4.201
 8136WAT     H124650   2.252   1.393   4.281
 8136WAT     H224651   2.347   1.425   4.152
 8137WAT      O24652   8.597   5.130   2.531
 8137WAT     H124653   8.596   5.046   2.584
 8137WAT     H224654   8.661   5.195   2.572
 8138WAT      O24655   7.522   7.132   6.517
 8138WAT     H124656   7.498   7.087   6.431
 8138WAT     H224657   7.439   7.151   6.568
 8139WAT      O24658   9.308   6.122   5.514
 8139WAT     H124659   9.343   6.060   5.584
 8139WAT     H224660   9.367   6.202   5.507
 8140WAT      O24661   5.178   3.607   2.837
 8140WAT     H124662   5.217   3.518   2.813
 8140WAT     H224663   5.229   3.679   2.790
 8141WAT      O24664   0.095   8.350   1.890
 8141WAT     H124665   0.011   8.384   1.933
 8141WAT     H224666   0.107   8.394   1.801
 8142WAT      O24667   9.083   2.594   4.765
 8142WAT     H124668   9.053   2.676   4.814
 8142WAT     H224669   9.179   2.603   4.741
 8143WAT      O24670   3.801   9.556   1.415
 8143WAT     H124671   3.736   9.501   1.363
 8143WAT     H224672   3.893   9.543   1.379
 8144WAT      O24673   4.073   2.753   2.593
 8144WAT     H124674   4.167   2.765   2.563
 8144WAT     H224675   4.050   2.656   2.592
 8145WAT      O24676   4.346   1.676   5.958
 8145WAT     H124677   4.326   1.701   5.864
 8145WAT     H224678   4.424   1.728   5.991
 8146WAT      O24679   8.810   2.313   2.991
 8146WAT     H124680   8.823   2.223   2.949
 8146WAT     H224681   8.888   2.333   3.050
 8147WAT      O24682   1.236   9.761   6.124
 8147WAT     H124683   1.207   9.670   6.153
 8147WAT     H224684   1.156   9.814   6.098
 8148WAT      O24685   0.979   8.670   2.945
 8148WAT     H124686   0.951   8.684   2.850
 8148WAT     H224687   0.897   8.655   3.001
 8149WAT      O24688   1.343   0.337   2.014
 8149WAT     H124689   1.403   0.324   1.934
 8149WAT     H224690   1.392   0.389   2.084
 8150WAT      O24691   7.460   6.803   2.126
 8150WAT     H124692   7.376   6.753   2.105
 8150WAT     H224693   7.487   6.858   2.046
 8151WAT      O24694   6.210   7.227   5.083
 8151WAT     H124695   6.306   7.249   5.101
 8151WAT     H224696   6.196   7.213   4.985
 8152WAT      O24697   8.659   3.574   0.344
 8152WAT     H124698   8.571   3.591   0.299
 8152WAT     H224699   8.653   3.490   0.398
 8153WAT      O24700   9.090   5.487   9.563
 8153WAT     H124701   9.006   5.533   9.536
 8153WAT     H224702   9.167   5.523   9.509
 8154WAT      O24703   3.749   7.291   5.792
 8154WAT     H124704   3.683   7.265   5.863
 8154WAT     H224705   3.711   7.365   5.737
 8155WAT      O24706   9.864   2.092   9.660
 8155WAT     H124707   9.830   2.044   9.578
 8155WAT     H224708   9.964   2.099   9.654
 8156WAT      O24709   4.854   5.765   3.508
 8156WAT     H124710   4.832   5.828   3.433
 8156WAT     H224711   4.801   5.789   3.589
 8157WAT      O24712   2.095   0.555   6.214
 8157WAT     H124713   2.027   0.493   6.175
 8157WAT     H224714   2.125   0.520   6.302
 8158WAT      O24715   7.758   8.529   5.715
 8158WAT     H124716   7.849   8.571   5.714
 8158WAT     H224717   7.766   8.431   5.695
 8159WAT      O24718   7.859   0.954   7.964
 8159WAT     H124719   7.773   0.949   7.914
 8159WAT     H224720   7.931   0.908   7.911
 8160WAT      O24721   6.704   2.876   5.203
 8160WAT     H124722   6.632   2.808   5.216
 8160WAT     H224723   6.727   2.881   5.105
 8161WAT      O24724   8.756   4.683   9.682
 8161WAT     H124725   8.820   4.639   9.745
 8161WAT     H224726   8.686   4.731   9.735
 8162WAT      O24727   0.299   2.453   6.738
 8162WAT     H124728   0.233   2.516   6.696
 8162WAT     H224729   0.372   2.432   6.673
 8163WAT      O24730   6.107   6.558   6.657
 8163WAT     H124731   6.080   6.587   6.565
 8163WAT     H224732   6.195   6.600   6.679
 8164WAT      O24733   6.856   3.251   1.719
 8164WAT     H124734   6.764   3.289   1.713
 8164WAT     H224735   6.855   3.157   1.685
 8165WAT      O24736   9.060   8.614   0.144
 8165WAT     H124737   9.091   8.614   0.049
 8165WAT     H224738   9.121   8.557   0.199
 8166WAT      O24739   9.885   8.229   5.974
 8166WAT     H124740   9.844   8.242   5.884
 8166WAT     H224741   9.882   8.132   5.999
 8167WAT      O24742   3.929   0.459   3.320
 8167WAT     H124743   3.877   0.391   3.268
 8167WAT     H224744   3.876   0.489   3.399
 8168WAT      O24745   6.091   0.644   5.714
 8168WAT     H124746   6.019   0.699   5.673
 8168WAT     H224747   6.134   0.586   5.644
 8169WAT      O24748   5.711   8.171   4.002
 8169WAT     H124749   5.630   8.182   3.944
 8169WAT     H224750   5.726   8.074   4.019
 8170WAT      O24751   8.947   1.846   8.858
 8170WAT     H124752   8.993   1.932   8.836
 8170WAT     H224753   9.016   1.777   8.881
 8171WAT      O24754   3.543   2.763   2.903
 8171WAT     H124755   3.467   2.705   2.932
 8171WAT     H224756   3.531   2.789   2.807
 8172WAT      O24757   4.875   3.632   5.982
 8172WAT     H124758   4.939   3.661   6.053
 8172WAT     H224759   4.868   3.532   5.981
 8173WAT      O24760   7.453   6.798   3.024
 8173WAT     H124761   7.500   6.842   3.101
 8173WAT     H224762   7.443   6.700   3.044
 8174WAT      O24763   7.262   3.805   3.005
 8174WAT     H124764   7.265   3.846   3.096
 8174WAT     H224765   7.247   3.877   2.936
 8175WAT      O24766   2.783   8.002   7.766
 8175WAT     H124767   2.736   8.088   7.746
 8175WAT     H224768   2.779   7.942   7.685
 8176WAT      O24769   8.616   6.164   1.578
 8176WAT     H124770   8.666   6.192   1.660
 8176WAT     H224771   8.622   6.065   1.567
 8177WAT      O24772   5.302   4.025   7.138
 8177WAT     H124773   5.242   4.085   7.085
 8177WAT     H224774   5.303   4.055   7.234
 8178WAT      O24775   7.754   5.224   7.169
 8178WAT     H124776   7.846   5.213   7.207
 8178WAT     H224777   7.760   5.249   7.072
 8179WAT      O24778   1.272   8.832   0.363
 8179WAT     H124779   1.203   8.778   0.313
 8179WAT     H224780   1.231   8.869   0.446
 8180WAT      O24781   0.122   8.460   1.634
 8180WAT     H124782   0.151   8.553   1.611
 8180WAT     H224783   0.154   8.396   1.565
 8181WAT      O24784   3.937   2.372   9.318
 8181WAT     H124785   3.993   2.452   9.297
 8181WAT     H224786   3.863   2.399   9.380
 8182WAT      O24787   4.761   8.060   8.118
 8182WAT     H124788   4.697   8.034   8.046
 8182WAT     H224789   4.715   8.120   8.183
 8183WAT      O24790   7.294   3.543   1.196
 8183WAT     H124791   7.224   3.571   1.262
 8183WAT     H224792   7.255   3.547   1.104
 8184WAT      O24793   6.061   0.764   7.526
 8184WAT     H124794   6.041   0.729   7.617
 8184WAT     H224795   6.011   0.849   7.511
 8185WAT      O24796   7.834   0.867   5.708
 8185WAT     H124797   7.762   0.883   5.641
 8185WAT     H224798   7.858   0.770   5.709
 8186WAT      O24799   9.051   4.793   3.572
 8186WAT     H124800   9.087   4.749   3.654
 8186WAT     H224801   9.045   4.726   3.498
 8187WAT      O24802   0.551   4.625   4.369
 8187WAT     H124803   0.592   4.684   4.299
 8187WAT     H224804   0.544   4.532   4.334
 8188WAT      O24805   4.123   1.284   4.147
 8188WAT     H124806   4.126   1.382   4.165
 8188WAT     H224807   4.056   1.241   4.207
 8189WAT      O24808   3.859   8.139   7.440
 8189WAT     H124809   3.940   8.086   7.466
 8189WAT     H224810   3.875   8.236   7.462
 8190WAT      O24811   6.676   6.559   4.390
 8190WAT     H124812   6.661   6.647   4.434
 8190WAT     H224813   6.715   6.573   4.299
 8191WAT      O24814   2.910   9.582   1.439
 8191WAT     H124815   2.829   9.638   1.420
 8191WAT     H224816   2.918   9.568   1.538
 8192WAT      O24817   4.702   4.155   1.793
 8192WAT     H124818   4.639   4.199   1.857
 8192WAT     H224819   4.784   4.213   1.784
 8193WAT      O24820   7.980   2.406   1.652
 8193WAT     H124821   7.953   2.413   1.556
 8193WAT     H224822   8.007   2.311   1.672
 8194WAT      O24823   6.429   5.117   9.576
 8194WAT     H124824   6.449   5.027   9.615
 8194WAT     H224825   6.339   5.116   9.534
 8195WAT      O24826   3.012   0.887   7.784
 8195WAT     H124827   2.994   0.950   7.708
 8195WAT     H224828   2.968   0.799   7.765
 8196WAT      O24829   2.216   1.947   5.969
 8196WAT     H124830   2.196   2.038   5.933
 8196WAT     H224831   2.232   1.952   6.067
 8197WAT      O24832   8.994   4.506   4.069
 8197WAT     H124833   9.050   4.451   4.131
 8197WAT     H224834   8.904   4.463   4.058
 8198WAT      O24835   2.407   8.899   3.094
 8198WAT     H124836   2.369   8.875   3.183
 8198WAT     H224837   2.495   8.854   3.081
 8199WAT      O24838   6.352   7.747   0.171
 8199WAT     H124839   6.337   7.680   0.098
 8199WAT     H224840   6.267   7.763   0.220
 8200WAT      O24841   7.460   5.173   0.380
 8200WAT     H124842   7.451   5.102   0.451
 8200WAT     H224843   7.557   5.190   0.363
 8201WAT      O24844   2.057   8.157   5.151
 8201WAT     H124845   1.980   8.218   5.170
 8201WAT     H224846   2.115   8.198   5.079
 8202WAT      O24847   2.692   2.535   6.070
 8202WAT     H124848   2.671   2.586   5.987
 8202WAT     H224849   2.792   2.523   6.077
 8203WAT      O24850   9.845   1.439   0.698
 8203WAT     H124851   9.775   1.369   0.684
 8203WAT     H224852   9.825   1.518   0.640
 8204WAT      O24853   8.364   9.588   5.242
 8204WAT     H124854   8.458   9.566   5.267
 8204WAT     H224855   8.301   9.551   5.310
 8205WAT      O24856   8.233   1.123   3.421
 8205WAT     H124857   8.238   1.036   3.470
 8205WAT     H224858   8.277   1.113   3.332
 8206WAT      O24859   5.452   6.282   8.990
 8206WAT     H124860   5.488   6.375   8.994
 8206WAT     H224861   5.449   6.251   8.894
 8207WAT      O24862   9.613   8.856   9.659
 8207WAT     H124863   9.645   8.926   9.595
 8207WAT     H224864   9.584   8.775   9.607
 8208WAT      O24865   5.046   8.494   4.930
 8208WAT     H124866   5.056   8.573   4.869
 8208WAT     H224867   4.949   8.478   4.947
 8209WAT      O24868   7.933   2.768   5.690
 8209WAT     H124869   8.031   2.756   5.702
 8209WAT     H224870   7.909   2.751   5.594
 8210WAT      O24871   6.554   1.695   7.973
 8210WAT     H124872   6.637   1.643   7.993
 8210WAT     H224873   6.579   1.790   7.951
 8211WAT      O24874   7.216   7.437   3.065
 8211WAT     H124875   7.186   7.530   3.087
 8211WAT     H224876   7.207   7.421   2.967
 8212WAT      O24877   4.542   6.748   7.796
 8212WAT     H124878   4.579   6.786   7.881
 8212WAT     H224879   4.609   6.758   7.723
 8213WAT      O24880   8.409   8.403   0.077
 8213WAT     H124881   8.373   8.316   0.108
 8213WAT     H224882   8.394   8.412  -0.021
 8214WAT      O24883   2.681   4.749   5.562
 8214WAT     H124884   2.622   4.822   5.527
 8214WAT     H224885   2.629   4.665   5.569
 8215WAT      O24886   1.576   1.878   7.700
 8215WAT     H124887   1.589   1.838   7.791
 8215WAT     H224888   1.517   1.959   7.708
 8216WAT      O24889   8.834   2.499   3.730
 8216WAT     H124890   8.881   2.556   3.663
 8216WAT     H224891   8.844   2.403   3.705
 8217WAT      O24892   0.393   0.040   2.076
 8217WAT     H124893   0.476  -0.009   2.102
 8217WAT     H224894   0.416   0.110   2.008
 8218WAT      O24895   3.459   6.773   1.176
 8218WAT     H124896   3.555   6.797   1.191
 8218WAT     H224897   3.400   6.840   1.221
 8219WAT      O24898   8.922   6.252   8.128
 8219WAT     H124899   8.845   6.256   8.065
 8219WAT     H224900   9.004   6.286   8.082
 8220WAT      O24901   6.031   9.269   6.092
 8220WAT     H124902   5.953   9.308   6.140
 8220WAT     H224903   6.065   9.335   6.024
 8221WAT      O24904   7.935   0.499   3.086
 8221WAT     H124905   7.974   0.544   3.167
 8221WAT     H224906   7.981   0.411   3.072
 8222WAT      O24907   1.716   8.727   5.643
 8222WAT     H124908   1.710   8.755   5.547
 8222WAT     H224909   1.686   8.632   5.651
 8223WAT      O24910   2.942   1.844   0.919
 8223WAT     H124911   2.881   1.837   0.998
 8223WAT     H224912   3.003   1.923   0.930
 8224WAT      O24913   3.595   5.793   3.259
 8224WAT     H124914   3.540   5.798   3.176
 8224WAT     H224915   3.638   5.703   3.265
 8225WAT      O24916   7.792   1.211   3.892
 8225WAT     H124917   7.735   1.250   3.819
 8225WAT     H224918   7.887   1.240   3.879
 8226WAT      O24919   9.279   7.103   5.058
 8226WAT     H124920   9.179   7.095   5.063
 8226WAT     H224921   9.311   7.158   5.135
 8227WAT      O24922   9.112   8.532   7.941
 8227WAT     H124923   9.063   8.590   7.876
 8227WAT     H224924   9.210   8.531   7.918
 8228WAT      O24925   8.208   7.306   9.884
 8228WAT     H124926   8.211   7.306   9.784
 8228WAT     H224927   8.123   7.349   9.914
 8229WAT      O24928   1.553   8.845   7.839
 8229WAT     H124929   1.506   8.897   7.909
 8229WAT     H224930   1.510   8.861   7.750
 8230WAT      O24931   9.021   4.667   5.808
 8230WAT     H124932   8.982   4.673   5.717
 8230WAT     H224933   8.964   4.610   5.866
 8231WAT      O24934   7.568   7.187   4.946
 8231WAT     H124935   7.532   7.119   4.882
 8231WAT     H224936   7.504   7.198   5.022
 8232WAT      O24937   9.399   9.344   9.740
 8232WAT     H124938   9.445   9.425   9.777
 8232WAT     H224939   9.412   9.268   9.803
 8233WAT      O24940   3.117   0.595   0.371
 8233WAT     H124941   3.046   0.664   0.356
 8233WAT     H224942   3.110   0.560   0.465
 8234WAT      O24943   0.582   8.327   9.179
 8234WAT     H124944   0.510   8.385   9.139
 8234WAT     H224945   0.547   8.283   9.261
 8235WAT      O24946   1.711   5.695   5.391
 8235WAT     H124947   1.670   5.786   5.388
 8235WAT     H224948   1.803   5.701   5.428
 8236WAT      O24949   0.806   3.834   7.139
 8236WAT     H124950   0.827   3.874   7.228
 8236WAT     H224951   0.720   3.873   7.105
 8237WAT      O24952   6.487   5.228   4.947
 8237WAT     H124953   6.430   5.232   5.029
 8237WAT     H224954   6.568   5.286   4.959
 8238WAT      O24955   8.980   2.585   8.821
 8238WAT     H124956   8.925   2.540   8.891
 8238WAT     H224957   9.047   2.520   8.784
 8239WAT      O24958   2.678   4.711   8.432
 8239WAT     H124959   2.604   4.648   8.409
 8239WAT     H224960   2.736   4.725   8.353
 8240WAT      O24961   0.481   7.261   5.442
 8240WAT     H124962   0.523   7.325   5.505
 8240WAT     H224963   0.382   7.269   5.448
 8241WAT      O24964   4.730   3.871   9.635
 8241WAT     H124965   4.810   3.825   9.595
 8241WAT     H224966   4.744   3.882   9.733
 8242WAT      O24967   2.251   2.350   2.184
 8242WAT     H124968   2.312   2.277   2.153
 8242WAT     H224969   2.258   2.429   2.123
 8243WAT      O24970   0.869   0.713   4.024
 8243WAT     H124971   0.953   0.764   4.008
 8243WAT     H224972   0.799   0.774   4.062
 8244WAT      O24973   0.247   7.942   1.606
 8244WAT     H124974   0.185   7.947   1.685
 8244WAT     H224975   0.259   8.034   1.567
 8245WAT      O24976   1.026   6.276   0.460
 8245WAT     H124977   0.981   6.303   0.375
 8245WAT     H224978   1.120   6.311   0.461
 8246WAT      O24979   7.819   7.469   9.627
 8246WAT     H124980   7.876   7.388   9.639
 8246WAT     H224981   7.722   7.444   9.635
 8247WAT      O24982   6.723   6.941   2.420
 8247WAT     H124983   6.738   6.867   2.354
 8247WAT     H224984   6.674   6.905   2.500
 8248WAT      O24985   4.149   3.266   3.800
 8248WAT     H124986   4.152   3.335   3.728
 8248WAT     H224987   4.116   3.180   3.762
 8249WAT      O24988   3.116   9.448   6.949
 8249WAT     H124989   3.088   9.359   6.912
 8249WAT     H224990   3.053   9.518   6.917
 8250WAT      O24991   0.356   0.937   7.132
 8250WAT     H124992   0.341   0.896   7.222
 8250WAT     H224993   0.280   0.997   7.109
 8251WAT      O24994   0.287   9.706   8.647
 8251WAT     H124995   0.294   9.718   8.548
 8251WAT     H224996   0.369   9.744   8.691
 8252WAT      O24997   9.131   8.675   7.152
 8252WAT     H124998   9.063   8.613   7.190
 8252WAT     H224999   9.131   8.760   7.205
 8253WAT      O25000   0.120   0.538   5.319
 8253WAT     H125001   0.114   0.611   5.251
 8253WAT     H225002   0.171   0.570   5.398
 8254WAT      O25003   6.801   7.867   3.560
 8254WAT     H125004   6.765   7.794   3.619
 8254WAT     H225005   6.733   7.889   3.490
 8255WAT      O25006   0.487   5.435   6.168
 8255WAT     H125007   0.466   5.434   6.266
 8255WAT     H225008   0.558   5.367   6.148
 8256WAT      O25009   4.402   8.879   4.498
 8256WAT     H125010   4.327   8.918   4.552
 8256WAT     H225011   4.366   8.840   4.414
 8257WAT      O25012   1.620   6.925   8.507
 8257WAT     H125013   1.668   6.951   8.423
 8257WAT     H225014   1.623   7.001   8.571
 8258WAT      O25015   7.715   2.409   5.144
 8258WAT     H125016   7.659   2.490   5.161
 8258WAT     H225017   7.740   2.405   5.047
 8259WAT      O25018   4.961   2.548   3.689
 8259WAT     H125019   4.903   2.588   3.618
 8259WAT     H225020   5.031   2.491   3.646
 8260WAT      O25021   4.680   7.135   0.859
 8260WAT     H125022   4.678   7.039   0.831
 8260WAT     H225023   4.612   7.187   0.807
 8261WAT      O25024   5.222   6.376   3.511
 8261WAT     H125025   5.269   6.303   3.561
 8261WAT     H225026   5.124   6.357   3.508
 8262WAT      O25027   0.081   8.730   9.660
 8262WAT     H125028   0.173   8.699   9.683
 8262WAT     H225029   0.049   8.794   9.730
 8263WAT      O25030   2.427   2.618   9.428
 8263WAT     H125031   2.335   2.590   9.458
 8263WAT     H225032   2.447   2.578   9.339
 8264WAT      O25033   6.564   2.500   3.451
 8264WAT     H125034   6.527   2.572   3.393
 8264WAT     H225035   6.596   2.424   3.394
 8265WAT      O25036   4.431   7.851   7.450
 8265WAT     H125037   4.500   7.866   7.379
 8265WAT     H225038   4.388   7.761   7.436
 8266WAT      O25039   6.854   1.872   6.710
 8266WAT     H125040   6.921   1.825   6.654
 8266WAT     H225041   6.875   1.857   6.807
 8267WAT      O25042   3.592   0.434   5.158
 8267WAT     H125043   3.493   0.430   5.153
 8267WAT     H225044   3.623   0.404   5.248
 8268WAT      O25045   9.649   8.767   1.178
 8268WAT     H125046   9.726   8.714   1.143
 8268WAT     H225047   9.568   8.748   1.122
 8269WAT      O25048   0.214   6.553   3.616
 8269WAT     H125049   0.281   6.609   3.566
 8269WAT     H225050   0.137   6.611   3.642
 8270WAT      O25051   8.671   0.254   7.469
 8270WAT     H125052   8.764   0.263   7.434
 8270WAT     H225053   8.661   0.167   7.516
 8271WAT      O25054   2.988   9.351   5.799
 8271WAT     H125055   3.079   9.336   5.837
 8271WAT     H225056   2.923   9.288   5.842
 8272WAT      O25057   0.091   8.461   7.482
 8272WAT     H125058   0.144   8.487   7.562
 8272WAT     H225059   0.043   8.541   7.446
 8273WAT      O25060   1.645   7.632   6.808
 8273WAT     H125061   1.582   7.591   6.742
 8273WAT     H225062   1.596   7.701   6.862
 8274WAT      O25063   1.776   3.580   2.629
 8274WAT     H125064   1.821   3.491   2.634
 8274WAT     H225065   1.746   3.598   2.536
 8275WAT      O25066   8.218   4.103   8.180
 8275WAT     H125067   8.213   4.191   8.133
 8275WAT     H225068   8.305   4.059   8.158
 8276WAT      O25069   1.866   3.328   6.234
 8276WAT     H125070   1.776   3.327   6.189
 8276WAT     H225071   1.857   3.364   6.327
 8277WAT      O25072   9.462   1.222   2.239
 8277WAT     H125073   9.420   1.131   2.231
 8277WAT     H225074   9.558   1.217   2.211
 8278WAT      O25075   4.452   9.424   2.984
 8278WAT     H125076   4.471   9.331   2.952
 8278WAT     H225077   4.414   9.478   2.908
 8279WAT      O25078   5.879   9.789   2.133
 8279WAT     H125079   5.829   9.874   2.123
 8279WAT     H225080   5.856   9.746   2.220
 8280WAT      O25081   1.047   8.108   3.327
 8280WAT     H125082   1.114   8.035   3.311
 8280WAT     H225083   0.977   8.105   3.256
 8281WAT      O25084   5.402   5.901   1.781
 8281WAT     H125085   5.439   5.990   1.806
 8281WAT     H225086   5.477   5.834   1.777
 8282WAT      O25087   5.595   3.950   1.743
 8282WAT     H125088   5.605   3.944   1.842
 8282WAT     H225089   5.583   4.045   1.716
 8283WAT      O25090   8.653   1.424   7.929
 8283WAT     H125091   8.736   1.477   7.909
 8283WAT     H225092   8.653   1.340   7.875
 8284WAT      O25093   0.156   7.734   3.019
 8284WAT     H125094   0.175   7.773   3.109
 8284WAT     H225095   0.069   7.683   3.022
 8285WAT      O25096   9.085   8.850   8.180
 8285WAT     H125097   9.008   8.817   8.234
 8285WAT     H225098   9.063   8.841   8.082
 8286WAT      O25099   9.638   3.400   6.491
 8286WAT     H125100   9.617   3.442   6.403
 8286WAT     H225101   9.733   3.367   6.491
 8287WAT      O25102   6.558   7.281   6.749
 8287WAT     H125103   6.616   7.213   6.706
 8287WAT     H225104   6.528   7.247   6.839
 8288WAT      O25105   0.776   9.041   7.415
 8288WAT     H125106   0.682   9.058   7.384
 8288WAT     H225107   0.797   9.101   7.492
 8289WAT      O25108   2.983   0.453   1.943
 8289WAT     H125109   3.013   0.383   2.007
 8289WAT     H225110   2.926   0.520   1.990
 8290WAT      O25111   7.577   3.297   3.174
 8290WAT     H125112   7.590   3.354   3.092
 8290WAT     H225113   7.483   3.304   3.206
 8291WAT      O25114   0.319   4.991   0.102
 8291WAT     H125115   0.241   5.050   0.079
 8291WAT     H225116   0.289   4.917   0.162
 8292WAT      O25117   9.783   1.420   3.954
 8292WAT     H125118   9.738   1.438   3.867
 8292WAT     H225119   9.862   1.360   3.939
 8293WAT      O25120   8.394   3.314   4.101
 8293WAT     H125121   8.441   3.238   4.055
 8293WAT     H225122   8.425   3.320   4.196
 8294WAT      O25123   2.301   5.510   5.370
 8294WAT     H125124   2.353   5.507   5.285
 8294WAT     H225125   2.345   5.452   5.438
 8295WAT      O25126   4.395   2.026   5.149
 8295WAT     H125127   4.481   1.978   5.166
 8295WAT     H225128   4.319   1.961   5.153
 8296WAT      O25129   7.171   2.932   9.795
 8296WAT     H125130   7.242   2.868   9.763
 8296WAT     H225131   7.204   3.026   9.785
 8297WAT      O25132   8.022   3.532   3.964
 8297WAT     H125133   8.001   3.437   3.940
 8297WAT     H225134   8.096   3.566   3.905
 8298WAT      O25135   5.752   2.202   7.747
 8298WAT     H125136   5.722   2.177   7.655
 8298WAT     H225137   5.679   2.251   7.795
 8299WAT      O25138   0.526   6.026   3.237
 8299WAT     H125139   0.576   6.026   3.323
 8299WAT     H225140   0.464   6.105   3.235
 8300WAT      O25141   4.726   2.751   9.017
 8300WAT     H125142   4.629   2.743   8.994
 8300WAT     H225143   4.758   2.664   9.053
 8301WAT      O25144   4.811   2.360   3.405
 8301WAT     H125145   4.785   2.288   3.341
 8301WAT     H225146   4.744   2.365   3.479
 8302WAT      O25147   1.232   7.034   1.304
 8302WAT     H125148   1.147   7.000   1.344
 8302WAT     H225149   1.288   7.078   1.374
 8303WAT      O25150   5.058   5.238   0.421
 8303WAT     H125151   5.107   5.168   0.473
 8303WAT     H225152   5.119   5.316   0.404
 8304WAT      O25153   3.138   6.095   3.835
 8304WAT     H125154   3.066   6.163   3.841
 8304WAT     H225155   3.171   6.089   3.741
 8305WAT      O25156   3.785   2.809   2.231
 8305WAT     H125157   3.767   2.905   2.248
 8305WAT     H225158   3.797   2.794   2.132
 8306WAT      O25159   9.731   8.631   2.475
 8306WAT     H125160   9.733   8.630   2.575
 8306WAT     H225161   9.685   8.714   2.444
 8307WAT      O25162   1.442   0.947   2.114
 8307WAT     H125163   1.534   0.934   2.151
 8307WAT     H225164   1.379   0.971   2.188
 8308WAT      O25165   2.409   0.508   9.689
 8308WAT     H125166   2.399   0.474   9.783
 8308WAT     H225167   2.365   0.598   9.682
 8309WAT      O25168   5.481   4.370   2.816
 8309WAT     H125169   5.451   4.376   2.912
 8309WAT     H225170   5.416   4.313   2.766
 8310WAT      O25171   1.725   5.081   7.050
 8310WAT     H125172   1.704   5.175   7.023
 8310WAT     H225173   1.791   5.042   6.985
 8311WAT      O25174   6.516   0.625   5.589
 8311WAT     H125175   6.587   0.619   5.659
 8311WAT     H225176   6.476   0.717   5.590
 8312WAT      O25177   6.704   9.384   1.444
 8312WAT     H125178   6.610   9.392   1.413
 8312WAT     H225179   6.718   9.441   1.525
 8313WAT      O25180   1.932   8.838   1.015
 8313WAT     H125181   1.856   8.902   1.027
 8313WAT     H225182   1.999   8.851   1.087
 8314WAT      O25183   0.148   5.682   9.786
 8314WAT     H125184   0.227   5.736   9.759
 8314WAT     H225185   0.156   5.657   9.883
 8315WAT      O25186   5.090   1.948   4.531
 8315WAT     H125187   5.174   1.949   4.476
 8315WAT     H225188   5.040   2.033   4.516
 8316WAT      O25189   8.551   7.195   4.899
 8316WAT     H125190   8.548   7.145   4.813
 8316WAT     H225191   8.557   7.130   4.975
 8317WAT      O25192   9.786   4.919   4.015
 8317WAT     H125193   9.706   4.900   3.957
 8317WAT     H225194   9.857   4.852   3.996
 8318WAT      O25195   3.336   3.093   5.001
 8318WAT     H125196   3.323   3.077   4.903
 8318WAT     H225197   3.290   3.177   5.028
 8319WAT      O25198   6.751   1.868   2.127
 8319WAT     H125199   6.773   1.798   2.060
 8319WAT     H225200   6.709   1.824   2.207
 8320WAT      O25201   5.567   4.612   3.500
 8320WAT     H125202   5.537   4.697   3.543
 8320WAT     H225203   5.494   4.578   3.440
 8321WAT      O25204   2.349   9.188   9.453
 8321WAT     H125205   2.345   9.288   9.445
 8321WAT     H225206   2.291   9.147   9.382
 8322WAT      O25207   0.882   7.837   4.611
 8322WAT     H125208   0.789   7.849   4.645
 8322WAT     H225209   0.911   7.920   4.563
 8323WAT      O25210   3.258   2.285   6.199
 8323WAT     H125211   3.204   2.257   6.278
 8323WAT     H225212   3.310   2.207   6.165
 8324WAT      O25213   1.929   0.003   1.111
 8324WAT     H125214   2.002   0.052   1.158
 8324WAT     H225215   1.904   0.052   1.027
 8325WAT      O25216   0.508   6.495   5.762
 8325WAT     H125217   0.509   6.529   5.669
 8325WAT     H225218   0.492   6.571   5.825
 8326WAT      O25219   3.861   6.286   9.672
 8326WAT     H125220   3.928   6.264   9.600
 8326WAT     H225221   3.781   6.228   9.662
 8327WAT      O25222   4.735   5.163   0.433
 8327WAT     H125223   4.767   5.113   0.513
 8327WAT     H225224   4.775   5.255   0.433
 8328WAT      O25225   4.246   6.437   1.666
 8328WAT     H125226   4.273   6.414   1.760
 8328WAT     H225227   4.270   6.532   1.647
 8329WAT      O25228   1.453   6.334   8.748
 8329WAT     H125229   1.547   6.348   8.777
 8329WAT     H225230   1.452   6.274   8.668
 8330WAT      O25231   8.884   0.156   1.511
 8330WAT     H125232   8.864   0.254   1.506
 8330WAT     H225233   8.813   0.110   1.565
 8331WAT      O25234   0.782   8.474   5.096
 8331WAT     H125235   0.699   8.463   5.042
 8331WAT     H225236   0.841   8.394   5.084
 8332WAT      O25237   0.016   6.593   7.343
 8332WAT     H125238   0.069   6.646   7.277
 8332WAT     H225239   0.048   6.612   7.435
 8333WAT      O25240   5.303   2.904   6.050
 8333WAT     H125241   5.340   2.915   6.143
 8333WAT     H225242   5.373   2.866   5.991
 8334WAT      O25243   5.058   8.695   8.045
 8334WAT     H125244   5.008   8.694   8.132
 8334WAT     H225245   5.027   8.773   7.991
 8335WAT      O25246   2.247   1.226   9.409
 8335WAT     H125247   2.269   1.152   9.346
 8335WAT     H225248   2.298   1.214   9.494
 8336WAT      O25249   0.162   9.786   0.092
 8336WAT     H125250   0.069   9.812   0.120
 8336WAT     H225251   0.198   9.718   0.155
 8337WAT      O25252   8.911   2.779   1.940
 8337WAT     H125253   8.996   2.786   1.888
 8337WAT     H225254   8.916   2.840   2.020
 8338WAT      O25255   9.734   5.465   0.233
 8338WAT     H125256   9.686   5.482   0.147
 8338WAT     H225257   9.695   5.385   0.279
 8339WAT      O25258   6.110   5.818   7.565
 8339WAT     H125259   6.024   5.791   7.523
 8339WAT     H225260   6.185   5.798   7.502
 8340WAT      O25261   8.029   0.264   9.850
 8340WAT     H125262   7.939   0.300   9.828
 8340WAT     H225263   8.019   0.176   9.897
 8341WAT      O25264   0.739   5.737   5.683
 8341WAT     H125265   0.681   5.760   5.760
 8341WAT     H225266   0.737   5.810   5.616
 8342WAT      O25267   2.165   1.874   8.859
 8342WAT     H125268   2.158   1.971   8.836
 8342WAT     H225269   2.107   1.821   8.797
 8343WAT      O25270   4.309   3.396   6.678
 8343WAT     H125271   4.226   3.440   6.644
 8343WAT     H225272   4.322   3.419   6.774
 8344WAT      O25273   3.711   8.862   3.126
 8344WAT     H125274   3.656   8.841   3.045
 8344WAT     H225275   3.746   8.955   3.119
 8345WAT      O25276   9.598   3.281   4.950
 8345WAT     H125277   9.678   3.334   4.978
 8345WAT     H225278   9.592   3.279   4.850
 8346WAT      O25279   5.286   8.339   1.601
 8346WAT     H125280   5.372   8.368   1.643
 8346WAT     H225281   5.243   8.269   1.658
 8347WAT      O25282   1.432   6.512   1.360
 8347WAT     H125283   1.453   6.425   1.404
 8347WAT     H225284   1.336   6.534   1.375
 8348WAT      O25285   0.992   5.823   7.781
 8348WAT     H125286   1.072   5.865   7.738
 8348WAT     H225287   0.993   5.844   7.879
 8349WAT      O25288   0.270   6.403   3.872
 8349WAT     H125289   0.300   6.447   3.957
 8349WAT     H225290   0.238   6.473   3.808
 8350WAT      O25291   5.177   0.161   2.677
 8350WAT     H125292   5.172   0.172   2.578
 8350WAT     H225293   5.166   0.064   2.700
 8351WAT      O25294   2.563   8.147   0.822
 8351WAT     H125295   2.523   8.077   0.763
 8351WAT     H225296   2.568   8.113   0.916
 8352WAT      O25297   8.960   2.619   6.520
 8352WAT     H125298   9.004   2.593   6.434
 8352WAT     H225299   9.013   2.583   6.597
 8353WAT      O25300   4.989   2.771   1.749
 8353WAT     H125301   5.036   2.795   1.834
 8353WAT     H225302   4.966   2.855   1.699
 8354WAT      O25303   2.457   8.498   5.871
 8354WAT     H125304   2.440   8.522   5.776
 8354WAT     H225305   2.441   8.577   5.929
 8355WAT      O25306   8.822   4.767   3.313
 8355WAT     H125307   8.899   4.704   3.316
 8355WAT     H225308   8.801   4.798   3.406
 8356WAT      O25309   7.667   8.868   9.702
 8356WAT     H125310   7.626   8.791   9.752
 8356WAT     H225311   7.596   8.937   9.685
 8357WAT      O25312   8.221   0.287   2.382
 8357WAT     H125313   8.286   0.217   2.412
 8357WAT     H225314   8.258   0.378   2.401
 8358WAT      O25315   9.552   7.959   1.940
 8358WAT     H125316   9.649   7.935   1.938
 8358WAT     H225317   9.531   8.020   1.864
 8359WAT      O25318   9.874   6.695   0.892
 8359WAT     H125319   9.904   6.788   0.875
 8359WAT     H225320   9.775   6.689   0.881
 8360WAT      O25321   7.622   2.699   4.074
 8360WAT     H125322   7.571   2.652   4.146
 8360WAT     H225323   7.576   2.785   4.051
 8361WAT      O25324   6.938   1.022   3.765
 8361WAT     H125325   6.945   0.926   3.737
 8361WAT     H225326   6.986   1.035   3.852
 8362WAT      O25327   5.254   7.948   3.835
 8362WAT     H125328   5.347   7.946   3.871
 8362WAT     H225329   5.242   7.870   3.773
 8363WAT      O25330   7.181   5.232   8.143
 8363WAT     H125331   7.281   5.231   8.150
 8363WAT     H225332   7.142   5.179   8.219
 8364WAT      O25333   9.714   6.860   0.660
 8364WAT     H125334   9.647   6.815   0.719
 8364WAT     H225335   9.705   6.825   0.567
 8365WAT      O25336   6.455   4.227   6.665
 8365WAT     H125337   6.497   4.312   6.698
 8365WAT     H225338   6.522   4.176   6.612
 8366WAT      O25339   5.778   6.660   9.516
 8366WAT     H125340   5.834   6.640   9.436
 8366WAT     H225341   5.682   6.667   9.488
 8367WAT      O25342   1.272   0.787   7.032
 8367WAT     H125343   1.230   0.877   7.022
 8367WAT     H225344   1.368   0.797   7.058
 8368WAT      O25345   5.666   0.535   2.900
 8368WAT     H125346   5.646   0.622   2.944
 8368WAT     H225347   5.600   0.466   2.932
 8369WAT      O25348   2.331   2.131   0.149
 8369WAT     H125349   2.292   2.044   0.117
 8369WAT     H225350   2.358   2.122   0.245
 8370WAT      O25351   3.550   0.191   4.244
 8370WAT     H125352   3.585   0.273   4.200
 8370WAT     H225353   3.627   0.130   4.265
 8371WAT      O25354   3.384   2.437   1.321
 8371WAT     H125355   3.471   2.456   1.276
 8371WAT     H225356   3.320   2.512   1.303
 8372WAT      O25357   8.917   6.101   6.932
 8372WAT     H125358   8.860   6.019   6.927
 8372WAT     H225359   8.949   6.115   7.026
 8373WAT      O25360   5.588   7.373   8.120
 8373WAT     H125361   5.500   7.412   8.092
 8373WAT     H225362   5.657   7.445   8.123
 8374WAT      O25363   9.393   7.394   8.795
 8374WAT     H125364   9.437   7.305   8.805
 8374WAT     H225365   9.297   7.388   8.824
 8375WAT      O25366   1.421   5.556   3.918
 8375WAT     H125367   1.443   5.584   4.011
 8375WAT     H225368   1.325   5.528   3.913
 8376WAT      O25369   9.250   5.863   4.519
 8376WAT     H125370   9.284   5.779   4.561
 8376WAT     H225371   9.165   5.844   4.470
 8377WAT      O25372   2.963   4.133   8.090
 8377WAT     H125373   2.999   4.081   8.012
 8377WAT     H225374   2.963   4.075   8.171
 8378WAT      O25375   2.280   2.813   6.751
 8378WAT     H125376   2.219   2.735   6.769
 8378WAT     H225377   2.369   2.797   6.792
 8379WAT      O25378   8.773   5.312   7.300
 8379WAT     H125379   8.792   5.336   7.205
 8379WAT     H225380   8.818   5.225   7.322
 8380WAT      O25381   4.420   4.435   1.224
 8380WAT     H125382   4.346   4.497   1.196
 8380WAT     H225383   4.508   4.480   1.210
 8381WAT      O25384   0.310   4.033   1.780
 8381WAT     H125385   0.269   3.953   1.734
 8381WAT     H225386   0.242   4.077   1.837
 8382WAT      O25387   6.576   1.250   0.401
 8382WAT     H125388   6.558   1.297   0.487
 8382WAT     H225389   6.527   1.295   0.327
 8383WAT      O25390   7.046   0.007   1.740
 8383WAT     H125391   7.083   0.100   1.750
 8383WAT     H225392   7.122  -0.058   1.737
 8384WAT      O25393   5.229   6.885   3.575
 8384WAT     H125394   5.271   6.803   3.537
 8384WAT     H225395   5.263   6.965   3.526
 8385WAT      O25396   0.259   7.030   3.976
 8385WAT     H125397   0.226   7.121   3.951
 8385WAT     H225398   0.342   7.038   4.031
 8386WAT      O25399   6.269   7.239   3.411
 8386WAT     H125400   6.297   7.145   3.431
 8386WAT     H225401   6.343   7.287   3.364
 8387WAT      O25402   2.366   3.003   8.240
 8387WAT     H125403   2.458   2.964   8.227
 8387WAT     H225404   2.330   3.031   8.151
 8388WAT      O25405   2.249   2.479   7.017
 8388WAT     H125406   2.258   2.480   6.917
 8388WAT     H225407   2.330   2.521   7.057
 8389WAT      O25408   5.605   0.676   0.192
 8389WAT     H125409   5.691   0.658   0.144
 8389WAT     H225410   5.618   0.663   0.290
 8390WAT      O25411   4.493   7.634   2.014
 8390WAT     H125412   4.513   7.732   2.009
 8390WAT     H225413   4.407   7.621   2.064
 8391WAT      O25414   1.693   4.560   1.399
 8391WAT     H125415   1.776   4.506   1.386
 8391WAT     H225416   1.622   4.528   1.335
 8392WAT      O25417   2.563   3.018   2.500
 8392WAT     H125418   2.522   2.958   2.569
 8392WAT     H225419   2.630   2.966   2.447
 8393WAT      O25420   7.445   3.378   0.263
 8393WAT     H125421   7.428   3.469   0.226
 8393WAT     H225422   7.367   3.319   0.244
 8394WAT      O25423   7.880   0.981   9.509
 8394WAT     H125424   7.925   0.918   9.571
 8394WAT     H225425   7.915   1.074   9.523
 8395WAT      O25426   7.191   9.351   5.463
 8395WAT     H125427   7.267   9.392   5.411
 8395WAT     H225428   7.105   9.368   5.415
 8396WAT      O25429   7.252   1.954   1.956
 8396WAT     H125430   7.183   1.992   1.894
 8396WAT     H225431   7.311   1.890   1.905
 8397WAT      O25432   4.868   1.436   0.866
 8397WAT     H125433   4.797   1.505   0.878
 8397WAT     H225434   4.836   1.364   0.804
 8398WAT      O25435   2.260   2.033   1.232
 8398WAT     H125436   2.204   1.974   1.174
 8398WAT     H225437   2.201   2.094   1.285
 8399WAT      O25438   0.619   3.921   7.461
 8399WAT     H125439   0.716   3.901   7.448
 8399WAT     H225440   0.567   3.892   7.381
 8400WAT      O25441   2.515   3.076   3.952
 8400WAT     H125442   2.433   3.022   3.934
 8400WAT     H225443   2.583   3.058   3.882
 8401WAT      O25444   2.048   2.701   2.205
 8401WAT     H125445   2.131   2.695   2.150
 8401WAT     H225446   2.072   2.692   2.302
 8402WAT      O25447   3.291   9.191   8.058
 8402WAT     H125448   3.210   9.235   8.020
 8402WAT     H225449   3.285   9.092   8.046
 8403WAT      O25450   4.241   1.710   0.765
 8403WAT     H125451   4.195   1.676   0.847
 8403WAT     H225452   4.202   1.798   0.740
 8404WAT      O25453   5.296   7.338   4.112
 8404WAT     H125454   5.304   7.276   4.034
 8404WAT     H225455   5.333   7.294   4.194
 8405WAT      O25456   4.969   3.655   8.698
 8405WAT     H125457   4.896   3.708   8.741
 8405WAT     H225458   5.000   3.702   8.616
 8406WAT      O25459   6.095   4.395   1.831
 8406WAT     H125460   6.131   4.432   1.917
 8406WAT     H225461   6.150   4.430   1.755
 8407WAT      O25462   5.735   4.703   0.834
 8407WAT     H125463   5.681   4.660   0.762
 8407WAT     H225464   5.751   4.638   0.908
 8408WAT      O25465   7.776   5.079   3.200
 8408WAT     H125466   7.851   5.107   3.260
 8408WAT     H225467   7.771   4.979   3.198
 8409WAT      O25468   7.827   1.559   7.321
 8409WAT     H125469   7.807   1.533   7.416
 8409WAT     H225470   7.764   1.512   7.259
 8410WAT      O25471   1.790   4.906   5.186
 8410WAT     H125472   1.777   4.817   5.230
 8410WAT     H225473   1.753   4.903   5.093
 8411WAT      O25474   9.186   2.102   4.304
 8411WAT     H125475   9.170   2.172   4.373
 8411WAT     H225476   9.152   2.134   4.215
 8412WAT      O25477   8.410   0.975   4.226
 8412WAT     H125478   8.458   0.942   4.308
 8412WAT     H225479   8.458   1.055   4.190
 8413WAT      O25480   7.374   3.799   6.827
 8413WAT     H125481   7.355   3.724   6.890
 8413WAT     H225482   7.359   3.886   6.873
 8414WAT      O25483   8.835   0.108   9.283
 8414WAT     H125484   8.922   0.145   9.317
 8414WAT     H225485   8.792   0.052   9.355
 8415WAT      O25486   3.952   0.376   8.133
 8415WAT     H125487   3.940   0.413   8.226
 8415WAT     H225488   4.037   0.410   8.094
 8416WAT      O25489   7.272   8.270   2.737
 8416WAT     H125490   7.196   8.228   2.786
 8416WAT     H225491   7.327   8.198   2.694
 8417WAT      O25492   2.369   8.449   5.163
 8417WAT     H125493   2.432   8.526   5.153
 8417WAT     H225494   2.413   8.375   5.213
 8418WAT      O25495   4.521   3.037   5.089
 8418WAT     H125496   4.607   2.993   5.115
 8418WAT     H225497   4.461   3.040   5.169
 8419WAT      O25498   7.910   5.114   1.135
 8419WAT     H125499   7.836   5.064   1.090
 8419WAT     H225500   7.948   5.182   1.071
 8420WAT      O25501   4.288   6.975   3.405
 8420WAT     H125502   4.285   6.876   3.391
 8420WAT     H225503   4.218   7.019   3.348
 8421WAT      O25504   4.528   5.875   1.337
 8421WAT     H125505   4.564   5.807   1.274
 8421WAT     H225506   4.513   5.961   1.288
 8422WAT      O25507   4.719   7.136   4.773
 8422WAT     H125508   4.753   7.130   4.867
 8422WAT     H225509   4.793   7.110   4.710
 8423WAT      O25510   3.865   6.837   3.221
 8423WAT     H125511   3.783   6.893   3.219
 8423WAT     H225512   3.842   6.746   3.256
 8424WAT      O25513   3.444   8.006   7.707
 8424WAT     H125514   3.429   7.969   7.798
 8424WAT     H225515   3.359   8.043   7.670
 8425WAT      O25516   9.329   5.056   3.474
 8425WAT     H125517   9.358   4.989   3.542
 8425WAT     H225518   9.229   5.061   3.473
 8426WAT      O25519   3.410   6.824   2.466
 8426WAT     H125520   3.442   6.870   2.383
 8426WAT     H225521   3.313   6.845   2.481
 8427WAT      O25522   1.775   5.969   2.824
 8427WAT     H125523   1.742   6.029   2.751
 8427WAT     H225524   1.725   5.882   2.820
 8428WAT      O25525   0.833   0.967   5.282
 8428WAT     H125526   0.802   0.961   5.187
 8428WAT     H225527   0.891   1.047   5.294
 8429WAT      O25528   6.338   6.997   3.448
 8429WAT     H125529   6.348   6.920   3.510
 8429WAT     H225530   6.392   6.982   3.366
 8430WAT      O25531   4.444   7.261   7.922
 8430WAT     H125532   4.521   7.232   7.865
 8430WAT     H225533   4.441   7.361   7.925
 8431WAT      O25534   8.360   1.310   9.391
 8431WAT     H125535   8.265   1.329   9.417
 8431WAT     H225536   8.421   1.348   9.460
 8432WAT      O25537   3.126   2.111   2.738
 8432WAT     H125538   3.052   2.096   2.804
 8432WAT     H225539   3.197   2.042   2.752
 8433WAT      O25540   1.313   1.304   7.784
 8433WAT     H125541   1.394   1.246   7.783
 8433WAT     H225542   1.246   1.269   7.718
 8434WAT      O25543   0.343   2.176   1.406
 8434WAT     H125544   0.437   2.209   1.399
 8434WAT     H225545   0.326   2.109   1.334
 8435WAT      O25546   8.651   4.395   5.166
 8435WAT     H125547   8.626   4.320   5.105
 8435WAT     H225548   8.651   4.363   5.260
 8436WAT      O25549   1.128   0.841   8.711
 8436WAT     H125550   1.129   0.930   8.757
 8436WAT     H225551   1.034   0.809   8.702
 8437WAT      O25552   0.110   8.094   5.022
 8437WAT     H125553   0.149   8.182   4.995
 8437WAT     H225554   0.151   8.021   4.968
 8438WAT      O25555   3.258   6.772   0.757
 8438WAT     H125556   3.262   6.822   0.671
 8438WAT     H225557   3.234   6.835   0.831
 8439WAT      O25558   7.429   1.339   4.270
 8439WAT     H125559   7.492   1.286   4.327
 8439WAT     H225560   7.436   1.436   4.294
 8440WAT      O25561   9.714   9.445   9.588
 8440WAT     H125562   9.655   9.365   9.598
 8440WAT     H225563   9.709   9.502   9.670
 8441WAT      O25564   1.331   2.340   7.803
 8441WAT     H125565   1.289   2.381   7.722
 8441WAT     H225566   1.336   2.409   7.875
 8442WAT      O25567   2.247   0.451   4.079
 8442WAT     H125568   2.244   0.354   4.104
 8442WAT     H225569   2.201   0.465   3.992
 8443WAT      O25570   2.145   0.455   3.095
 8443WAT     H125571   2.073   0.392   3.067
 8443WAT     H225572   2.223   0.447   3.034
 8444WAT      O25573   9.616   1.354   1.206
 8444WAT     H125574   9.592   1.442   1.163
 8444WAT     H225575   9.539   1.323   1.261
 8445WAT      O25576   7.423   7.241   1.606
 8445WAT     H125577   7.505   7.211   1.656
 8445WAT     H225578   7.352   7.267   1.671
 8446WAT      O25579   4.893   6.642   9.546
 8446WAT     H125580   4.972   6.632   9.606
 8446WAT     H225581   4.891   6.734   9.507
 8447WAT      O25582   5.895   1.237   4.093
 8447WAT     H125583   5.821   1.181   4.055
 8447WAT     H225584   5.935   1.190   4.171
 8448WAT      O25585   9.179   0.875   0.647
 8448WAT     H125586   9.183   0.778   0.625
 8448WAT     H225587   9.225   0.927   0.574
 8449WAT      O25588   8.452   6.111   7.570
 8449WAT     H125589   8.419   6.082   7.481
 8449WAT     H225590   8.375   6.135   7.629
 8450WAT      O25591   8.104   0.026   9.075
 8450WAT     H125592   8.046   0.058   9.000
 8450WAT     H225593   8.179   0.091   9.088
 8451WAT      O25594   0.024   9.813   6.927
 8451WAT     H125595  -0.058   9.820   6.983
 8451WAT     H225596   0.059   9.905   6.907
 8452WAT      O25597   9.621   9.634   8.925
 8452WAT     H125598   9.690   9.639   8.997
 8452WAT     H225599   9.620   9.719   8.874
 8453WAT      O25600   1.568   0.044   1.427
 8453WAT     H125601   1.529   0.058   1.518
 8453WAT     H225602   1.665   0.019   1.436
 8454WAT      O25603   5.873   6.989   9.380
 8454WAT     H125604   5.892   7.073   9.328
 8454WAT     H225605   5.869   6.911   9.318
 8455WAT      O25606   8.508   6.730   9.053
 8455WAT     H125607   8.476   6.824   9.043
 8455WAT     H225608   8.608   6.728   9.054
 8456WAT      O25609   8.923   7.755   8.334
 8456WAT     H125610   8.952   7.809   8.413
 8456WAT     H225611   8.862   7.810   8.277
 8457WAT      O25612   6.726   6.751   7.065
 8457WAT     H125613   6.708   6.763   7.162
 8457WAT     H225614   6.794   6.679   7.052
 8458WAT      O25615   5.842   6.301   0.053
 8458WAT     H125616   5.898   6.281  -0.027
 8458WAT     H225617   5.828   6.400   0.060
 8459WAT      O25618   2.004   9.149   2.118
 8459WAT     H125619   2.084   9.209   2.105
 8459WAT     H225620   2.023   9.060   2.077
 8460WAT      O25621   4.695   4.493   1.102
 8460WAT     H125622   4.685   4.466   1.006
 8460WAT     H225623   4.783   4.540   1.114
 8461WAT      O25624   9.381   4.612   3.313
 8461WAT     H125625   9.352   4.532   3.260
 8461WAT     H225626   9.344   4.695   3.271
 8462WAT      O25627   6.738   0.483   8.829
 8462WAT     H125628   6.755   0.444   8.738
 8462WAT     H225629   6.711   0.410   8.891
 8463WAT      O25630   5.018   0.197   8.231
 8463WAT     H125631   4.987   0.189   8.326
 8463WAT     H225632   5.082   0.273   8.224
 8464WAT      O25633   3.506   7.006   0.942
 8464WAT     H125634   3.406   7.009   0.936
 8464WAT     H225635   3.543   6.974   0.855
 8465WAT      O25636   9.027   8.044   1.061
 8465WAT     H125637   9.119   8.012   1.039
 8465WAT     H225638   8.982   8.077   0.978
 8466WAT      O25639   2.676   3.958   7.741
 8466WAT     H125640   2.667   3.872   7.691
 8466WAT     H225641   2.696   3.939   7.837
 8467WAT      O25642   2.146   1.626   0.495
 8467WAT     H125643   2.185   1.633   0.404
 8467WAT     H225644   2.155   1.714   0.542
 8468WAT      O25645   1.680   1.813   6.047
 8468WAT     H125646   1.662   1.717   6.024
 8468WAT     H225647   1.710   1.819   6.142
 8469WAT      O25648   6.861   2.056   2.491
 8469WAT     H125649   6.915   2.141   2.494
 8469WAT     H225650   6.765   2.077   2.509
 8470WAT      O25651   9.110   2.392   2.532
 8470WAT     H125652   9.155   2.473   2.569
 8470WAT     H225653   9.151   2.310   2.572
 8471WAT      O25654   4.824   6.777   7.582
 8471WAT     H125655   4.756   6.836   7.538
 8471WAT     H225656   4.822   6.687   7.538
 8472WAT      O25657   5.390   5.537   9.668
 8472WAT     H125658   5.479   5.558   9.708
 8472WAT     H225659   5.393   5.557   9.570
 8473WAT      O25660   7.294   8.812   0.177
 8473WAT     H125661   7.275   8.874   0.100
 8473WAT     H225662   7.220   8.819   0.244
 8474WAT      O25663   7.466   5.243   8.155
 8474WAT     H125664   7.520   5.165   8.188
 8474WAT     H225665   7.503   5.276   8.069
 8475WAT      O25666   3.092   1.901   3.702
 8475WAT     H125667   3.049   1.819   3.665
 8475WAT     H225668   3.184   1.911   3.665
 8476WAT      O25669   7.295   4.359   7.048
 8476WAT     H125670   7.371   4.405   7.002
 8476WAT     H225671   7.214   4.418   7.046
 8477WAT      O25672   8.484   7.714   1.538
 8477WAT     H125673   8.490   7.755   1.628
 8477WAT     H225674   8.515   7.780   1.469
 8478WAT      O25675   0.157   8.572   1.321
 8478WAT     H125676   0.175   8.620   1.407
 8478WAT     H225677   0.108   8.487   1.340
 8479WAT      O25678   0.620   9.206   2.208
 8479WAT     H125679   0.543   9.242   2.155
 8479WAT     H225680   0.586   9.165   2.293
 8480WAT      O25681   4.663   3.976   6.402
 8480WAT     H125682   4.715   3.921   6.468
 8480WAT     H225683   4.566   3.970   6.425
 8481WAT      O25684   1.006   2.885   1.615
 8481WAT     H125685   1.023   2.876   1.517
 8481WAT     H225686   1.093   2.879   1.664
 8482WAT      O25687   1.991   8.858   6.524
 8482WAT     H125688   1.978   8.798   6.445
 8482WAT     H225689   2.054   8.815   6.589
 8483WAT      O25690   4.954   3.672   9.652
 8483WAT     H125691   5.010   3.631   9.580
 8483WAT     H225692   4.889   3.605   9.686
 8484WAT      O25693   7.862   8.692   4.673
 8484WAT     H125694   7.836   8.787   4.656
 8484WAT     H225695   7.786   8.632   4.649
 8485WAT      O25696   9.827   2.880   2.231
 8485WAT     H125697   9.887   2.816   2.184
 8485WAT     H225698   9.737   2.839   2.242
 8486WAT      O25699   2.639   3.147   9.341
 8486WAT     H125700   2.647   3.080   9.415
 8486WAT     H225701   2.722   3.203   9.338
 8487WAT      O25702   7.449   0.954   7.336
 8487WAT     H125703   7.434   0.866   7.290
 8487WAT     H225704   7.364   0.984   7.378
 8488WAT      O25705   3.616   3.080   1.502
 8488WAT     H125706   3.535   3.076   1.560
 8488WAT     H225707   3.650   3.174   1.498
 8489WAT      O25708   1.914   9.169   6.433
 8489WAT     H125709   1.910   9.252   6.377
 8489WAT     H225710   1.882   9.091   6.379
 8490WAT      O25711   0.313   7.324   5.074
 8490WAT     H125712   0.370   7.265   5.131
 8490WAT     H225713   0.329   7.303   4.978
 8491WAT      O25714   5.484   9.126   3.621
 8491WAT     H125715   5.410   9.143   3.556
 8491WAT     H225716   5.471   9.184   3.702
 8492WAT      O25717   7.283   2.674   5.072
 8492WAT     H125718   7.254   2.611   4.999
 8492WAT     H225719   7.365   2.638   5.116
 8493WAT      O25720   9.841   9.092   4.608
 8493WAT     H125721   9.760   9.118   4.661
 8493WAT     H225722   9.920   9.085   4.669
 8494WAT      O25723   1.677   3.741   7.236
 8494WAT     H125724   1.604   3.675   7.252
 8494WAT     H225725   1.758   3.693   7.200
 8495WAT      O25726   0.468   2.488   9.205
 8495WAT     H125727   0.492   2.476   9.301
 8495WAT     H225728   0.371   2.469   9.192
 8496WAT      O25729   0.782   8.165   2.681
 8496WAT     H125730   0.866   8.113   2.664
 8496WAT     H225731   0.725   8.115   2.745
 8497WAT      O25732   9.518   1.624   0.310
 8497WAT     H125733   9.457   1.691   0.351
 8497WAT     H225734   9.611   1.660   0.307
 8498WAT      O25735   7.125   3.295   8.348
 8498WAT     H125736   7.205   3.236   8.342
 8498WAT     H225737   7.101   3.329   8.257
 8499WAT      O25738   0.557   8.980   9.809
 8499WAT     H125739   0.591   9.047   9.875
 8499WAT     H225740   0.491   9.023   9.748
 8500WAT      O25741   4.270   8.275   2.695
 8500WAT     H125742   4.368   8.298   2.692
 8500WAT     H225743   4.225   8.315   2.615
 8501WAT      O25744   6.881   4.834   0.955
 8501WAT     H125745   6.805   4.895   0.975
 8501WAT     H225746   6.924   4.805   1.040
 8502WAT      O25747   5.085   6.121   5.403
 8502WAT     H125748   5.154   6.176   5.356
 8502WAT     H225749   5.090   6.138   5.502
 8503WAT      O25750   5.841   3.880   7.689
 8503WAT     H125751   5.756   3.858   7.736
 8503WAT     H225752   5.919   3.856   7.748
 8504WAT      O25753   2.496   2.928   5.961
 8504WAT     H125754   2.555   2.856   5.999
 8504WAT     H225755   2.404   2.892   5.947
 8505WAT      O25756   7.286   7.787   9.753
 8505WAT     H125757   7.377   7.779   9.793
 8505WAT     H225758   7.264   7.883   9.736
 8506WAT      O25759   7.766   0.433   7.947
 8506WAT     H125760   7.779   0.427   8.046
 8506WAT     H225761   7.685   0.489   7.928
 8507WAT      O25762   0.018   1.777   7.261
 8507WAT     H125763   0.003   1.811   7.168
 8507WAT     H225764  -0.051   1.708   7.283
 8508WAT      O25765   1.982   8.994   4.167
 8508WAT     H125766   2.057   8.932   4.143
 8508WAT     H225767   1.913   8.993   4.095
 8509WAT      O25768   6.182   9.826   7.135
 8509WAT     H125769   6.204   9.868   7.047
 8509WAT     H225770   6.266   9.796   7.180
 8510WAT      O25771   3.398   4.044   0.130
 8510WAT     H125772   3.496   4.043   0.147
 8510WAT     H225773   3.349   4.071   0.213
 8511WAT      O25774   4.746   8.070   8.989
 8511WAT     H125775   4.667   8.035   9.039
 8511WAT     H225776   4.792   8.140   9.043
 8512WAT      O25777   3.577   2.099   8.401
 8512WAT     H125778   3.613   2.181   8.359
 8512WAT     H225779   3.492   2.121   8.450
 8513WAT      O25780   2.263   4.294   8.239
 8513WAT     H125781   2.270   4.268   8.142
 8513WAT     H225782   2.319   4.374   8.257
 8514WAT      O25783   3.111   8.632   1.121
 8514WAT     H125784   3.122   8.563   1.050
 8514WAT     H225785   3.159   8.716   1.094
 8515WAT      O25786   6.035   9.632   9.871
 8515WAT     H125787   5.949   9.656   9.825
 8515WAT     H225788   6.017   9.606   9.965
 8516WAT      O25789   9.814   1.503   4.206
 8516WAT     H125790   9.805   1.473   4.111
 8516WAT     H225791   9.902   1.474   4.243
 8517WAT      O25792   8.687   7.019   2.231
 8517WAT     H125793   8.632   7.093   2.268
 8517WAT     H225794   8.716   6.958   2.304
 8518WAT      O25795   3.114   8.553   9.093
 8518WAT     H125796   3.099   8.538   8.995
 8518WAT     H225797   3.211   8.574   9.109
 8519WAT      O25798   0.962   3.736   9.637
 8519WAT     H125799   0.954   3.835   9.654
 8519WAT     H225800   0.874   3.692   9.654
 8520WAT      O25801   8.939   7.185   0.324
 8520WAT     H125802   9.018   7.154   0.272
 8520WAT     H225803   8.863   7.202   0.262
 8521WAT      O25804   6.941   1.303   1.402
 8521WAT     H125805   6.903   1.392   1.425
 8521WAT     H225806   7.022   1.315   1.345
 8522WAT      O25807   6.717   1.856   6.271
 8522WAT     H125808   6.644   1.796   6.302
 8522WAT     H225809   6.731   1.928   6.338
 8523WAT      O25810   3.690   3.057   7.612
 8523WAT     H125811   3.653   3.149   7.627
 8523WAT     H225812   3.624   2.989   7.643
 8524WAT      O25813   9.700   2.139   6.792
 8524WAT     H125814   9.735   2.232   6.795
 8524WAT     H225815   9.720   2.098   6.703
 8525WAT      O25816   8.387   1.289   4.745
 8525WAT     H125817   8.338   1.371   4.772
 8525WAT     H225818   8.404   1.232   4.826
 8526WAT      O25819   6.759   2.670   2.758
 8526WAT     H125820   6.704   2.708   2.684
 8526WAT     H225821   6.854   2.662   2.728
 8527WAT      O25822   9.420   1.693   3.742
 8527WAT     H125823   9.393   1.785   3.714
 8527WAT     H225824   9.500   1.665   3.691
 8528WAT      O25825   3.700   8.443   5.531
 8528WAT     H125826   3.604   8.464   5.545
 8528WAT     H225827   3.715   8.413   5.437
 8529WAT      O25828   8.433   0.216   3.954
 8529WAT     H125829   8.372   0.143   3.922
 8529WAT     H225830   8.386   0.270   4.024
 8530WAT      O25831   1.285   8.771   6.150
 8530WAT     H125832   1.217   8.771   6.077
 8530WAT     H225833   1.256   8.710   6.223
 8531WAT      O25834   6.919   6.513   0.531
 8531WAT     H125835   6.871   6.600   0.519
 8531WAT     H225836   6.875   6.443   0.474
 8532WAT      O25837   2.949   0.810   4.260
 8532WAT     H125838   3.040   0.769   4.251
 8532WAT     H225839   2.892   0.781   4.183
 8533WAT      O25840   6.517   7.011   5.236
 8533WAT     H125841   6.599   6.968   5.274
 8533WAT     H225842   6.534   7.038   5.141
 8534WAT      O25843   3.240   5.651   9.134
 8534WAT     H125844   3.181   5.588   9.084
 8534WAT     H225845   3.302   5.599   9.194
 8535WAT      O25846   5.175   8.667   1.258
 8535WAT     H125847   5.170   8.753   1.207
 8535WAT     H225848   5.212   8.596   1.198
 8536WAT      O25849   7.844   7.605   4.383
 8536WAT     H125850   7.859   7.613   4.285
 8536WAT     H225851   7.824   7.695   4.422
 8537WAT      O25852   9.362   9.634   7.363
 8537WAT     H125853   9.367   9.715   7.421
 8537WAT     H225854   9.270   9.626   7.324
 8538WAT      O25855   3.869   2.986   9.580
 8538WAT     H125856   3.775   3.020   9.593
 8538WAT     H225857   3.900   3.010   9.487
 8539WAT      O25858   5.626   5.417   6.737
 8539WAT     H125859   5.639   5.322   6.709
 8539WAT     H225860   5.713   5.455   6.769
 8540WAT      O25861   3.495   2.660   6.514
 8540WAT     H125862   3.427   2.627   6.449
 8540WAT     H225863   3.522   2.753   6.490
 8541WAT      O25864   9.402   8.596   1.023
 8541WAT     H125865   9.376   8.501   1.038
 8541WAT     H225866   9.411   8.613   0.925
 8542WAT      O25867   2.414   3.592   4.885
 8542WAT     H125868   2.315   3.581   4.880
 8542WAT     H225869   2.445   3.577   4.979
 8543WAT      O25870   7.565   8.145   6.502
 8543WAT     H125871   7.646   8.178   6.453
 8543WAT     H225872   7.499   8.109   6.436
 8544WAT      O25873   7.944   3.512   5.321
 8544WAT     H125874   7.903   3.502   5.231
 8544WAT     H225875   8.043   3.502   5.315
 8545WAT      O25876   4.553   0.930   5.964
 8545WAT     H125877   4.611   1.010   5.948
 8545WAT     H225878   4.608   0.856   6.002
 8546WAT      O25879   0.954   2.541   4.719
 8546WAT     H125880   1.050   2.518   4.733
 8546WAT     H225881   0.906   2.541   4.807
 8547WAT      O25882   4.421   1.512   0.745
 8547WAT     H125883   4.363   1.437   0.778
 8547WAT     H225884   4.365   1.593   0.727
 8548WAT      O25885   3.182   5.665   2.292
 8548WAT     H125886   3.119   5.679   2.369
 8548WAT     H225887   3.132   5.676   2.206
 8549WAT      O25888   4.754   2.519   8.723
 8549WAT     H125889   4.853   2.518   8.739
 8549WAT     H225890   4.731   2.597   8.664
 8550WAT      O25891   3.646   6.812   9.677
 8550WAT     H125892   3.706   6.735   9.698
 8550WAT     H225893   3.597   6.794   9.592
 8551WAT      O25894   3.555   5.666   8.613
 8551WAT     H125895   3.567   5.608   8.533
 8551WAT     H225896   3.461   5.701   8.615
 8552WAT      O25897   8.690   6.002   3.997
 8552WAT     H125898   8.653   5.910   4.005
 8552WAT     H225899   8.789   5.997   3.978
 8553WAT      O25900   6.043   4.356   4.273
 8553WAT     H125901   5.996   4.277   4.232
 8553WAT     H225902   6.074   4.333   4.365
 8554WAT      O25903   5.490   0.398   8.893
 8554WAT     H125904   5.439   0.374   8.976
 8554WAT     H225905   5.566   0.334   8.881
 8555WAT      O25906   0.579   0.357   3.481
 8555WAT     H125907   0.639   0.433   3.454
 8555WAT     H225908   0.502   0.393   3.534
 8556WAT      O25909   8.795   0.398   4.399
 8556WAT     H125910   8.794   0.363   4.493
 8556WAT     H225911   8.883   0.443   4.381
 8557WAT      O25912   2.499   1.369   3.633
 8557WAT     H125913   2.515   1.452   3.580
 8557WAT     H225914   2.415   1.325   3.602
 8558WAT      O25915   4.728   0.651   4.648
 8558WAT     H125916   4.754   0.554   4.641
 8558WAT     H225917   4.809   0.708   4.638
 8559WAT      O25918   1.190   2.896   0.404
 8559WAT     H125919   1.103   2.846   0.408
 8559WAT     H225920   1.260   2.844   0.453
 8560WAT      O25921   8.156   3.441   7.413
 8560WAT     H125922   8.127   3.429   7.318
 8560WAT     H225923   8.076   3.441   7.473
 8561WAT      O25924   6.647   2.369   6.428
 8561WAT     H125925   6.672   2.342   6.335
 8561WAT     H225926   6.729   2.369   6.486
 8562WAT      O25927   3.269   1.535   4.122
 8562WAT     H125928   3.305   1.467   4.057
 8562WAT     H225929   3.325   1.535   4.205
 8563WAT      O25930   6.497   4.439   2.778
 8563WAT     H125931   6.517   4.386   2.695
 8563WAT     H225932   6.478   4.376   2.854
 8564WAT      O25933   7.605   1.935   8.489
 8564WAT     H125934   7.541   1.986   8.547
 8564WAT     H225935   7.564   1.924   8.398
 8565WAT      O25936   2.032   4.602   3.804
 8565WAT     H125937   2.056   4.661   3.881
 8565WAT     H225938   2.115   4.574   3.757
 8566WAT      O25939   7.118   4.024   4.332
 8566WAT     H125940   7.098   4.093   4.262
 8566WAT     H225941   7.213   3.994   4.322
 8567WAT      O25942   2.825   0.923   7.581
 8567WAT     H125943   2.766   0.995   7.544
 8567WAT     H225944   2.769   0.843   7.603
 8568WAT      O25945   5.987   0.316   0.876
 8568WAT     H125946   5.907   0.286   0.824
 8568WAT     H225947   5.972   0.296   0.973
 8569WAT      O25948   3.639   6.773   8.423
 8569WAT     H125949   3.639   6.674   8.415
 8569WAT     H225950   3.606   6.814   8.337
 8570WAT      O25951   0.673   4.444   4.005
 8570WAT     H125952   0.755   4.390   4.023
 8570WAT     H225953   0.598   4.411   4.062
 8571WAT      O25954   1.066   4.702   2.354
 8571WAT     H125955   1.111   4.618   2.383
 8571WAT     H225956   1.135   4.775   2.345
 8572WAT      O25957   4.913   8.267   2.940
 8572WAT     H125958   4.934   8.183   2.989
 8572WAT     H225959   4.814   8.274   2.927
 8573WAT      O25960   1.944   7.311   5.281
 8573WAT     H125961   2.044   7.310   5.278
 8573WAT     H225962   1.907   7.261   5.202
 8574WAT      O25963   5.184   9.746   8.105
 8574WAT     H125964   5.152   9.788   8.190
 8574WAT     H225965   5.164   9.807   8.028
 8575WAT      O25966   3.392   3.554   4.993
 8575WAT     H125967   3.386   3.629   5.059
 8575WAT     H225968   3.439   3.586   4.910
 8576WAT      O25969   6.523   3.225   5.840
 8576WAT     H125970   6.474   3.150   5.883
 8576WAT     H225971   6.473   3.255   5.758
 8577WAT      O25972   2.873   0.808   1.717
 8577WAT     H125973   2.937   0.766   1.653
 8577WAT     H225974   2.908   0.897   1.746
 8578WAT      O25975   0.459   4.167   0.341
 8578WAT     H125976   0.522   4.203   0.410
 8578WAT     H225977   0.468   4.068   0.336
 8579WAT      O25978   6.168   7.170   4.807
 8579WAT     H125979   6.077   7.196   4.775
 8579WAT     H225980   6.216   7.121   4.733
 8580WAT      O25981   8.654   2.922   9.255
 8580WAT     H125982   8.702   2.843   9.216
 8580WAT     H225983   8.719   2.997   9.270
 8581WAT      O25984   7.111   1.434   6.579
 8581WAT     H125985   7.137   1.518   6.627
 8581WAT     H225986   7.120   1.356   6.641
 8582WAT      O25987   7.044   2.388   5.340
 8582WAT     H125988   7.044   2.479   5.381
 8582WAT     H225989   6.954   2.345   5.353
 8583WAT      O25990   6.960   6.527   6.406
 8583WAT     H125991   6.974   6.463   6.330
 8583WAT     H225992   6.999   6.488   6.490
 8584WAT      O25993   2.540   5.356   7.872
 8584WAT     H125994   2.573   5.265   7.845
 8584WAT     H225995   2.443   5.364   7.848
 8585WAT      O25996   2.387   1.759   0.649
 8585WAT     H125997   2.398   1.660   0.663
 8585WAT     H225998   2.473   1.806   0.671
 8586WAT      O25999   8.281   2.068   5.601
 8586WAT     H126000   8.270   1.971   5.621
 8586WAT     H226001   8.368   2.082   5.552
 8587WAT      O26002   2.046   8.415   0.003
 8587WAT     H126003   2.140   8.381  -0.001
 8587WAT     H226004   2.045   8.514  -0.009
 8588WAT      O26005   4.881   1.881   2.616
 8588WAT     H126006   4.828   1.898   2.533
 8588WAT     H226007   4.898   1.968   2.663
 8589WAT      O26008   1.450   6.313   1.536
 8589WAT     H126009   1.356   6.313   1.572
 8589WAT     H226010   1.494   6.226   1.560
 8590WAT      O26011   2.279   8.576   9.692
 8590WAT     H126012   2.275   8.536   9.600
 8590WAT     H226013   2.190   8.613   9.716
 8591WAT      O26014   6.397   0.724   3.596
 8591WAT     H126015   6.326   0.783   3.558
 8591WAT     H226016   6.404   0.739   3.694
 8592WAT      O26017   0.829   1.749   3.561
 8592WAT     H126018   0.904   1.778   3.621
 8592WAT     H226019   0.744   1.746   3.614
 8593WAT      O26020   1.243   7.912   3.399
 8593WAT     H126021   1.259   7.924   3.497
 8593WAT     H226022   1.294   7.833   3.366
 8594WAT      O26023   8.690   0.927   9.234
 8594WAT     H126024   8.744   0.885   9.307
 8594WAT     H226025   8.639   1.005   9.270
 8595WAT      O26026   1.683   3.002   6.244
 8595WAT     H126027   1.783   2.999   6.232
 8595WAT     H226028   1.647   3.084   6.199
 8596WAT      O26029   4.489   3.007   6.050
 8596WAT     H126030   4.450   3.087   6.097
 8596WAT     H226031   4.491   2.930   6.113
 8597WAT      O26032   9.069   0.222   2.096
 8597WAT     H126033   9.084   0.182   2.005
 8597WAT     H226034   9.131   0.298   2.110
 8598WAT      O26035   1.958   2.107   7.037
 8598WAT     H126036   1.910   2.115   6.949
 8598WAT     H226037   1.983   2.199   7.069
 8599WAT      O26038   7.651   4.518   3.366
 8599WAT     H126039   7.657   4.549   3.271
 8599WAT     H226040   7.575   4.566   3.411
 8600WAT      O26041   0.448   1.194   0.533
 8600WAT     H126042   0.431   1.142   0.617
 8600WAT     H226043   0.488   1.283   0.556
 8601WAT      O26044   0.575   5.307   7.384
 8601WAT     H126045   0.557   5.343   7.475
 8601WAT     H226046   0.528   5.219   7.373
 8602WAT      O26047   3.919   3.456   6.249
 8602WAT     H126048   3.974   3.380   6.284
 8602WAT     H226049   3.843   3.421   6.194
 8603WAT      O26050   3.386   6.321   8.579
 8603WAT     H126051   3.318   6.392   8.559
 8603WAT     H226052   3.434   6.297   8.494
 8604WAT      O26053   0.912   8.067   3.562
 8604WAT     H126054   0.967   8.034   3.639
 8604WAT     H226055   0.971   8.082   3.483
 8605WAT      O26056   1.163   8.292   6.301
 8605WAT     H126057   1.179   8.202   6.342
 8605WAT     H226058   1.228   8.306   6.226
 8606WAT      O26059   3.946   6.912   7.905
 8606WAT     H126060   3.913   6.910   7.999
 8606WAT     H226061   3.933   6.822   7.863
 8607WAT      O26062   8.203   9.088   5.073
 8607WAT     H126063   8.240   9.119   5.161
 8607WAT     H226064   8.225   9.154   5.002
 8608WAT      O26065   1.769   5.525   5.152
 8608WAT     H126066   1.737   5.574   5.233
 8608WAT     H226067   1.702   5.534   5.079
 8609WAT      O26068   5.244   2.656   1.701
 8609WAT     H126069   5.144   2.653   1.706
 8609WAT     H226070   5.276   2.749   1.718
 8610WAT      O26071   5.638   6.689   2.880
 8610WAT     H126072   5.726   6.642   2.870
 8610WAT     H226073   5.639   6.772   2.826
 8611WAT      O26074   5.362   8.703   8.777
 8611WAT     H126075   5.289   8.635   8.782
 8611WAT     H226076   5.422   8.694   8.856
 8612WAT      O26077   2.272   7.428   5.833
 8612WAT     H126078   2.247   7.525   5.839
 8612WAT     H226079   2.356   7.419   5.781
 8613WAT      O26080   3.025   3.494   5.108
 8613WAT     H126081   2.996   3.527   5.018
 8613WAT     H226082   2.948   3.450   5.154
 8614WAT      O26083   9.227   3.387   3.753
 8614WAT     H126084   9.262   3.381   3.659
 8614WAT     H226085   9.303   3.405   3.816
 8615WAT      O26086   5.798   7.905   0.770
 8615WAT     H126087   5.870   7.915   0.701
 8615WAT     H226088   5.782   7.993   0.814
 8616WAT      O26089   7.327   6.075   9.298
 8616WAT     H126090   7.355   5.997   9.355
 8616WAT     H226091   7.257   6.128   9.347
 8617WAT      O26092   7.947   3.791   0.111
 8617WAT     H126093   7.943   3.882   0.070
 8617WAT     H226094   7.932   3.798   0.209
 8618WAT      O26095   7.311   0.716   6.656
 8618WAT     H126096   7.346   0.792   6.710
 8618WAT     H226097   7.378   0.641   6.654
 8619WAT      O26098   9.653   8.347   7.896
 8619WAT     H126099   9.627   8.395   7.813
 8619WAT     H226100   9.752   8.338   7.901
 8620WAT      O26101   2.888   2.510   1.674
 8620WAT     H126102   2.806   2.558   1.641
 8620WAT     H226103   2.895   2.522   1.773
 8621WAT      O26104   0.252   4.657   5.202
 8621WAT     H126105   0.256   4.757   5.190
 8621WAT     H226106   0.344   4.621   5.213
 8622WAT      O26107   6.501   6.693   8.525
 8622WAT     H126108   6.561   6.772   8.542
 8622WAT     H226109   6.435   6.685   8.599
 8623WAT      O26110   3.792   2.084   5.021
 8623WAT     H126111   3.763   2.176   4.995
 8623WAT     H226112   3.833   2.039   4.941
 8624WAT      O26113   0.159   0.575   6.519
 8624WAT     H126114   0.176   0.627   6.602
 8624WAT     H226115   0.229   0.598   6.450
 8625WAT      O26116   0.318   8.457   7.281
 8625WAT     H126117   0.255   8.474   7.356
 8625WAT     H226118   0.411   8.449   7.316
 8626WAT      O26119   9.793   6.450   4.004
 8626WAT     H126120   9.774   6.401   4.089
 8626WAT     H226121   9.762   6.394   3.926
 8627WAT      O26122   0.852   6.163   4.879
 8627WAT     H126123   0.869   6.107   4.797
 8627WAT     H226124   0.754   6.178   4.889
 8628WAT      O26125   2.438   3.896   9.014
 8628WAT     H126126   2.502   3.932   8.945
 8628WAT     H226127   2.413   3.969   9.077
 8629WAT      O26128   8.469   3.592   1.526
 8629WAT     H126129   8.522   3.674   1.549
 8629WAT     H226130   8.380   3.596   1.572
 8630WAT      O26131   9.411   6.183   0.967
 8630WAT     H126132   9.440   6.089   0.949
 8630WAT     H226133   9.345   6.184   1.041
 8631WAT      O26134   7.342   7.380   9.156
 8631WAT     H126135   7.347   7.381   9.056
 8631WAT     H226136   7.351   7.474   9.190
 8632WAT      O26137   8.865   3.969   9.067
 8632WAT     H126138   8.910   3.881   9.049
 8632WAT     H226139   8.928   4.028   9.119
 8633WAT      O26140   4.474   5.065   5.467
 8633WAT     H126141   4.411   5.117   5.524
 8633WAT     H226142   4.564   5.062   5.511
 8634WAT      O26143   8.127   1.977   3.087
 8634WAT     H126144   8.092   2.045   3.151
 8634WAT     H226145   8.158   2.023   3.003
 8635WAT      O26146   8.272   1.726   9.321
 8635WAT     H126147   8.324   1.650   9.284
 8635WAT     H226148   8.333   1.805   9.333
 8636WAT      O26149   7.379   8.102   5.856
 8636WAT     H126150   7.282   8.079   5.847
 8636WAT     H226151   7.409   8.085   5.950
 8637WAT      O26152   1.517   9.428   4.309
 8637WAT     H126153   1.479   9.339   4.286
 8637WAT     H226154   1.610   9.416   4.346
 8638WAT      O26155   6.180   5.216   9.770
 8638WAT     H126156   6.153   5.162   9.690
 8638WAT     H226157   6.272   5.252   9.756
 8639WAT      O26158   3.110   4.780   4.955
 8639WAT     H126159   3.078   4.857   5.009
 8639WAT     H226160   3.184   4.810   4.895
 8640WAT      O26161   8.707   7.414   2.252
 8640WAT     H126162   8.724   7.494   2.308
 8640WAT     H226163   8.693   7.442   2.157
 8641WAT      O26164   3.592   0.897   5.619
 8641WAT     H126165   3.595   0.891   5.719
 8641WAT     H226166   3.682   0.877   5.582
 8642WAT      O26167   8.417   3.181   3.365
 8642WAT     H126168   8.360   3.153   3.442
 8642WAT     H226169   8.508   3.206   3.398
 8643WAT      O26170   2.039   5.699   2.389
 8643WAT     H126171   2.079   5.773   2.443
 8643WAT     H226172   2.088   5.691   2.302
 8644WAT      O26173   1.543   2.785   9.476
 8644WAT     H126174   1.599   2.735   9.542
 8644WAT     H226175   1.595   2.863   9.441
 8645WAT      O26176   3.374   8.397   7.430
 8645WAT     H126177   3.278   8.411   7.454
 8645WAT     H226178   3.380   8.340   7.348
 8646WAT      O26179   0.779   1.090   0.339
 8646WAT     H126180   0.691   1.122   0.305
 8646WAT     H226181   0.781   1.098   0.439
 8647WAT      O26182   4.366   4.115   4.032
 8647WAT     H126183   4.457   4.076   4.048
 8647WAT     H226184   4.374   4.198   3.978
 8648WAT      O26185   4.952   3.251   7.145
 8648WAT     H126186   4.958   3.156   7.177
 8648WAT     H226187   5.022   3.268   7.076
 8649WAT      O26188   8.781   6.865   6.669
 8649WAT     H126189   8.734   6.867   6.581
 8649WAT     H226190   8.815   6.957   6.690
 8650WAT      O26191   9.217   4.548   1.405
 8650WAT     H126192   9.264   4.476   1.456
 8650WAT     H226193   9.281   4.594   1.344
 8651WAT      O26194   6.609   8.247   8.915
 8651WAT     H126195   6.513   8.249   8.887
 8651WAT     H226196   6.631   8.331   8.964
 8652WAT      O26197   4.535   6.067   8.545
 8652WAT     H126198   4.505   6.137   8.480
 8652WAT     H226199   4.565   5.986   8.494
 8653WAT      O26200   8.674   4.126   0.013
 8653WAT     H126201   8.663   4.198  -0.056
 8653WAT     H226202   8.616   4.147   0.092
 8654WAT      O26203   2.421   7.769   6.605
 8654WAT     H126204   2.440   7.772   6.703
 8654WAT     H226205   2.331   7.729   6.589
 8655WAT      O26206   5.469   7.950   1.522
 8655WAT     H126207   5.522   7.881   1.473
 8655WAT     H226208   5.387   7.972   1.470
 8656WAT      O26209   2.842   2.086   7.192
 8656WAT     H126210   2.938   2.058   7.187
 8656WAT     H226211   2.798   2.041   7.270
 8657WAT      O26212   1.552   6.676   0.695
 8657WAT     H126213   1.583   6.710   0.606
 8657WAT     H226214   1.625   6.686   0.762
 8658WAT      O26215   8.546   6.129   3.295
 8658WAT     H126216   8.563   6.065   3.220
 8658WAT     H226217   8.588   6.094   3.379
 8659WAT      O26218   1.258   9.122   8.378
 8659WAT     H126219   1.212   9.211   8.373
 8659WAT     H226220   1.353   9.136   8.404
 8660WAT      O26221   5.896   0.869   0.866
 8660WAT     H126222   5.952   0.807   0.921
 8660WAT     H226223   5.911   0.850   0.769
 8661WAT      O26224   6.474   3.678   2.602
 8661WAT     H126225   6.390   3.656   2.651
 8661WAT     H226226   6.464   3.652   2.506
 8662WAT      O26227   8.629   3.308   9.795
 8662WAT     H126228   8.668   3.336   9.883
 8662WAT     H226229   8.695   3.250   9.747
 8663WAT      O26230   9.198   6.244   3.412
 8663WAT     H126231   9.214   6.338   3.441
 8663WAT     H226232   9.104   6.218   3.433
 8664WAT      O26233   4.646   3.472   1.955
 8664WAT     H126234   4.631   3.486   2.053
 8664WAT     H226235   4.572   3.416   1.918
 8665WAT      O26236   1.590   4.703   3.370
 8665WAT     H126237   1.570   4.634   3.439
 8665WAT     H226238   1.659   4.767   3.404
 8666WAT      O26239   4.746   2.482   4.851
 8666WAT     H126240   4.831   2.432   4.835
 8666WAT     H226241   4.669   2.428   4.816
 8667WAT      O26242   7.874   2.193   9.041
 8667WAT     H126243   7.968   2.226   9.032
 8667WAT     H226244   7.852   2.135   8.963
 8668WAT      O26245   6.403   8.384   9.486
 8668WAT     H126246   6.429   8.432   9.570
 8668WAT     H226247   6.369   8.293   9.510
 8669WAT      O26248   4.853   5.382   6.849
 8669WAT     H126249   4.853   5.286   6.879
 8669WAT     H226250   4.900   5.438   6.917
 8670WAT      O26251   9.373   8.921   2.878
 8670WAT     H126252   9.386   8.973   2.794
 8670WAT     H226253   9.460   8.914   2.927
 8671WAT      O26254   6.437   0.349   5.622
 8671WAT     H126255   6.448   0.448   5.609
 8671WAT     H226256   6.350   0.331   5.669
 8672WAT      O26257   4.937   6.529   7.739
 8672WAT     H126258   4.890   6.533   7.651
 8672WAT     H226259   4.871   6.510   7.812
 8673WAT      O26260   4.489   8.653   0.315
 8673WAT     H126261   4.462   8.563   0.283
 8673WAT     H226262   4.555   8.643   0.389
 8674WAT      O26263   7.634   7.833   8.743
 8674WAT     H126264   7.546   7.871   8.715
 8674WAT     H226265   7.629   7.803   8.838
 8675WAT      O26266   8.763   6.453   2.670
 8675WAT     H126267   8.855   6.488   2.689
 8675WAT     H226268   8.706   6.466   2.751
 8676WAT      O26269   5.939   0.531   2.898
 8676WAT     H126270   5.842   0.555   2.888
 8676WAT     H226271   5.963   0.461   2.830
 8677WAT      O26272   5.079   3.881   5.593
 8677WAT     H126273   5.171   3.872   5.632
 8677WAT     H226274   5.012   3.849   5.659
 8678WAT      O26275   1.553   9.528   6.390
 8678WAT     H126276   1.646   9.494   6.401
 8678WAT     H226277   1.499   9.503   6.471
 8679WAT      O26278   0.662   6.218   1.994
 8679WAT     H126279   0.736   6.203   1.928
 8679WAT     H226280   0.628   6.130   2.027
 8680WAT      O26281   7.804   8.193   2.470
 8680WAT     H126282   7.865   8.151   2.537
 8680WAT     H226283   7.838   8.175   2.378
 8681WAT      O26284   8.820   1.018   1.162
 8681WAT     H126285   8.740   1.018   1.222
 8681WAT     H226286   8.796   0.975   1.075
 8682WAT      O26287   3.921   9.387   8.842
 8682WAT     H126288   3.963   9.364   8.754
 8682WAT     H226289   3.826   9.354   8.843
 8683WAT      O26290   2.728   7.730   2.945
 8683WAT     H126291   2.642   7.780   2.957
 8683WAT     H226292   2.805   7.790   2.968
 8684WAT      O26293   9.535   8.302   8.693
 8684WAT     H126294   9.440   8.303   8.726
 8684WAT     H226295   9.536   8.269   8.598
 8685WAT      O26296   8.539   2.132   8.302
 8685WAT     H126297   8.468   2.062   8.290
 8685WAT     H226298   8.600   2.104   8.376
 8686WAT      O26299   2.548   9.802   0.691
 8686WAT     H126300   2.530   9.893   0.652
 8686WAT     H226301   2.513   9.732   0.630
 8687WAT      O26302   3.007   2.295   1.568
 8687WAT     H126303   3.020   2.300   1.469
 8687WAT     H226304   2.987   2.386   1.604
 8688WAT      O26305   8.116   8.275   0.591
 8688WAT     H126306   8.208   8.235   0.581
 8688WAT     H226307   8.123   8.369   0.624
 8689WAT      O26308   9.515   5.849   9.116
 8689WAT     H126309   9.497   5.892   9.205
 8689WAT     H226310   9.570   5.910   9.060
 8690WAT      O26311   7.123   2.034   2.218
 8690WAT     H126312   7.042   1.977   2.222
 8690WAT     H226313   7.179   2.008   2.139
 8691WAT      O26314   8.152   5.497   2.731
 8691WAT     H126315   8.140   5.577   2.790
 8691WAT     H226316   8.248   5.491   2.703
 8692WAT      O26317   0.117   7.656   0.349
 8692WAT     H126318   0.164   7.685   0.432
 8692WAT     H226319   0.018   7.658   0.364
 8693WAT      O26320   2.991   5.238   3.294
 8693WAT     H126321   3.075   5.261   3.246
 8693WAT     H226322   3.000   5.147   3.336
 8694WAT      O26323   4.966   4.083   7.883
 8694WAT     H126324   4.946   4.037   7.797
 8694WAT     H226325   5.041   4.037   7.930
 8695WAT      O26326   1.818   4.886   6.224
 8695WAT     H126327   1.753   4.814   6.246
 8695WAT     H226328   1.806   4.963   6.286
 8696WAT      O26329   6.748   3.424   8.948
 8696WAT     H126330   6.838   3.441   8.910
 8696WAT     H226331   6.737   3.477   9.033
 8697WAT      O26332   2.858   8.751   8.126
 8697WAT     H126333   2.916   8.828   8.153
 8697WAT     H226334   2.829   8.701   8.207
 8698WAT      O26335   5.685   3.886   6.867
 8698WAT     H126336   5.627   3.875   6.786
 8698WAT     H226337   5.772   3.839   6.852
 8699WAT      O26338   4.374   1.732   4.405
 8699WAT     H126339   4.471   1.714   4.389
 8699WAT     H226340   4.333   1.771   4.323
 8700WAT      O26341   2.434   3.819   6.340
 8700WAT     H126342   2.347   3.802   6.295
 8700WAT     H226343   2.422   3.814   6.439
 8701WAT      O26344   0.468   8.202   3.467
 8701WAT     H126345   0.561   8.210   3.432
 8701WAT     H226346   0.471   8.187   3.566
 8702WAT      O26347   9.303   9.172   5.119
 8702WAT     H126348   9.398   9.159   5.093
 8702WAT     H226349   9.244   9.119   5.058
 8703WAT      O26350   5.080   8.118   4.437
 8703WAT     H126351   5.081   8.218   4.439
 8703WAT     H226352   5.119   8.082   4.522
 8704WAT      O26353   7.722   7.008   5.988
 8704WAT     H126354   7.690   6.945   5.918
 8704WAT     H226355   7.755   6.957   6.067
 8705WAT      O26356   0.029   5.049   7.449
 8705WAT     H126357  -0.032   5.030   7.526
 8705WAT     H226358   0.058   5.145   7.453
 8706WAT      O26359   0.578   6.171   9.186
 8706WAT     H126360   0.494   6.218   9.213
 8706WAT     H226361   0.558   6.077   9.161
 8707WAT      O26362   2.483   8.221   0.252
 8707WAT     H126363   2.515   8.250   0.162
 8707WAT     H226364   2.491   8.297   0.316
 8708WAT      O26365   7.176   6.991   4.803
 8708WAT     H126366   7.265   6.975   4.760
 8708WAT     H226367   7.167   6.933   4.884
 8709WAT      O26368   5.367   6.899   7.693
 8709WAT     H126369   5.323   6.986   7.670
 8709WAT     H226370   5.308   6.848   7.756
 8710WAT      O26371   4.618   1.825   7.176
 8710WAT     H126372   4.636   1.882   7.256
 8710WAT     H226373   4.638   1.730   7.198
 8711WAT      O26374   6.680   9.148   9.610
 8711WAT     H126375   6.685   9.206   9.691
 8711WAT     H226376   6.599   9.090   9.614
 8712WAT      O26377   4.341   8.044   9.365
 8712WAT     H126378   4.306   7.951   9.350
 8712WAT     H226379   4.279   8.093   9.425
 8713WAT      O26380   5.432   2.554   1.016
 8713WAT     H126381   5.526   2.562   1.051
 8713WAT     H226382   5.392   2.467   1.046
 8714WAT      O26383   8.919   2.230   8.422
 8714WAT     H126384   9.001   2.173   8.422
 8714WAT     H226385   8.866   2.212   8.505
 8715WAT      O26386   2.553   5.288   5.745
 8715WAT     H126387   2.573   5.365   5.806
 8715WAT     H226388   2.609   5.294   5.663
 8716WAT      O26389   4.647   3.582   6.917
 8716WAT     H126390   4.622   3.595   7.013
 8716WAT     H226391   4.683   3.490   6.904
 8717WAT      O26392   4.063   3.919   1.356
 8717WAT     H126393   4.042   4.016   1.351
 8717WAT     H226394   4.161   3.905   1.340
 8718WAT      O26395   2.534   4.116   6.366
 8718WAT     H126396   2.561   4.178   6.293
 8718WAT     H226397   2.534   4.022   6.332
 8719WAT      O26398   3.567   0.658   8.903
 8719WAT     H126399   3.630   0.623   8.834
 8719WAT     H226400   3.491   0.594   8.913
 8720WAT      O26401   9.016   8.443   2.735
 8720WAT     H126402   8.937   8.411   2.786
 8720WAT     H226403   9.034   8.380   2.659
 8721WAT      O26404   1.999   7.674   3.915
 8721WAT     H126405   1.991   7.773   3.920
 8721WAT     H226406   1.918   7.635   3.871
 8722WAT      O26407   4.661   0.998   0.378
 8722WAT     H126408   4.626   0.904   0.389
 8722WAT     H226409   4.593   1.053   0.330
 8723WAT      O26410   6.645   5.464   4.726
 8723WAT     H126411   6.570   5.419   4.678
 8723WAT     H226412   6.611   5.506   4.810
 8724WAT      O26413   3.395   2.006   6.202
 8724WAT     H126414   3.364   1.978   6.111
 8724WAT     H226415   3.366   1.937   6.269
 8725WAT      O26416   3.877   0.845   0.714
 8725WAT     H126417   3.950   0.780   0.736
 8725WAT     H226418   3.917   0.931   0.683
 8726WAT      O26419   4.701   3.945   2.422
 8726WAT     H126420   4.776   3.990   2.375
 8726WAT     H226421   4.617   3.958   2.370
 8727WAT      O26422   1.707   0.038   9.895
 8727WAT     H126423   1.742   0.047   9.801
 8727WAT     H226424   1.612   0.067   9.898
 8728WAT      O26425   3.111   2.540   0.072
 8728WAT     H126426   3.104   2.471   0.000
 8728WAT     H226427   3.207   2.563   0.087
 8729WAT      O26428   3.492   3.824   8.593
 8729WAT     H126429   3.452   3.915   8.595
 8729WAT     H226430   3.520   3.797   8.685
 8730WAT      O26431   8.413   5.448   2.689
 8730WAT     H126432   8.445   5.406   2.774
 8730WAT     H226433   8.382   5.376   2.626
 8731WAT      O26434   8.582   1.512   0.961
 8731WAT     H126435   8.489   1.474   0.966
 8731WAT     H226436   8.633   1.486   1.043
 8732WAT      O26437   5.829   0.620   7.065
 8732WAT     H126438   5.877   0.697   7.023
 8732WAT     H226439   5.861   0.608   7.160
 8733WAT      O26440   0.260   4.973   2.783
 8733WAT     H126441   0.257   4.889   2.729
 8733WAT     H226442   0.354   4.989   2.814
 8734WAT      O26443   5.916   3.315   1.081
 8734WAT     H126444   5.971   3.399   1.078
 8734WAT     H226445   5.819   3.340   1.080
 8735WAT      O26446   1.943   7.133   8.564
 8735WAT     H126447   1.944   7.117   8.466
 8735WAT     H226448   1.882   7.210   8.584
 8736WAT      O26449   8.637   3.263   3.915
 8736WAT     H126450   8.714   3.201   3.932
 8736WAT     H226451   8.640   3.339   3.980
 8737WAT      O26452   5.777   5.407   8.973
 8737WAT     H126453   5.724   5.400   9.057
 8737WAT     H226454   5.860   5.461   8.990
 8738WAT      O26455   8.607   1.338   7.020
 8738WAT     H126456   8.698   1.316   7.057
 8738WAT     H226457   8.617   1.372   6.926
 8739WAT      O26458   7.351   0.605   8.777
 8739WAT     H126459   7.287   0.668   8.822
 8739WAT     H226460   7.374   0.641   8.686
 8740WAT      O26461   1.292   1.638   2.008
 8740WAT     H126462   1.267   1.727   2.047
 8740WAT     H226463   1.271   1.637   1.910
 8741WAT      O26464   8.354   9.376   5.597
 8741WAT     H126465   8.433   9.415   5.642
 8741WAT     H226466   8.384   9.303   5.535
 8742WAT      O26467   9.503   9.497   1.554
 8742WAT     H126468   9.448   9.545   1.486
 8742WAT     H226469   9.514   9.401   1.527
 8743WAT      O26470   7.584   0.622   7.872
 8743WAT     H126471   7.592   0.721   7.857
 8743WAT     H226472   7.541   0.580   7.792
 8744WAT      O26473   4.161   9.330   7.545
 8744WAT     H126474   4.129   9.267   7.616
 8744WAT     H226475   4.092   9.338   7.474
 8745WAT      O26476   5.190   0.768   0.203
 8745WAT     H126477   5.248   0.810   0.133
 8745WAT     H226478   5.099   0.751   0.166
 8746WAT      O26479   4.411   0.666   3.383
 8746WAT     H126480   4.468   0.748   3.376
 8746WAT     H226481   4.459   0.588   3.344
 8747WAT      O26482   0.790   6.927   5.694
 8747WAT     H126483   0.867   6.957   5.751
 8747WAT     H226484   0.705   6.965   5.731
 8748WAT      O26485   6.919   2.706   0.150
 8748WAT     H126486   6.914   2.778   0.082
 8748WAT     H226487   6.895   2.743   0.240
 8749WAT      O26488   2.126   2.848   4.481
 8749WAT     H126489   2.072   2.772   4.518
 8749WAT     H226490   2.070   2.931   4.479
 8750WAT      O26491   5.467   0.999   7.489
 8750WAT     H126492   5.445   1.097   7.490
 8750WAT     H226493   5.551   0.983   7.541
 8751WAT      O26494   8.956   7.401   7.083
 8751WAT     H126495   8.890   7.336   7.122
 8751WAT     H226496   8.908   7.476   7.038
 8752WAT      O26497   0.833   1.819   8.531
 8752WAT     H126498   0.932   1.829   8.541
 8752WAT     H226499   0.787   1.864   8.608
 8753WAT      O26500   7.931   7.270   8.986
 8753WAT     H126501   7.967   7.225   9.068
 8753WAT     H226502   7.853   7.327   9.010
 8754WAT      O26503   5.714   5.111   9.539
 8754WAT     H126504   5.813   5.125   9.548
 8754WAT     H226505   5.681   5.056   9.616
 8755WAT      O26506   0.276   7.030   8.820
 8755WAT     H126507   0.229   7.118   8.831
 8755WAT     H226508   0.271   6.979   8.906
 8756WAT      O26509   8.381   2.442   3.073
 8756WAT     H126510   8.417   2.446   3.166
 8756WAT     H226511   8.299   2.498   3.066
 8757WAT      O26512   7.313   6.851   6.499
 8757WAT     H126513   7.327   6.861   6.598
 8757WAT     H226514   7.359   6.925   6.451
 8758WAT      O26515   9.303   8.008   7.505
 8758WAT     H126516   9.359   8.062   7.568
 8758WAT     H226517   9.314   7.911   7.525
 8759WAT      O26518   7.944   1.649   1.515
 8759WAT     H126519   7.982   1.716   1.451
 8759WAT     H226520   7.877   1.694   1.574
 8760WAT      O26521   4.850   6.348   4.958
 8760WAT     H126522   4.918   6.281   4.987
 8760WAT     H226523   4.883   6.394   4.875
 8761WAT      O26524   5.717   9.804   5.393
 8761WAT     H126525   5.669   9.720   5.368
 8761WAT     H226526   5.804   9.808   5.345
 8762WAT      O26527   8.498   3.242   2.835
 8762WAT     H126528   8.421   3.179   2.825
 8762WAT     H226529   8.544   3.253   2.747
 8763WAT      O26530   7.632   7.657   7.899
 8763WAT     H126531   7.683   7.601   7.964
 8763WAT     H226532   7.624   7.750   7.935
 8764WAT      O26533   4.639   8.587   6.708
 8764WAT     H126534   4.573   8.611   6.637
 8764WAT     H226535   4.635   8.488   6.725
 8765WAT      O26536   5.145   6.504   5.809
 8765WAT     H126537   5.242   6.526   5.804
 8765WAT     H226538   5.133   6.405   5.810
 8766WAT      O26539   3.200   8.491   6.113
 8766WAT     H126540   3.167   8.404   6.150
 8766WAT     H226541   3.194   8.489   6.013
 8767WAT      O26542   2.089   1.974   4.516
 8767WAT     H126543   2.013   1.994   4.578
 8767WAT     H226544   2.120   2.059   4.474
 8768WAT      O26545   6.726   5.173   9.052
 8768WAT     H126546   6.717   5.149   8.956
 8768WAT     H226547   6.636   5.194   9.090
 8769WAT      O26548   0.754   8.566   8.874
 8769WAT     H126549   0.824   8.529   8.813
 8769WAT     H226550   0.663   8.534   8.845
 8770WAT      O26551   7.217   4.913   1.585
 8770WAT     H126552   7.160   4.924   1.666
 8770WAT     H226553   7.181   4.838   1.529
 8771WAT      O26554   9.008   9.371   4.860
 8771WAT     H126555   9.075   9.429   4.906
 8771WAT     H226556   8.950   9.327   4.928
 8772WAT      O26557   9.835   3.172   4.359
 8772WAT     H126558   9.886   3.095   4.320
 8772WAT     H226559   9.781   3.216   4.287
 8773WAT      O26560   3.531   2.293   4.932
 8773WAT     H126561   3.615   2.280   4.880
 8773WAT     H226562   3.477   2.209   4.931
 8774WAT      O26563   1.377   8.559   7.774
 8774WAT     H126564   1.309   8.486   7.767
 8774WAT     H226565   1.404   8.571   7.869
 8775WAT      O26566   7.025   0.713   0.279
 8775WAT     H126567   7.106   0.688   0.227
 8775WAT     H226568   7.001   0.808   0.261
 8776WAT      O26569   6.318   3.047   5.464
 8776WAT     H126570   6.414   3.069   5.446
 8776WAT     H226571   6.311   2.952   5.495
 8777WAT      O26572   8.261   6.340   1.679
 8777WAT     H126573   8.308   6.358   1.593
 8777WAT     H226574   8.323   6.290   1.740
 8778WAT      O26575   4.761   9.366   0.297
 8778WAT     H126576   4.798   9.278   0.327
 8778WAT     H226577   4.809   9.440   0.344
 8779WAT      O26578   0.808   9.300   5.960
 8779WAT     H126579   0.827   9.344   5.872
 8779WAT     H226580   0.891   9.300   6.015
 8780WAT      O26581   6.359   0.858   4.268
 8780WAT     H126582   6.300   0.913   4.208
 8780WAT     H226583   6.407   0.789   4.215
 8781WAT      O26584   8.410   4.314   6.424
 8781WAT     H126585   8.419   4.215   6.415
 8781WAT     H226586   8.424   4.358   6.335
 8782WAT      O26587   7.636   9.529   0.437
 8782WAT     H126588   7.639   9.619   0.481
 8782WAT     H226589   7.622   9.459   0.507
 8783WAT      O26590   9.350   0.333   3.491
 8783WAT     H126591   9.372   0.269   3.565
 8783WAT     H226592   9.266   0.382   3.514
 8784WAT      O26593   4.085   8.579   0.987
 8784WAT     H126594   4.107   8.516   0.912
 8784WAT     H226595   4.119   8.671   0.964
 8785WAT      O26596   2.716   2.073   2.468
 8785WAT     H126597   2.666   1.991   2.496
 8785WAT     H226598   2.652   2.141   2.432
 8786WAT      O26599   4.802   0.071   3.137
 8786WAT     H126600   4.707   0.084   3.111
 8786WAT     H226601   4.837   0.155   3.180
 8787WAT      O26602   9.853   3.711   7.865
 8787WAT     H126603   9.877   3.658   7.784
 8787WAT     H226604   9.922   3.696   7.936
 8788WAT      O26605   8.360   1.702   4.632
 8788WAT     H126606   8.330   1.641   4.558
 8788WAT     H226607   8.359   1.796   4.599
 8789WAT      O26608   3.331   3.213   6.016
 8789WAT     H126609   3.398   3.160   6.069
 8789WAT     H226610   3.266   3.150   5.973
 8790WAT      O26611   4.589   5.853   1.768
 8790WAT     H126612   4.641   5.894   1.692
 8790WAT     H226613   4.535   5.777   1.733
 8791WAT      O26614   9.728   1.250   8.347
 8791WAT     H126615   9.653   1.310   8.375
 8791WAT     H226616   9.784   1.296   8.278
 8792WAT      O26617   6.316   1.507   3.229
 8792WAT     H126618   6.361   1.543   3.311
 8792WAT     H226619   6.225   1.547   3.221
 8793WAT      O26620   6.048   2.739   1.153
 8793WAT     H126621   6.110   2.786   1.214
 8793WAT     H226622   5.953   2.759   1.178
 8794WAT      O26623   3.943   5.547   9.248
 8794WAT     H126624   4.023   5.581   9.298
 8794WAT     H226625   3.862   5.556   9.306
 8795WAT      O26626   2.919   0.724   5.411
 8795WAT     H126627   2.845   0.757   5.352
 8795WAT     H226628   2.950   0.635   5.379
 8796WAT      O26629   6.174   3.095   8.835
 8796WAT     H126630   6.127   3.119   8.751
 8796WAT     H226631   6.108   3.061   8.902
 8797WAT      O26632   8.475   4.850   9.457
 8797WAT     H126633   8.521   4.880   9.541
 8797WAT     H226634   8.393   4.904   9.442
 8798WAT      O26635   6.023   4.769   9.456
 8798WAT     H126636   6.117   4.775   9.487
 8798WAT     H226637   6.016   4.803   9.362
 8799WAT      O26638   3.385   4.582   7.171
 8799WAT     H126639   3.386   4.653   7.241
 8799WAT     H226640   3.295   4.579   7.126
 8800WAT      O26641   2.192   2.045   4.953
 8800WAT     H126642   2.239   2.002   4.876
 8800WAT     H226643   2.243   2.029   5.037
 8801WAT      O26644   5.723   1.087   0.341
 8801WAT     H126645   5.736   1.034   0.425
 8801WAT     H226646   5.771   1.042   0.266
 8802WAT      O26647   5.377   2.867   6.986
 8802WAT     H126648   5.440   2.903   6.917
 8802WAT     H226649   5.391   2.915   7.072
 8803WAT      O26650   2.926   0.773   0.345
 8803WAT     H126651   2.967   0.847   0.293
 8803WAT     H226652   2.827   0.773   0.329
 8804WAT      O26653   2.921   2.774   9.375
 8804WAT     H126654   2.823   2.761   9.386
 8804WAT     H226655   2.939   2.821   9.289
 8805WAT      O26656   6.993   5.743   9.717
 8805WAT     H126657   7.004   5.823   9.775
 8805WAT     H226658   7.011   5.768   9.622
 8806WAT      O26659   0.756   2.901   6.517
 8806WAT     H126660   0.833   2.865   6.465
 8806WAT     H226661   0.727   2.833   6.585
 8807WAT      O26662   5.818   4.290   3.911
 8807WAT     H126663   5.746   4.328   3.854
 8807WAT     H226664   5.781   4.214   3.965
 8808WAT      O26665   7.351   1.702   9.119
 8808WAT     H126666   7.436   1.697   9.065
 8808WAT     H226667   7.370   1.744   9.207
 8809WAT      O26668   5.741   0.434   2.628
 8809WAT     H126669   5.811   0.373   2.664
 8809WAT     H226670   5.708   0.494   2.701
 8810WAT      O26671   3.559   1.563   2.730
 8810WAT     H126672   3.516   1.532   2.814
 8810WAT     H226673   3.598   1.484   2.682
 8811WAT      O26674   1.708   4.551   6.629
 8811WAT     H126675   1.736   4.631   6.682
 8811WAT     H226676   1.688   4.476   6.691
 8812WAT      O26677   4.645   2.366   0.591
 8812WAT     H126678   4.706   2.429   0.543
 8812WAT     H226679   4.695   2.283   0.616
 8813WAT      O26680   0.431   7.886   1.347
 8813WAT     H126681   0.458   7.818   1.278
 8813WAT     H226682   0.436   7.846   1.438
 8814WAT      O26683   5.324   8.391   9.065
 8814WAT     H126684   5.412   8.434   9.045
 8814WAT     H226685   5.316   8.306   9.013
 8815WAT      O26686   2.617   4.106   9.616
 8815WAT     H126687   2.679   4.184   9.606
 8815WAT     H226688   2.538   4.118   9.557
 8816WAT      O26689   2.950   0.352   2.399
 8816WAT     H126690   2.972   0.288   2.473
 8816WAT     H226691   2.975   0.445   2.427
 8817WAT      O26692   6.696   1.196   6.691
 8817WAT     H126693   6.649   1.283   6.675
 8817WAT     H226694   6.635   1.120   6.668
 8818WAT      O26695   0.371   7.550   4.849
 8818WAT     H126696   0.389   7.520   4.943
 8818WAT     H226697   0.458   7.573   4.804
 8819WAT      O26698   0.774   9.049   0.694
 8819WAT     H126699   0.700   9.074   0.756
 8819WAT     H226700   0.743   9.061   0.599
 8820WAT      O26701   0.551   2.435   3.832
 8820WAT     H126702   0.638   2.397   3.799
 8820WAT     H226703   0.542   2.419   3.930
 8821WAT      O26704   4.689   1.914   3.116
 8821WAT     H126705   4.648   1.834   3.158
 8821WAT     H226706   4.643   1.935   3.030
 8822WAT      O26707   6.570   7.808   8.388
 8822WAT     H126708   6.626   7.734   8.349
 8822WAT     H226709   6.601   7.896   8.351
 8823WAT      O26710   4.905   4.577   8.812
 8823WAT     H126711   4.993   4.579   8.765
 8823WAT     H226712   4.831   4.574   8.744
 8824WAT      O26713   1.339   6.628   3.221
 8824WAT     H126714   1.423   6.658   3.266
 8824WAT     H226715   1.306   6.700   3.160
 8825WAT      O26716   0.464   2.078   7.408
 8825WAT     H126717   0.556   2.104   7.380
 8825WAT     H226718   0.417   2.036   7.331
 8826WAT      O26719   9.874   7.251   1.486
 8826WAT     H126720   9.793   7.218   1.438
 8826WAT     H226721   9.884   7.203   1.573
 8827WAT      O26722   0.469   4.669   4.646
 8827WAT     H126723   0.527   4.621   4.712
 8827WAT     H226724   0.478   4.624   4.557
 8828WAT      O26725   1.144   0.208   2.582
 8828WAT     H126726   1.243   0.218   2.584
 8828WAT     H226727   1.113   0.195   2.488
 8829WAT      O26728   1.388   4.443   9.514
 8829WAT     H126729   1.359   4.440   9.419
 8829WAT     H226730   1.466   4.505   9.523
 8830WAT      O26731   0.553   2.668   2.291
 8830WAT     H126732   0.553   2.645   2.194
 8830WAT     H226733   0.568   2.585   2.345
 8831WAT      O26734   6.649   1.651   4.750
 8831WAT     H126735   6.603   1.699   4.825
 8831WAT     H226736   6.630   1.553   4.756
 8832WAT      O26737   6.592   5.108   4.534
 8832WAT     H126738   6.553   5.056   4.611
 8832WAT     H226739   6.692   5.099   4.536
 8833WAT      O26740   0.565   2.494   5.513
 8833WAT     H126741   0.588   2.443   5.430
 8833WAT     H226742   0.507   2.438   5.571
 8834WAT      O26743   2.356   2.807   2.779
 8834WAT     H126744   2.321   2.762   2.861
 8834WAT     H226745   2.451   2.835   2.794
 8835WAT      O26746   2.255   2.354   8.378
 8835WAT     H126747   2.270   2.433   8.318
 8835WAT     H226748   2.189   2.292   8.335
 8836WAT      O26749   7.276   4.435   5.315
 8836WAT     H126750   7.252   4.451   5.219
 8836WAT     H226751   7.229   4.500   5.374
 8837WAT      O26752   0.110   6.275   0.812
 8837WAT     H126753   0.161   6.212   0.872
 8837WAT     H226754   0.012   6.270   0.833
 8838WAT      O26755   7.027   3.441   2.651
 8838WAT     H126756   6.937   3.421   2.612
 8838WAT     H226757   7.022   3.525   2.705
 8839WAT      O26758   1.548   5.806   1.414
 8839WAT     H126759   1.498   5.888   1.444
 8839WAT     H226760   1.489   5.726   1.423
 8840WAT      O26761   1.377   5.515   9.713
 8840WAT     H126762   1.334   5.445   9.656
 8840WAT     H226763   1.310   5.585   9.737
 8841WAT      O26764   5.985   0.821   3.572
 8841WAT     H126765   6.030   0.903   3.607
 8841WAT     H226766   6.003   0.813   3.474
 8842WAT      O26767   2.760   9.476   6.686
 8842WAT     H126768   2.683   9.534   6.658
 8842WAT     H226769   2.781   9.493   6.782
 8843WAT      O26770   6.940   2.069   5.656
 8843WAT     H126771   6.896   2.071   5.566
 8843WAT     H226772   6.966   1.975   5.679
 8844WAT      O26773   2.383   6.592   2.342
 8844WAT     H126774   2.367   6.502   2.382
 8844WAT     H226775   2.321   6.605   2.265
 8845WAT      O26776   4.761   5.439   0.446
 8845WAT     H126777   4.719   5.463   0.359
 8845WAT     H226778   4.851   5.482   0.453
 8846WAT      O26779   4.104   0.803   5.684
 8846WAT     H126780   4.061   0.793   5.774
 8846WAT     H226781   4.156   0.720   5.662
 8847WAT      O26782   2.637   9.322   1.747
 8847WAT     H126783   2.567   9.348   1.814
 8847WAT     H226784   2.667   9.228   1.766
 8848WAT      O26785   0.347   5.712   8.427
 8848WAT     H126786   0.369   5.809   8.444
 8848WAT     H226787   0.308   5.703   8.336
 8849WAT      O26788   6.080   5.986   1.866
 8849WAT     H126789   6.044   5.951   1.779
 8849WAT     H226790   6.010   5.977   1.937
 8850WAT      O26791   7.989   8.308   9.508
 8850WAT     H126792   8.055   8.333   9.436
 8850WAT     H226793   7.937   8.389   9.535
 8851WAT      O26794   3.276   0.665   8.300
 8851WAT     H126795   3.208   0.595   8.323
 8851WAT     H226796   3.251   0.751   8.343
 8852WAT      O26797   0.618   6.458   8.347
 8852WAT     H126798   0.604   6.448   8.445
 8852WAT     H226799   0.667   6.377   8.312
 8853WAT      O26800   4.989   1.097   6.031
 8853WAT     H126801   5.020   1.192   6.023
 8853WAT     H226802   4.925   1.089   6.107
 8854WAT      O26803   1.600   7.549   1.649
 8854WAT     H126804   1.524   7.607   1.677
 8854WAT     H226805   1.650   7.593   1.575
 8855WAT      O26806   5.324   9.753   1.848
 8855WAT     H126807   5.413   9.796   1.859
 8855WAT     H226808   5.315   9.718   1.755
 8856WAT      O26809   9.629   9.195   6.237
 8856WAT     H126810   9.604   9.278   6.189
 8856WAT     H226811   9.683   9.218   6.318
 8857WAT      O26812   5.921   0.997   7.543
 8857WAT     H126813   5.854   1.002   7.617
 8857WAT     H226814   5.998   1.058   7.563
 8858WAT      O26815   6.505   9.177   4.620
 8858WAT     H126816   6.476   9.174   4.716
 8858WAT     H226817   6.431   9.214   4.565
 8859WAT      O26818   1.604   3.416   4.397
 8859WAT     H126819   1.680   3.442   4.457
 8859WAT     H226820   1.538   3.362   4.449
 8860WAT      O26821   4.583   5.864   4.640
 8860WAT     H126822   4.584   5.938   4.573
 8860WAT     H226823   4.647   5.886   4.714
 8861WAT      O26824   8.668   7.644   6.537
 8861WAT     H126825   8.674   7.570   6.471
 8861WAT     H226826   8.750   7.645   6.595
 8862WAT      O26827   0.932   0.264   6.151
 8862WAT     H126828   0.936   0.235   6.055
 8862WAT     H226829   0.963   0.359   6.158
 8863WAT      O26830   0.132   4.097   3.223
 8863WAT     H126831   0.072   4.122   3.299
 8863WAT     H226832   0.125   4.166   3.151
 8864WAT      O26833   6.579   6.955   7.603
 8864WAT     H126834   6.571   6.855   7.595
 8864WAT     H226835   6.621   6.978   7.691
 8865WAT      O26836   3.022   7.333   3.048
 8865WAT     H126837   3.027   7.429   3.077
 8865WAT     H226838   2.941   7.320   2.991
 8866WAT      O26839   6.364   5.112   1.477
 8866WAT     H126840   6.419   5.107   1.394
 8866WAT     H226841   6.390   5.039   1.539
 8867WAT      O26842   7.637   1.290   3.671
 8867WAT     H126843   7.618   1.197   3.638
 8867WAT     H226844   7.678   1.343   3.597
 8868WAT      O26845   4.683   7.570   4.289
 8868WAT     H126846   4.734   7.485   4.299
 8868WAT     H226847   4.625   7.585   4.369
 8869WAT      O26848   0.290   8.638   0.376
 8869WAT     H126849   0.321   8.548   0.346
 8869WAT     H226850   0.341   8.709   0.327
 8870WAT      O26851   0.365   6.764   0.768
 8870WAT     H126852   0.304   6.814   0.706
 8870WAT     H226853   0.319   6.681   0.799
 8871WAT      O26854   4.158   6.091   6.795
 8871WAT     H126855   4.084   6.026   6.778
 8871WAT     H226856   4.124   6.167   6.850
 8872WAT      O26857   8.002   9.693   5.331
 8872WAT     H126858   8.047   9.650   5.410
 8872WAT     H226859   7.911   9.724   5.358
 8873WAT      O26860   8.513   8.969   4.514
 8873WAT     H126861   8.604   8.947   4.548
 8873WAT     H226862   8.444   8.922   4.569
 8874WAT      O26863   3.254   2.218   3.920
 8874WAT     H126864   3.332   2.157   3.938
 8874WAT     H226865   3.170   2.165   3.920
 8875WAT      O26866   0.861   7.509   5.656
 8875WAT     H126867   0.764   7.487   5.652
 8875WAT     H226868   0.914   7.428   5.682
 8876WAT      O26869   7.540   5.952   7.989
 8876WAT     H126870   7.613   5.891   8.021
 8876WAT     H226871   7.457   5.935   8.042
 8877WAT      O26872   4.137   4.328   1.846
 8877WAT     H126873   4.163   4.257   1.911
 8877WAT     H226874   4.129   4.289   1.755
 8878WAT      O26875   9.243   7.851   5.216
 8878WAT     H126876   9.228   7.792   5.137
 8878WAT     H226877   9.189   7.819   5.293
 8879WAT      O26878   2.152   8.827   4.662
 8879WAT     H126879   2.074   8.769   4.638
 8879WAT     H226880   2.128   8.923   4.643
 8880WAT      O26881   9.307   6.258   7.928
 8880WAT     H126882   9.306   6.260   8.028
 8880WAT     H226883   9.306   6.163   7.896
 8881WAT      O26884   5.498   3.367   0.384
 8881WAT     H126885   5.562   3.331   0.453
 8881WAT     H226886   5.543   3.440   0.332
 8882WAT      O26887   0.515   0.751   1.258
 8882WAT     H126888   0.472   0.690   1.323
 8882WAT     H226889   0.490   0.725   1.165
 8883WAT      O26890   3.730   5.536   4.414
 8883WAT     H126891   3.793   5.610   4.436
 8883WAT     H226892   3.648   5.543   4.471
 8884WAT      O26893   1.848   5.723   4.920
 8884WAT     H126894   1.855   5.713   4.820
 8884WAT     H226895   1.869   5.636   4.964
 8885WAT      O26896   4.296   6.094   1.180
 8885WAT     H126897   4.289   6.042   1.266
 8885WAT     H226898   4.390   6.090   1.146
 8886WAT      O26899   3.684   6.590   7.633
 8886WAT     H126900   3.633   6.661   7.584
 8886WAT     H226901   3.758   6.633   7.685
 8887WAT      O26902   8.855   9.067   0.936
 8887WAT     H126903   8.949   9.033   0.928
 8887WAT     H226904   8.842   9.107   1.027
 8888WAT      O26905   6.696   2.629   4.017
 8888WAT     H126906   6.682   2.536   4.049
 8888WAT     H226907   6.625   2.653   3.951
 8889WAT      O26908   1.463   7.236   8.420
 8889WAT     H126909   1.532   7.193   8.478
 8889WAT     H226910   1.433   7.322   8.462
 8890WAT      O26911   8.066   6.797   0.946
 8890WAT     H126912   8.057   6.880   1.001
 8890WAT     H226913   8.070   6.821   0.849
 8891WAT      O26914   2.160   5.937   9.135
 8891WAT     H126915   2.154   5.975   9.043
 8891WAT     H226916   2.228   5.865   9.138
 8892WAT      O26917   1.264   0.613   5.414
 8892WAT     H126918   1.303   0.523   5.393
 8892WAT     H226919   1.303   0.681   5.352
 8893WAT      O26920   5.156   2.873   9.390
 8893WAT     H126921   5.169   2.941   9.317
 8893WAT     H226922   5.099   2.798   9.356
 8894WAT      O26923   4.193   8.292   3.206
 8894WAT     H126924   4.212   8.277   3.109
 8894WAT     H226925   4.279   8.311   3.254
 8895WAT      O26926   5.230   6.515   4.205
 8895WAT     H126927   5.187   6.605   4.190
 8895WAT     H226928   5.296   6.497   4.132
 8896WAT      O26929   4.640   0.771   2.351
 8896WAT     H126930   4.609   0.679   2.376
 8896WAT     H226931   4.639   0.780   2.251
 8897WAT      O26932   0.553   3.080   6.532
 8897WAT     H126933   0.540   3.102   6.628
 8897WAT     H226934   0.634   3.023   6.521
 8898WAT      O26935   5.977   2.722   9.596
 8898WAT     H126936   5.918   2.661   9.648
 8898WAT     H226937   6.041   2.668   9.541
 8899WAT      O26938   2.808   3.800   8.795
 8899WAT     H126939   2.888   3.833   8.845
 8899WAT     H226940   2.732   3.865   8.806
 8900WAT      O26941   7.206   5.815   5.551
 8900WAT     H126942   7.298   5.836   5.583
 8900WAT     H226943   7.211   5.770   5.462
 8901WAT      O26944   3.216   1.660   0.522
 8901WAT     H126945   3.244   1.634   0.430
 8901WAT     H226946   3.202   1.578   0.578
 8902WAT      O26947   2.228   7.509   2.225
 8902WAT     H126948   2.197   7.482   2.316
 8902WAT     H226949   2.325   7.487   2.214
 8903WAT      O26950   8.270   2.182   3.474
 8903WAT     H126951   8.200   2.159   3.407
 8903WAT     H226952   8.228   2.203   3.562
 8904WAT      O26953   2.805   4.731   1.767
 8904WAT     H126954   2.741   4.787   1.714
 8904WAT     H226955   2.898   4.762   1.751
 8905WAT      O26956   4.409   0.126   7.264
 8905WAT     H126957   4.463   0.116   7.347
 8905WAT     H226958   4.464   0.095   7.185
 8906WAT      O26959   9.597   3.709   7.107
 8906WAT     H126960   9.647   3.743   7.187
 8906WAT     H226961   9.558   3.786   7.057
 8907WAT      O26962   0.644   2.601   6.435
 8907WAT     H126963   0.735   2.561   6.442
 8907WAT     H226964   0.578   2.541   6.480
 8908WAT      O26965   0.268   4.816   6.173
 8908WAT     H126966   0.360   4.822   6.134
 8908WAT     H226967   0.274   4.829   6.272
 8909WAT      O26968   4.439   7.300   1.247
 8909WAT     H126969   4.408   7.205   1.250
 8909WAT     H226970   4.391   7.347   1.172
 8910WAT      O26971   9.538   8.569   8.200
 8910WAT     H126972   9.481   8.649   8.219
 8910WAT     H226973   9.479   8.487   8.196
 8911WAT      O26974   5.795   7.557   0.570
 8911WAT     H126975   5.777   7.458   0.577
 8911WAT     H226976   5.879   7.579   0.619
 8912WAT      O26977   6.350   4.533   4.372
 8912WAT     H126978   6.362   4.543   4.274
 8912WAT     H226979   6.423   4.477   4.410
 8913WAT      O26980   7.551   6.559   6.758
 8913WAT     H126981   7.582   6.654   6.766
 8913WAT     H226982   7.451   6.556   6.761
 8914WAT      O26983   2.098   8.021   9.683
 8914WAT     H126984   2.080   8.079   9.603
 8914WAT     H226985   2.013   8.008   9.734
 8915WAT      O26986   7.369   9.732   6.438
 8915WAT     H126987   7.451   9.677   6.426
 8915WAT     H226988   7.349   9.742   6.536
 8916WAT      O26989   5.295   7.556   7.596
 8916WAT     H126990   5.197   7.564   7.609
 8916WAT     H226991   5.332   7.486   7.658
 8917WAT      O26992   5.728   6.701   8.085
 8917WAT     H126993   5.738   6.795   8.117
 8917WAT     H226994   5.814   6.671   8.044
 8918WAT      O26995   1.677   6.802   2.381
 8918WAT     H126996   1.716   6.765   2.297
 8918WAT     H226997   1.591   6.848   2.360
 8919WAT      O26998   1.612   7.942   1.966
 8919WAT     H126999   1.638   7.868   1.904
 8919WAT     H227000   1.552   7.906   2.038
 8920WAT      O27001   1.678   4.265   7.261
 8920WAT     H127002   1.721   4.295   7.346
 8920WAT     H227003   1.746   4.220   7.203
 8921WAT      O27004   1.443   3.870   6.315
 8921WAT     H127005   1.468   3.778   6.346
 8921WAT     H227006   1.518   3.933   6.335
 8922WAT      O27007   0.615   0.687   5.559
 8922WAT     H127008   0.532   0.739   5.541
 8922WAT     H227009   0.675   0.691   5.479
 8923WAT      O27010   6.234   2.363   1.947
 8923WAT     H127011   6.189   2.275   1.964
 8923WAT     H227012   6.292   2.386   2.025
 8924WAT      O27013   9.726   8.168   0.664
 8924WAT     H127014   9.760   8.200   0.753
 8924WAT     H227015   9.795   8.108   0.622
 8925WAT      O27016   3.357   8.668   9.124
 8925WAT     H127017   3.370   8.704   9.216
 8925WAT     H227018   3.443   8.627   9.092
 8926WAT      O27019   5.697   5.777   0.445
 8926WAT     H127020   5.640   5.793   0.525
 8926WAT     H227021   5.741   5.687   0.453
 8927WAT      O27022   4.228   2.194   3.779
 8927WAT     H127023   4.184   2.281   3.758
 8927WAT     H227024   4.161   2.120   3.771
 8928WAT      O27025   0.654   8.353   1.143
 8928WAT     H127026   0.666   8.289   1.220
 8928WAT     H227027   0.736   8.353   1.087
 8929WAT      O27028   5.391   3.307   0.118
 8929WAT     H127029   5.294   3.330   0.110
 8929WAT     H227030   5.429   3.350   0.200
 8930WAT      O27031   7.757   1.856   3.253
 8930WAT     H127032   7.706   1.929   3.298
 8930WAT     H227033   7.713   1.768   3.271
 8931WAT      O27034   7.438   7.026   3.372
 8931WAT     H127035   7.433   7.060   3.466
 8931WAT     H227036   7.531   7.038   3.337
 8932WAT      O27037   2.389   2.724   2.193
 8932WAT     H127038   2.336   2.738   2.277
 8932WAT     H227039   2.451   2.647   2.205
 8933WAT      O27040   9.179   2.086   0.279
 8933WAT     H127041   9.214   1.992   0.271
 8933WAT     H227042   9.182   2.131   0.190
 8934WAT      O27043   3.751   0.215   9.620
 8934WAT     H127044   3.727   0.144   9.553
 8934WAT     H227045   3.839   0.256   9.594
 8935WAT      O27046   3.088   9.742   1.297
 8935WAT     H127047   3.092   9.723   1.199
 8935WAT     H227048   3.014   9.690   1.339
 8936WAT      O27049   1.113   4.951   0.716
 8936WAT     H127050   1.049   4.986   0.785
 8936WAT     H227051   1.105   4.851   0.711
 8937WAT      O27052   3.400   4.023   7.206
 8937WAT     H127053   3.458   4.016   7.287
 8937WAT     H227054   3.394   4.119   7.178
 8938WAT      O27055   5.198   5.845   1.944
 8938WAT     H127056   5.259   5.879   1.872
 8938WAT     H227057   5.251   5.827   2.026
 8939WAT      O27058   8.520   3.108   2.248
 8939WAT     H127059   8.570   3.193   2.260
 8939WAT     H227060   8.581   3.031   2.268
 8940WAT      O27061   2.539   0.003   1.962
 8940WAT     H127062   2.607   0.056   2.013
 8940WAT     H227063   2.584  -0.047   1.888
 8941WAT      O27064   6.187   7.766   9.207
 8941WAT     H127065   6.169   7.831   9.134
 8941WAT     H227066   6.143   7.679   9.186
 8942WAT      O27067   9.810   3.260   6.828
 8942WAT     H127068   9.809   3.358   6.810
 8942WAT     H227069   9.780   3.243   6.922
 8943WAT      O27070   6.586   2.572   2.206
 8943WAT     H127071   6.670   2.519   2.219
 8943WAT     H227072   6.585   2.610   2.114
 8944WAT      O27073   3.762   2.858   4.571
 8944WAT     H127074   3.726   2.913   4.495
 8944WAT     H227075   3.766   2.762   4.542
 8945WAT      O27076   3.058   8.106   8.347
 8945WAT     H127077   3.107   8.141   8.267
 8945WAT     H227078   3.122   8.053   8.404
 8946WAT      O27079   8.800   4.143   2.869
 8946WAT     H127080   8.810   4.165   2.966
 8946WAT     H227081   8.888   4.114   2.832
 8947WAT      O27082   3.812   2.694   5.778
 8947WAT     H127083   3.850   2.786   5.792
 8947WAT     H227084   3.798   2.679   5.680
 8948WAT      O27085   7.920   1.821   5.362
 8948WAT     H127086   7.864   1.821   5.280
 8948WAT     H227087   7.987   1.895   5.356
 8949WAT      O27088   5.547   3.579   2.150
 8949WAT     H127089   5.641   3.605   2.130
 8949WAT     H227090   5.485   3.654   2.128
 8950WAT      O27091   9.348   6.480   7.578
 8950WAT     H127092   9.346   6.380   7.572
 8950WAT     H227093   9.256   6.514   7.596
 8951WAT      O27094   2.912   1.538   7.308
 8951WAT     H127095   2.864   1.598   7.244
 8951WAT     H227096   3.010   1.544   7.292
 8952WAT      O27097   4.615   7.865   2.244
 8952WAT     H127098   4.612   7.877   2.343
 8952WAT     H227099   4.639   7.771   2.223
 8953WAT      O27100   2.801   2.409   2.597
 8953WAT     H127101   2.872   2.352   2.556
 8953WAT     H227102   2.792   2.494   2.546
 8954WAT      O27103   1.874   1.852   2.482
 8954WAT     H127104   1.930   1.908   2.543
 8954WAT     H227105   1.819   1.912   2.423
 8955WAT      O27106   0.244   7.051   2.130
 8955WAT     H127107   0.337   7.016   2.126
 8955WAT     H227108   0.221   7.075   2.224
 8956WAT      O27109   3.470   9.646   9.199
 8956WAT     H127110   3.499   9.555   9.168
 8956WAT     H227111   3.463   9.647   9.298
 8957WAT      O27112   7.114   8.033   5.812
 8957WAT     H127113   7.057   8.036   5.894
 8957WAT     H227114   7.060   8.061   5.733
 8958WAT      O27115   2.962   1.272   9.027
 8958WAT     H127116   2.956   1.179   9.065
 8958WAT     H227117   3.003   1.333   9.095
 8959WAT      O27118   0.886   3.591   4.192
 8959WAT     H127119   0.833   3.517   4.152
 8959WAT     H227120   0.825   3.666   4.219
 8960WAT      O27121   2.754   3.926   6.462
 8960WAT     H127122   2.723   3.944   6.369
 8960WAT     H227123   2.778   3.830   6.472
 8961WAT      O27124   5.632   6.588   7.555
 8961WAT     H127125   5.642   6.571   7.653
 8961WAT     H227126   5.656   6.683   7.535
 8962WAT      O27127   3.447   4.088   2.820
 8962WAT     H127128   3.406   4.032   2.747
 8962WAT     H227129   3.472   4.177   2.784
 8963WAT      O27130   4.786   2.685   3.547
 8963WAT     H127131   4.818   2.765   3.496
 8963WAT     H227132   4.704   2.649   3.504
 8964WAT      O27133   4.392   1.881   6.683
 8964WAT     H127134   4.390   1.976   6.713
 8964WAT     H227135   4.340   1.871   6.598
 8965WAT      O27136   6.168   3.865   1.510
 8965WAT     H127137   6.102   3.804   1.468
 8965WAT     H227138   6.182   3.840   1.605
 8966WAT      O27139   4.767   8.077   5.797
 8966WAT     H127140   4.826   8.149   5.834
 8966WAT     H227141   4.807   7.987   5.819
 8967WAT      O27142   2.187   5.765   2.164
 8967WAT     H127143   2.254   5.837   2.182
 8967WAT     H227144   2.122   5.796   2.095
 8968WAT      O27145   5.087   0.540   4.822
 8968WAT     H127146   5.028   0.475   4.870
 8968WAT     H227147   5.165   0.491   4.783
 8969WAT      O27148   6.112   9.004   5.403
 8969WAT     H127149   6.137   8.944   5.480
 8969WAT     H227150   6.180   8.995   5.331
 8970WAT      O27151   0.254   8.956   0.900
 8970WAT     H127152   0.208   9.034   0.857
 8970WAT     H227153   0.195   8.918   0.971
 8971WAT      O27154   5.558   9.561   2.065
 8971WAT     H127155   5.636   9.617   2.039
 8971WAT     H227156   5.541   9.492   1.995
 8972WAT      O27157   8.443   0.862   0.264
 8972WAT     H127158   8.452   0.834   0.168
 8972WAT     H227159   8.526   0.909   0.293
 8973WAT      O27160   0.288   0.308   2.714
 8973WAT     H127161   0.367   0.285   2.656
 8973WAT     H227162   0.315   0.302   2.811
 8974WAT      O27163   2.186   0.095   1.490
 8974WAT     H127164   2.266   0.093   1.430
 8974WAT     H227165   2.197   0.169   1.556
 8975WAT      O27166   8.219   3.131   9.105
 8975WAT     H127167   8.306   3.082   9.094
 8975WAT     H227168   8.183   3.156   9.015
 8976WAT      O27169   1.754   0.109   0.908
 8976WAT     H127170   1.824   0.113   0.836
 8976WAT     H227171   1.691   0.186   0.896
 8977WAT      O27172   6.410   2.461   6.042
 8977WAT     H127173   6.447   2.472   5.950
 8977WAT     H227174   6.423   2.546   6.094
 8978WAT      O27175   4.820   5.456   2.892
 8978WAT     H127176   4.836   5.555   2.897
 8978WAT     H227177   4.723   5.438   2.875
 8979WAT      O27178   8.027   8.395   6.135
 8979WAT     H127179   7.945   8.349   6.101
 8979WAT     H227180   8.030   8.488   6.100
 8980WAT      O27181   5.152   7.103   2.516
 8980WAT     H127182   5.091   7.039   2.562
 8980WAT     H227183   5.193   7.165   2.583
 8981WAT      O27184   1.882   1.798   1.789
 8981WAT     H127185   1.894   1.896   1.804
 8981WAT     H227186   1.794   1.769   1.827
 8982WAT      O27187   9.090   0.451   8.269
 8982WAT     H127188   9.003   0.500   8.258
 8982WAT     H227189   9.091   0.372   8.208
 8983WAT      O27190   1.174   4.954   3.115
 8983WAT     H127191   1.232   4.965   3.196
 8983WAT     H227192   1.226   4.910   3.042
 8984WAT      O27193   4.369   7.594   0.194
 8984WAT     H127194   4.312   7.599   0.276
 8984WAT     H227195   4.313   7.565   0.116
 8985WAT      O27196   3.414   5.335   6.654
 8985WAT     H127197   3.379   5.253   6.699
 8985WAT     H227198   3.513   5.329   6.644
 8986WAT      O27199   8.565   9.781   7.175
 8986WAT     H127200   8.510   9.833   7.110
 8986WAT     H227201   8.662   9.793   7.155
 8987WAT      O27202   6.741   0.287   9.451
 8987WAT     H127203   6.723   0.375   9.494
 8987WAT     H227204   6.827   0.292   9.400
 8988WAT      O27205   5.284   2.732   8.279
 8988WAT     H127206   5.319   2.639   8.289
 8988WAT     H227207   5.275   2.773   8.370
 8989WAT      O27208   7.156   7.524   9.875
 8989WAT     H127209   7.185   7.620   9.868
 8989WAT     H227210   7.056   7.521   9.886
 8990WAT      O27211   8.193   8.775   2.573
 8990WAT     H127212   8.148   8.763   2.484
 8990WAT     H227213   8.124   8.794   2.643
 8991WAT      O27214   7.622   3.886   7.965
 8991WAT     H127215   7.714   3.920   7.945
 8991WAT     H227216   7.624   3.833   8.050
 8992WAT      O27217   3.332   6.611   2.867
 8992WAT     H127218   3.403   6.677   2.889
 8992WAT     H227219   3.358   6.521   2.902
 8993WAT      O27220   8.298   6.564   2.056
 8993WAT     H127221   8.364   6.543   2.128
 8993WAT     H227222   8.276   6.662   2.057
 8994WAT      O27223   4.110   8.461   5.764
 8994WAT     H127224   4.067   8.509   5.688
 8994WAT     H227225   4.206   8.489   5.771
 8995WAT      O27226   7.040   2.081   1.352
 8995WAT     H127227   7.120   2.128   1.389
 8995WAT     H227228   7.010   2.010   1.416
 8996WAT      O27229   9.795   5.954   7.554
 8996WAT     H127230   9.787   6.053   7.540
 8996WAT     H227231   9.857   5.936   7.630
 8997WAT      O27232   8.804   4.226   6.582
 8997WAT     H127233   8.728   4.206   6.644
 8997WAT     H227234   8.820   4.325   6.579
 8998WAT      O27235   1.489   6.948   4.868
 8998WAT     H127236   1.436   6.974   4.787
 8998WAT     H227237   1.441   6.874   4.916
 8999WAT      O27238   3.392   1.961   0.243
 8999WAT     H127239   3.388   1.940   0.341
 8999WAT     H227240   3.486   1.952   0.210
 9000WAT      O27241   1.042   5.289   2.368
 9000WAT     H127242   1.136   5.254   2.361
 9000WAT     H227243   1.007   5.309   2.277
 9001WAT      O27244   8.560   7.228   2.351
 9001WAT     H127245   8.611   7.304   2.311
 9001WAT     H227246   8.466   7.228   2.315
 9002WAT      O27247   5.908   2.654   6.320
 9002WAT     H127248   5.808   2.647   6.311
 9002WAT     H227249   5.951   2.643   6.230
 9003WAT      O27250   6.573   2.996   0.934
 9003WAT     H127251   6.517   2.975   1.015
 9003WAT     H227252   6.523   3.059   0.875
 9004WAT      O27253   4.478   7.863   4.263
 9004WAT     H127254   4.443   7.877   4.170
 9004WAT     H227255   4.508   7.950   4.301
 9005WAT      O27256   9.889   4.698   7.979
 9005WAT     H127257   9.819   4.738   8.038
 9005WAT     H227258   9.927   4.769   7.920
 9006WAT      O27259   6.645   4.610   8.490
 9006WAT     H127260   6.605   4.675   8.426
 9006WAT     H227261   6.734   4.644   8.521
 9007WAT      O27262   4.728   8.092   5.432
 9007WAT     H127263   4.819   8.070   5.466
 9007WAT     H227264   4.660   8.040   5.484
 9008WAT      O27265   6.849   2.239   7.741
 9008WAT     H127266   6.865   2.255   7.838
 9008WAT     H227267   6.801   2.152   7.729
 9009WAT      O27268   8.186   2.130   8.186
 9009WAT     H127269   8.164   2.211   8.241
 9009WAT     H227270   8.238   2.065   8.242
 9010WAT      O27271   8.996   0.514   0.294
 9010WAT     H127272   9.056   0.438   0.271
 9010WAT     H227273   8.962   0.504   0.387
 9011WAT      O27274   3.079   6.584   2.976
 9011WAT     H127275   3.172   6.598   2.941
 9011WAT     H227276   3.029   6.526   2.913
 9012WAT      O27277   3.230   4.309   5.010
 9012WAT     H127278   3.186   4.226   5.045
 9012WAT     H227279   3.186   4.335   4.924
 9013WAT      O27280   0.904   9.433   5.757
 9013WAT     H127281   0.857   9.465   5.675
 9013WAT     H227282   1.002   9.426   5.738
 9014WAT      O27283   2.983   4.641   2.404
 9014WAT     H127284   3.066   4.687   2.435
 9014WAT     H227285   2.986   4.545   2.433
 9015WAT      O27286   1.879   7.997   3.068
 9015WAT     H127287   1.852   7.911   3.024
 9015WAT     H227288   1.808   8.066   3.053
 9016WAT      O27289   7.137   0.352   5.574
 9016WAT     H127290   7.112   0.268   5.623
 9016WAT     H227291   7.208   0.400   5.625
 9017WAT      O27292   9.574   4.838   3.852
 9017WAT     H127293   9.516   4.757   3.864
 9017WAT     H227294   9.616   4.835   3.761
 9018WAT      O27295   0.513   8.491   8.832
 9018WAT     H127296   0.489   8.399   8.864
 9018WAT     H227297   0.438   8.554   8.853
 9019WAT      O27298   2.886   2.005   3.432
 9019WAT     H127299   2.893   1.913   3.471
 9019WAT     H227300   2.955   2.016   3.361
 9020WAT      O27301   1.875   7.981   8.472
 9020WAT     H127302   1.898   7.922   8.394
 9020WAT     H227303   1.854   7.925   8.552
 9021WAT      O27304   5.836   6.282   8.698
 9021WAT     H127305   5.895   6.243   8.768
 9021WAT     H227306   5.874   6.262   8.607
 9022WAT      O27307   4.993   9.452   7.082
 9022WAT     H127308   4.990   9.367   7.134
 9022WAT     H227309   5.063   9.446   7.011
 9023WAT      O27310   4.403   6.727   4.591
 9023WAT     H127311   4.313   6.701   4.628
 9023WAT     H227312   4.466   6.741   4.667
 9024WAT      O27313   1.304   5.482   2.856
 9024WAT     H127314   1.210   5.481   2.892
 9024WAT     H227315   1.350   5.397   2.883
 9025WAT      O27316   5.571   3.801   1.362
 9025WAT     H127317   5.577   3.899   1.347
 9025WAT     H227318   5.597   3.753   1.279
 9026WAT      O27319   0.209   0.078   5.264
 9026WAT     H127320   0.184   0.089   5.361
 9026WAT     H227321   0.270   0.152   5.237
 9027WAT      O27322   3.796   2.614   4.052
 9027WAT     H127323   3.867   2.548   4.029
 9027WAT     H227324   3.824   2.668   4.131
 9028WAT      O27325   2.122   3.890   9.403
 9028WAT     H127326   2.120   3.974   9.456
 9028WAT     H227327   2.214   3.850   9.407
 9029WAT      O27328   6.439   1.850   6.477
 9029WAT     H127329   6.346   1.830   6.448
 9029WAT     H227330   6.438   1.932   6.534
 9030WAT      O27331   5.680   1.190   7.253
 9030WAT     H127332   5.765   1.237   7.229
 9030WAT     H227333   5.622   1.183   7.172
 9031WAT      O27334   7.301   5.884   9.683
 9031WAT     H127335   7.236   5.903   9.757
 9031WAT     H227336   7.376   5.951   9.687
 9032WAT      O27337   3.548   2.565   1.132
 9032WAT     H127338   3.627   2.513   1.099
 9032WAT     H227339   3.482   2.576   1.058
 9033WAT      O27340   6.525   3.556   6.252
 9033WAT     H127341   6.529   3.485   6.183
 9033WAT     H227342   6.618   3.575   6.285
 9034WAT      O27343   9.087   6.347   9.006
 9034WAT     H127344   9.055   6.293   9.083
 9034WAT     H227345   9.163   6.299   8.961
 9035WAT      O27346   3.737   6.434   6.868
 9035WAT     H127347   3.834   6.433   6.846
 9035WAT     H227348   3.725   6.460   6.964
 9036WAT      O27349   3.787   0.955   7.511
 9036WAT     H127350   3.810   1.052   7.505
 9036WAT     H227351   3.859   0.901   7.468
 9037WAT      O27352   2.744   3.473   9.580
 9037WAT     H127353   2.659   3.477   9.632
 9037WAT     H227354   2.725   3.450   9.485
 9038WAT      O27355   7.924   7.449   4.900
 9038WAT     H127356   7.865   7.506   4.957
 9038WAT     H227357   8.016   7.448   4.939
 9039WAT      O27358   7.438   9.242   3.076
 9039WAT     H127359   7.370   9.168   3.078
 9039WAT     H227360   7.529   9.204   3.059
 9040WAT      O27361   6.418   9.465   7.881
 9040WAT     H127362   6.369   9.545   7.849
 9040WAT     H227363   6.479   9.431   7.809
 9041WAT      O27364   7.405   0.345   9.874
 9041WAT     H127365   7.335   0.306   9.813
 9041WAT     H227366   7.477   0.387   9.820
 9042WAT      O27367   0.359   0.817   5.472
 9042WAT     H127368   0.295   0.893   5.470
 9042WAT     H227369   0.309   0.731   5.484
 9043WAT      O27370   7.249   5.195   9.058
 9043WAT     H127371   7.149   5.192   9.058
 9043WAT     H227372   7.284   5.174   8.967
 9044WAT      O27373   9.645   6.679   4.165
 9044WAT     H127374   9.647   6.776   4.141
 9044WAT     H227375   9.739   6.646   4.179
 9045WAT      O27376   9.672   0.496   4.069
 9045WAT     H127377   9.770   0.483   4.082
 9045WAT     H227378   9.626   0.407   4.068
 9046WAT      O27379   1.027   5.550   5.710
 9046WAT     H127380   0.939   5.527   5.751
 9046WAT     H227381   1.091   5.578   5.783
 9047WAT      O27382   1.338   9.449   3.580
 9047WAT     H127383   1.253   9.474   3.533
 9047WAT     H227384   1.412   9.442   3.512
 9048WAT      O27385   0.151   8.336   0.459
 9048WAT     H127386   0.158   8.305   0.554
 9048WAT     H227387   0.112   8.428   0.456
 9049WAT      O27388   6.639   1.070   9.109
 9049WAT     H127389   6.713   1.003   9.105
 9049WAT     H227390   6.551   1.022   9.111
 9050WAT      O27391   1.097   9.412   5.364
 9050WAT     H127392   1.185   9.442   5.400
 9050WAT     H227393   1.064   9.479   5.297
 9051WAT      O27394   1.720   7.615   3.605
 9051WAT     H127395   1.665   7.537   3.576
 9051WAT     H227396   1.747   7.668   3.525
 9052WAT      O27397   6.252   9.326   1.932
 9052WAT     H127398   6.244   9.302   2.029
 9052WAT     H227399   6.238   9.424   1.921
 9053WAT      O27400   4.831   6.585   0.376
 9053WAT     H127401   4.732   6.577   0.364
 9053WAT     H227402   4.850   6.653   0.448
 9054WAT      O27403   7.466   5.229   3.545
 9054WAT     H127404   7.471   5.262   3.451
 9054WAT     H227405   7.420   5.140   3.546
 9055WAT      O27406   0.064   0.560   5.774
 9055WAT     H127407   0.032   0.624   5.844
 9055WAT     H227408  -0.014   0.530   5.718
 9056WAT      O27409   2.144   8.659   6.666
 9056WAT     H127410   2.200   8.721   6.721
 9056WAT     H227411   2.199   8.580   6.639
 9057WAT      O27412   1.850   8.578   8.524
 9057WAT     H127413   1.940   8.619   8.536
 9057WAT     H227414   1.847   8.526   8.439
 9058WAT      O27415   1.292   9.496   6.991
 9058WAT     H127416   1.368   9.456   6.939
 9058WAT     H227417   1.310   9.593   7.005
 9059WAT      O27418   0.244   3.617   9.886
 9059WAT     H127419   0.295   3.549   9.835
 9059WAT     H227420   0.161   3.642   9.836
 9060WAT      O27421   0.926   5.107   9.786
 9060WAT     H127422   0.900   5.120   9.882
 9060WAT     H227423   0.937   5.009   9.768
 9061WAT      O27424   7.837   8.734   3.031
 9061WAT     H127425   7.772   8.715   3.105
 9061WAT     H227426   7.826   8.828   3.000
 9062WAT      O27427   4.557   8.476   8.338
 9062WAT     H127428   4.488   8.544   8.312
 9062WAT     H227429   4.564   8.473   8.438
 9063WAT      O27430   9.569   0.876   1.172
 9063WAT     H127431   9.544   0.871   1.268
 9063WAT     H227432   9.505   0.823   1.117
 9064WAT      O27433   5.316   6.868   8.386
 9064WAT     H127434   5.313   6.955   8.436
 9064WAT     H227435   5.350   6.796   8.447
 9065WAT      O27436   1.899   1.456   1.248
 9065WAT     H127437   1.826   1.476   1.184
 9065WAT     H227438   1.963   1.533   1.252
 9066WAT      O27439   3.009   2.921   6.721
 9066WAT     H127440   3.038   2.867   6.800
 9066WAT     H227441   3.019   2.867   6.637
 9067WAT      O27442   0.294   2.715   2.906
 9067WAT     H127443   0.372   2.656   2.923
 9067WAT     H227444   0.241   2.726   2.990
 9068WAT      O27445   9.258   0.302   6.501
 9068WAT     H127446   9.300   0.340   6.418
 9068WAT     H227447   9.312   0.224   6.533
 9069WAT      O27448   0.022   7.118   9.652
 9069WAT     H127449  -0.008   7.174   9.575
 9069WAT     H227450   0.062   7.177   9.722
 9070WAT      O27451   1.052   3.525   1.100
 9070WAT     H127452   1.118   3.543   1.172
 9070WAT     H227453   0.968   3.578   1.117
 9071WAT      O27454   2.788   2.389   0.723
 9071WAT     H127455   2.732   2.343   0.792
 9071WAT     H227456   2.880   2.403   0.758
 9072WAT      O27457   7.979   6.069   4.955
 9072WAT     H127458   8.022   5.997   4.900
 9072WAT     H227459   7.958   6.147   4.898
 9073WAT      O27460   4.380   5.844   4.804
 9073WAT     H127461   4.388   5.795   4.891
 9073WAT     H227462   4.468   5.842   4.756
 9074WAT      O27463   2.909   9.279   0.456
 9074WAT     H127464   3.006   9.254   0.450
 9074WAT     H227465   2.861   9.247   0.375
 9075WAT      O27466   4.299   5.920   6.606
 9075WAT     H127467   4.315   5.975   6.689
 9075WAT     H227468   4.201   5.923   6.584
 9076WAT      O27469   3.768   8.859   2.294
 9076WAT     H127470   3.687   8.807   2.323
 9076WAT     H227471   3.848   8.826   2.343
 9077WAT      O27472   5.388   5.007   9.510
 9077WAT     H127473   5.465   4.944   9.508
 9077WAT     H227474   5.389   5.058   9.597
 9078WAT      O27475   4.241   8.726   8.497
 9078WAT     H127476   4.150   8.750   8.531
 9078WAT     H227477   4.310   8.779   8.547
 9079WAT      O27478   3.031   3.128   8.411
 9079WAT     H127479   2.966   3.080   8.469
 9079WAT     H227480   3.073   3.202   8.463
 9080WAT      O27481   1.830   9.042   3.174
 9080WAT     H127482   1.926   9.014   3.185
 9080WAT     H227483   1.825   9.142   3.170
 9081WAT      O27484   7.597   0.070   9.617
 9081WAT     H127485   7.589   0.163   9.581
 9081WAT     H227486   7.663   0.069   9.692
 9082WAT      O27487   5.797   7.481   0.139
 9082WAT     H127488   5.771   7.418   0.212
 9082WAT     H227489   5.792   7.575   0.173
 9083WAT      O27490   1.802   4.328   5.801
 9083WAT     H127491   1.709   4.342   5.765
 9083WAT     H227492   1.798   4.275   5.885
 9084WAT      O27493   7.805   4.879   3.795
 9084WAT     H127494   7.852   4.799   3.758
 9084WAT     H227495   7.853   4.911   3.877
 9085WAT      O27496   1.790   5.382   9.616
 9085WAT     H127497   1.864   5.338   9.667
 9085WAT     H227498   1.703   5.367   9.663
 9086WAT      O27499   2.419   6.930   6.644
 9086WAT     H127500   2.324   6.907   6.668
 9086WAT     H227501   2.460   6.982   6.719
 9087WAT      O27502   2.664   9.342   0.565
 9087WAT     H127503   2.759   9.320   0.540
 9087WAT     H227504   2.605   9.329   0.485
 9088WAT      O27505   2.722   5.381   1.764
 9088WAT     H127506   2.661   5.412   1.690
 9088WAT     H227507   2.693   5.423   1.850
 9089WAT      O27508   6.334   8.871   4.973
 9089WAT     H127509   6.292   8.873   4.882
 9089WAT     H227510   6.394   8.791   4.980
 9090WAT      O27511   0.684   1.913   5.282
 9090WAT     H127512   0.704   1.938   5.187
 9090WAT     H227513   0.586   1.897   5.293
 9091WAT      O27514   4.112   8.225   5.642
 9091WAT     H127515   4.035   8.226   5.578
 9091WAT     H227516   4.103   8.300   5.707
 9092WAT      O27517   7.118   1.081   7.209
 9092WAT     H127518   7.019   1.075   7.222
 9092WAT     H227519   7.164   1.068   7.296
 9093WAT      O27520   4.334   3.861   1.824
 9093WAT     H127521   4.414   3.914   1.798
 9093WAT     H227522   4.270   3.857   1.747
 9094WAT      O27523   3.240   4.556   7.628
 9094WAT     H127524   3.267   4.573   7.533
 9094WAT     H227525   3.156   4.607   7.649
 9095WAT      O27526   2.294   8.155   9.337
 9095WAT     H127527   2.202   8.162   9.376
 9095WAT     H227528   2.321   8.059   9.333
 9096WAT      O27529   0.986   0.983   7.913
 9096WAT     H127530   0.888   0.979   7.931
 9096WAT     H227531   1.017   1.079   7.918
 9097WAT      O27532   4.156   6.822   4.338
 9097WAT     H127533   4.193   6.911   4.364
 9097WAT     H227534   4.207   6.787   4.259
 9098WAT      O27535   8.876   2.784   8.685
 9098WAT     H127536   8.927   2.699   8.697
 9098WAT     H227537   8.882   2.813   8.590
 9099WAT      O27538   7.276   3.156   3.783
 9099WAT     H127539   7.320   3.232   3.831
 9099WAT     H227540   7.177   3.164   3.790
 9100WAT      O27541   4.574   1.696   2.156
 9100WAT     H127542   4.625   1.613   2.176
 9100WAT     H227543   4.637   1.770   2.133
 9101WAT      O27544   3.031   4.242   1.869
 9101WAT     H127545   2.977   4.319   1.835
 9101WAT     H227546   3.038   4.247   1.969
 9102WAT      O27547   6.631   8.335   1.699
 9102WAT     H127548   6.622   8.299   1.792
 9102WAT     H227549   6.573   8.282   1.637
 9103WAT      O27550   3.611   2.607   2.041
 9103WAT     H127551   3.649   2.533   2.097
 9103WAT     H227552   3.685   2.664   2.007
 9104WAT      O27553   7.605   7.420   4.472
 9104WAT     H127554   7.691   7.417   4.422
 9104WAT     H227555   7.613   7.482   4.550
 9105WAT      O27556   3.530   7.440   3.950
 9105WAT     H127557   3.559   7.421   3.856
 9105WAT     H227558   3.536   7.539   3.967
 9106WAT      O27559   6.129   5.146   5.552
 9106WAT     H127560   6.153   5.049   5.556
 9106WAT     H227561   6.176   5.189   5.475
 9107WAT      O27562   2.931   2.584   6.893
 9107WAT     H127563   2.981   2.665   6.924
 9107WAT     H227564   2.948   2.508   6.956
 9108WAT      O27565   7.746   8.194   6.312
 9108WAT     H127566   7.775   8.159   6.223
 9108WAT     H227567   7.726   8.291   6.305
 9109WAT      O27568   3.545   8.449   9.869
 9109WAT     H127569   3.546   8.548   9.851
 9109WAT     H227570   3.492   8.431   9.952
 9110WAT      O27571   3.253   3.811   2.277
 9110WAT     H127572   3.350   3.816   2.255
 9110WAT     H227573   3.201   3.870   2.215
 9111WAT      O27574   7.272   6.264   6.251
 9111WAT     H127575   7.266   6.358   6.215
 9111WAT     H227576   7.274   6.200   6.175
 9112WAT      O27577   3.690   9.096   5.659
 9112WAT     H127578   3.786   9.084   5.636
 9112WAT     H227579   3.634   9.084   5.577
 9113WAT      O27580   9.802   8.818   9.405
 9113WAT     H127581   9.833   8.741   9.461
 9113WAT     H227582   9.728   8.788   9.345
 9114WAT      O27583   4.001   3.246   0.205
 9114WAT     H127584   3.986   3.192   0.288
 9114WAT     H227585   3.940   3.212   0.133
 9115WAT      O27586   1.444   1.181   0.394
 9115WAT     H127587   1.471   1.091   0.362
 9115WAT     H227588   1.413   1.236   0.316
 9116WAT      O27589   3.321   2.139   8.507
 9116WAT     H127590   3.242   2.091   8.546
 9116WAT     H227591   3.289   2.222   8.460
 9117WAT      O27592   6.956   4.440   8.771
 9117WAT     H127593   6.970   4.506   8.845
 9117WAT     H227594   6.989   4.350   8.800
 9118WAT      O27595   2.854   2.443   1.174
 9118WAT     H127596   2.754   2.450   1.180
 9118WAT     H227597   2.891   2.524   1.128
 9119WAT      O27598   1.804   4.138   6.578
 9119WAT     H127599   1.892   4.140   6.627
 9119WAT     H227600   1.811   4.193   6.496
 9120WAT      O27601   5.266   6.794   0.274
 9120WAT     H127602   5.271   6.774   0.177
 9120WAT     H227603   5.198   6.734   0.317
 9121WAT      O27604   9.884   7.332   6.590
 9121WAT     H127605   9.900   7.265   6.662
 9121WAT     H227606   9.901   7.290   6.501
 9122WAT      O27607   2.540   2.370   2.617
 9122WAT     H127608   2.553   2.397   2.712
 9122WAT     H227609   2.629   2.349   2.575
 9123WAT      O27610   9.554   3.448   7.168
 9123WAT     H127611   9.587   3.361   7.131
 9123WAT     H227612   9.550   3.516   7.095
 9124WAT      O27613   3.171   6.461   9.791
 9124WAT     H127614   3.142   6.517   9.714
 9124WAT     H227615   3.093   6.442   9.850
 9125WAT      O27616   2.714   8.429   1.355
 9125WAT     H127617   2.678   8.468   1.439
 9125WAT     H227618   2.647   8.366   1.315
 9126WAT      O27619   1.765   7.468   7.277
 9126WAT     H127620   1.705   7.532   7.324
 9126WAT     H227621   1.770   7.382   7.328
 9127WAT      O27622   5.030   3.919   9.782
 9127WAT     H127623   5.082   3.874   9.855
 9127WAT     H227624   4.994   3.850   9.720
 9128WAT      O27625   7.644   0.918   4.931
 9128WAT     H127626   7.725   0.919   4.990
 9128WAT     H227627   7.671   0.933   4.836
 9129WAT      O27628   4.995   8.136   1.639
 9129WAT     H127629   4.963   8.216   1.588
 9129WAT     H227630   4.916   8.082   1.667
 9130WAT      O27631   6.214   8.039   2.495
 9130WAT     H127632   6.236   8.029   2.592
 9130WAT     H227633   6.209   7.948   2.452
 9131WAT      O27634   2.520   1.889   1.200
 9131WAT     H127635   2.496   1.802   1.159
 9131WAT     H227636   2.437   1.936   1.232
 9132WAT      O27637   5.038   6.783   2.260
 9132WAT     H127638   4.984   6.816   2.338
 9132WAT     H227639   4.980   6.777   2.179
 9133WAT      O27640   7.032   2.300   4.162
 9133WAT     H127641   7.011   2.387   4.116
 9133WAT     H227642   7.070   2.235   4.097
 9134WAT      O27643   6.484   0.941   8.280
 9134WAT     H127644   6.509   0.844   8.278
 9134WAT     H227645   6.418   0.957   8.353
 9135WAT      O27646   8.919   9.804   2.711
 9135WAT     H127647   8.837   9.860   2.696
 9135WAT     H227648   8.892   9.708   2.722
 9136WAT      O27649   8.407   4.640   6.860
 9136WAT     H127650   8.372   4.681   6.945
 9136WAT     H227651   8.359   4.554   6.843
 9137WAT      O27652   9.131   2.345   4.426
 9137WAT     H127653   9.143   2.343   4.526
 9137WAT     H227654   9.152   2.436   4.392
 9138WAT      O27655   0.061   1.342   3.229
 9138WAT     H127656   0.099   1.301   3.147
 9138WAT     H227657   0.113   1.424   3.253
 9139WAT      O27658   7.866   3.631   6.530
 9139WAT     H127659   7.961   3.641   6.500
 9139WAT     H227660   7.804   3.651   6.455
 9140WAT      O27661   7.019   4.567   9.017
 9140WAT     H127662   7.097   4.582   9.077
 9140WAT     H227663   6.951   4.510   9.064
 9141WAT      O27664   3.114   5.765   3.881
 9141WAT     H127665   3.174   5.809   3.814
 9141WAT     H227666   3.029   5.737   3.835
 9142WAT      O27667   3.367   2.522   5.854
 9142WAT     H127668   3.370   2.602   5.795
 9142WAT     H227669   3.458   2.482   5.862
 9143WAT      O27670   4.570   9.609   4.205
 9143WAT     H127671   4.579   9.520   4.249
 9143WAT     H227672   4.533   9.674   4.271
 9144WAT      O27673   0.923   5.096   0.934
 9144WAT     H127674   0.890   5.189   0.951
 9144WAT     H227675   0.850   5.041   0.893
 9145WAT      O27676   2.156   1.615   9.288
 9145WAT     H127677   2.090   1.660   9.228
 9145WAT     H227678   2.112   1.593   9.375
 9146WAT      O27679   8.638   0.805   6.704
 9146WAT     H127680   8.679   0.890   6.736
 9146WAT     H227681   8.710   0.739   6.681
 9147WAT      O27682   8.470   3.715   6.466
 9147WAT     H127683   8.432   3.733   6.556
 9147WAT     H227684   8.477   3.801   6.415
 9148WAT      O27685   8.175   8.023   9.022
 9148WAT     H127686   8.166   7.976   9.109
 9148WAT     H227687   8.149   7.961   8.947
 9149WAT      O27688   3.641   6.223   2.252
 9149WAT     H127689   3.739   6.234   2.271
 9149WAT     H227690   3.592   6.307   2.278
 9150WAT      O27691   5.034   0.264   1.853
 9150WAT     H127692   5.087   0.208   1.917
 9150WAT     H227693   4.951   0.296   1.898
 9151WAT      O27694   3.939   8.790   6.679
 9151WAT     H127695   3.969   8.831   6.765
 9151WAT     H227696   3.971   8.695   6.674
 9152WAT      O27697   8.858   1.397   7.151
 9152WAT     H127698   8.834   1.493   7.135
 9152WAT     H227699   8.951   1.380   7.121
 9153WAT      O27700   8.037   1.904   4.714
 9153WAT     H127701   8.086   1.982   4.753
 9153WAT     H227702   8.042   1.908   4.614
 9154WAT      O27703   1.908   3.432   9.864
 9154WAT     H127704   1.983   3.442   9.930
 9154WAT     H227705   1.889   3.335   9.850
 9155WAT      O27706   8.154   9.577   7.763
 9155WAT     H127707   8.228   9.583   7.830
 9155WAT     H227708   8.081   9.640   7.790
 9156WAT      O27709   3.053   1.961   3.172
 9156WAT     H127710   3.121   1.909   3.225
 9156WAT     H227711   2.993   1.898   3.123
 9157WAT      O27712   5.386   9.520   5.018
 9157WAT     H127713   5.405   9.474   5.104
 9157WAT     H227714   5.463   9.579   4.994
 9158WAT      O27715   9.212   9.216   0.543
 9158WAT     H127716   9.295   9.269   0.526
 9158WAT     H227717   9.136   9.279   0.562
 9159WAT      O27718   1.670   7.594   5.835
 9159WAT     H127719   1.694   7.545   5.918
 9159WAT     H227720   1.729   7.562   5.760
 9160WAT      O27721   3.255   6.512   2.345
 9160WAT     H127722   3.182   6.566   2.303
 9160WAT     H227723   3.250   6.521   2.444
 9161WAT      O27724   9.868   7.609   8.113
 9161WAT     H127725   9.877   7.518   8.152
 9161WAT     H227726   9.913   7.612   8.024
 9162WAT      O27727   1.341   6.796   8.262
 9162WAT     H127728   1.365   6.840   8.176
 9162WAT     H227729   1.355   6.697   8.255
 9163WAT      O27730   4.321   1.422   2.885
 9163WAT     H127731   4.264   1.400   2.806
 9163WAT     H227732   4.375   1.504   2.865
 9164WAT      O27733   8.838   7.866   4.628
 9164WAT     H127734   8.778   7.914   4.692
 9164WAT     H227735   8.826   7.768   4.639
 9165WAT      O27736   6.763   8.302   1.293
 9165WAT     H127737   6.676   8.327   1.335
 9165WAT     H227738   6.801   8.380   1.243
 9166WAT      O27739   5.521   1.382   9.062
 9166WAT     H127740   5.512   1.406   8.966
 9166WAT     H227741   5.445   1.323   9.089
 9167WAT      O27742   5.832   6.961   4.396
 9167WAT     H127743   5.855   7.009   4.481
 9167WAT     H227744   5.882   6.874   4.392
 9168WAT      O27745   4.820   9.539   1.167
 9168WAT     H127746   4.855   9.451   1.132
 9168WAT     H227747   4.893   9.607   1.163
 9169WAT      O27748   6.593   4.270   8.127
 9169WAT     H127749   6.629   4.269   8.221
 9169WAT     H227750   6.530   4.347   8.117
 9170WAT      O27751   2.119   1.479   8.985
 9170WAT     H127752   2.075   1.565   9.010
 9170WAT     H227753   2.189   1.496   8.916
 9171WAT      O27754   3.413   3.749   7.760
 9171WAT     H127755   3.399   3.705   7.849
 9171WAT     H227756   3.483   3.820   7.769
 9172WAT      O27757   8.678   0.054   2.685
 9172WAT     H127758   8.597  -0.003   2.693
 9172WAT     H227759   8.663   0.126   2.617
 9173WAT      O27760   3.487   5.004   9.587
 9173WAT     H127761   3.523   5.070   9.522
 9173WAT     H227762   3.533   4.916   9.575
 9174WAT      O27763   6.173   1.647   2.109
 9174WAT     H127764   6.269   1.674   2.116
 9174WAT     H227765   6.162   1.552   2.139
 9175WAT      O27766   3.756   0.515   0.218
 9175WAT     H127767   3.823   0.588   0.235
 9175WAT     H227768   3.785   0.461   0.138
 9176WAT      O27769   7.533   8.117   3.799
 9176WAT     H127770   7.448   8.066   3.784
 9176WAT     H227771   7.611   8.053   3.795
 9177WAT      O27772   6.770   7.516   0.655
 9177WAT     H127773   6.843   7.460   0.694
 9177WAT     H227774   6.766   7.604   0.702
 9178WAT      O27775   0.533   3.751   9.748
 9178WAT     H127776   0.603   3.689   9.714
 9178WAT     H227777   0.575   3.820   9.807
 9179WAT      O27778   5.081   7.525   1.511
 9179WAT     H127779   5.073   7.426   1.524
 9179WAT     H227780   5.157   7.544   1.448
 9180WAT      O27781   2.320   4.695   0.025
 9180WAT     H127782   2.404   4.646   0.002
 9180WAT     H227783   2.243   4.631   0.023
 9181WAT      O27784   8.539   1.635   5.026
 9181WAT     H127785   8.567   1.639   4.930
 9181WAT     H227786   8.530   1.728   5.061
 9182WAT      O27787   9.149   3.562   4.206
 9182WAT     H127788   9.176   3.468   4.183
 9182WAT     H227789   9.172   3.580   4.302
 9183WAT      O27790   3.363   1.638   5.631
 9183WAT     H127791   3.390   1.703   5.559
 9183WAT     H227792   3.340   1.550   5.589
 9184WAT      O27793   9.717   3.215   3.645
 9184WAT     H127794   9.805   3.256   3.618
 9184WAT     H227795   9.680   3.265   3.723
 9185WAT      O27796   4.309   8.906   2.996
 9185WAT     H127797   4.253   8.883   3.077
 9185WAT     H227798   4.399   8.865   3.006
 9186WAT      O27799   2.536   1.383   8.182
 9186WAT     H127800   2.514   1.298   8.134
 9186WAT     H227801   2.636   1.390   8.193
 9187WAT      O27802   8.912   0.566   7.453
 9187WAT     H127803   8.892   0.536   7.547
 9187WAT     H227804   8.917   0.486   7.393
 9188WAT      O27805   9.301   4.806   7.495
 9188WAT     H127806   9.248   4.738   7.444
 9188WAT     H227807   9.257   4.824   7.582
 9189WAT      O27808   5.625   0.669   5.383
 9189WAT     H127809   5.628   0.752   5.438
 9189WAT     H227810   5.694   0.604   5.416
 9190WAT      O27811   8.463   4.773   7.516
 9190WAT     H127812   8.423   4.720   7.442
 9190WAT     H227813   8.526   4.841   7.479
 9191WAT      O27814   4.825   7.406   7.053
 9191WAT     H127815   4.754   7.368   6.994
 9191WAT     H227816   4.803   7.501   7.074
 9192WAT      O27817   9.635   3.873   8.424
 9192WAT     H127818   9.579   3.864   8.342
 9192WAT     H227819   9.596   3.818   8.497
 9193WAT      O27820   7.307   2.470   8.071
 9193WAT     H127821   7.342   2.493   7.980
 9193WAT     H227822   7.342   2.536   8.137
 9194WAT      O27823   0.793   9.171   1.232
 9194WAT     H127824   0.860   9.126   1.290
 9194WAT     H227825   0.740   9.101   1.183
 9195WAT      O27826   7.503   4.947   1.565
 9195WAT     H127827   7.541   4.857   1.541
 9195WAT     H227828   7.403   4.941   1.566
 9196WAT      O27829   4.479   4.055   9.735
 9196WAT     H127830   4.507   4.127   9.671
 9196WAT     H227831   4.560   4.014   9.777
 9197WAT      O27832   7.860   2.764   0.329
 9197WAT     H127833   7.830   2.689   0.269
 9197WAT     H227834   7.924   2.728   0.397
 9198WAT      O27835   7.157   0.697   5.105
 9198WAT     H127836   7.231   0.733   5.048
 9198WAT     H227837   7.158   0.745   5.194
 9199WAT      O27838   4.194   0.850   4.572
 9199WAT     H127839   4.238   0.939   4.562
 9199WAT     H227840   4.261   0.777   4.560
 9200WAT      O27841   9.155   3.452   0.705
 9200WAT     H127842   9.195   3.425   0.792
 9200WAT     H227843   9.081   3.517   0.721
 9201WAT      O27844   7.002   8.863   1.216
 9201WAT     H127845   6.947   8.886   1.297
 9201WAT     H227846   7.086   8.819   1.244
 9202WAT      O27847   1.618   5.722   2.812
 9202WAT     H127848   1.646   5.707   2.717
 9202WAT     H227849   1.518   5.719   2.817
 9203WAT      O27850   4.424   0.577   0.390
 9203WAT     H127851   4.413   0.487   0.431
 9203WAT     H227852   4.403   0.573   0.293
 9204WAT      O27853   6.388   9.061   2.506
 9204WAT     H127854   6.362   9.035   2.599
 9204WAT     H227855   6.431   9.152   2.508
 9205WAT      O27856   6.547   9.520   8.139
 9205WAT     H127857   6.613   9.464   8.189
 9205WAT     H227858   6.543   9.489   8.044
 9206WAT      O27859   6.622   8.702   1.854
 9206WAT     H127860   6.594   8.797   1.869
 9206WAT     H227861   6.707   8.683   1.905
 9207WAT      O27862   4.540   2.989   3.320
 9207WAT     H127863   4.577   2.912   3.269
 9207WAT     H227864   4.444   3.003   3.295
 9208WAT      O27865   9.135   2.607   3.295
 9208WAT     H127866   9.144   2.693   3.244
 9208WAT     H227867   9.215   2.596   3.355
 9209WAT      O27868   8.879   4.534   5.510
 9209WAT     H127869   8.878   4.449   5.563
 9209WAT     H227870   8.886   4.512   5.412
 9210WAT      O27871   9.835   5.426   6.621
 9210WAT     H127872   9.804   5.332   6.606
 9210WAT     H227873   9.911   5.426   6.686
 9211WAT      O27874   6.381   0.050   2.680
 9211WAT     H127875   6.376   0.072   2.582
 9211WAT     H227876   6.389  -0.049   2.692
 9212WAT      O27877   7.400   1.808   0.985
 9212WAT     H127878   7.395   1.729   0.924
 9212WAT     H227879   7.495   1.839   0.992
 9213WAT      O27880   8.700   9.077   8.271
 9213WAT     H127881   8.722   9.057   8.176
 9213WAT     H227882   8.631   9.012   8.303
 9214WAT      O27883   4.007   4.768   7.478
 9214WAT     H127884   3.912   4.798   7.488
 9214WAT     H227885   4.064   4.816   7.544
 9215WAT      O27886   5.171   3.564   9.520
 9215WAT     H127887   5.241   3.593   9.585
 9215WAT     H227888   5.214   3.541   9.433
 9216WAT      O27889   5.580   8.251   5.236
 9216WAT     H127890   5.563   8.273   5.140
 9216WAT     H227891   5.521   8.175   5.264
 9217WAT      O27892   2.992   6.380   2.739
 9217WAT     H127893   3.090   6.395   2.722
 9217WAT     H227894   2.944   6.372   2.651
 9218WAT      O27895   1.797   4.041   3.158
 9218WAT     H127896   1.842   4.058   3.070
 9218WAT     H227897   1.822   4.113   3.222
 9219WAT      O27898   5.540   2.565   3.255
 9219WAT     H127899   5.566   2.470   3.235
 9219WAT     H227900   5.464   2.592   3.196
 9220WAT      O27901   9.506   4.972   8.256
 9220WAT     H127902   9.568   5.044   8.287
 9220WAT     H227903   9.456   4.935   8.334
 9221WAT      O27904   4.761   0.120   5.351
 9221WAT     H127905   4.733   0.046   5.289
 9221WAT     H227906   4.695   0.126   5.426
 9222WAT      O27907   1.108   4.708   9.394
 9222WAT     H127908   1.165   4.660   9.327
 9222WAT     H227909   1.136   4.804   9.399
 9223WAT      O27910   2.418   7.377   1.274
 9223WAT     H127911   2.363   7.344   1.351
 9223WAT     H227912   2.478   7.451   1.305
 9224WAT      O27913   4.380   0.557   5.886
 9224WAT     H127914   4.321   0.479   5.906
 9224WAT     H227915   4.473   0.538   5.920
 9225WAT      O27916   3.408   6.333   5.733
 9225WAT     H127917   3.358   6.278   5.799
 9225WAT     H227918   3.389   6.430   5.748
 9226WAT      O27919   4.871   5.750   4.566
 9226WAT     H127920   4.797   5.684   4.550
 9226WAT     H227921   4.857   5.794   4.655
 9227WAT      O27922   3.670   4.187   0.467
 9227WAT     H127923   3.665   4.139   0.554
 9227WAT     H227924   3.685   4.285   0.483
 9228WAT      O27925   6.854   9.323   7.446
 9228WAT     H127926   6.850   9.402   7.507
 9228WAT     H227927   6.762   9.299   7.415
 9229WAT      O27928   0.985   5.869   3.418
 9229WAT     H127929   1.057   5.875   3.349
 9229WAT     H227930   0.931   5.952   3.417
 9230WAT      O27931   1.712   5.754   4.241
 9230WAT     H127932   1.803   5.732   4.205
 9230WAT     H227933   1.716   5.760   4.340
 9231WAT      O27934   6.683   2.858   1.586
 9231WAT     H127935   6.737   2.845   1.669
 9231WAT     H227936   6.648   2.770   1.555
 9232WAT      O27937   0.837   7.845   2.794
 9232WAT     H127938   0.848   7.822   2.698
 9232WAT     H227939   0.780   7.775   2.839
 9233WAT      O27940   5.297   3.378   8.476
 9233WAT     H127941   5.382   3.417   8.512
 9233WAT     H227942   5.318   3.302   8.416
 9234WAT      O27943   7.957   4.904   6.435
 9234WAT     H127944   7.999   4.967   6.370
 9234WAT     H227945   7.889   4.847   6.388
 9235WAT      O27946   7.303   9.805   4.220
 9235WAT     H127947   7.274   9.771   4.309
 9235WAT     H227948   7.301   9.905   4.220
 9236WAT      O27949   5.475   8.945   0.883
 9236WAT     H127950   5.402   9.010   0.905
 9236WAT     H227951   5.478   8.873   0.952
 9237WAT      O27952   4.652   0.967   9.718
 9237WAT     H127953   4.677   1.010   9.805
 9237WAT     H227954   4.553   0.965   9.710
 9238WAT      O27955   2.636   3.425   5.513
 9238WAT     H127956   2.703   3.486   5.555
 9238WAT     H227957   2.608   3.461   5.424
 9239WAT      O27958   7.535   2.692   5.202
 9239WAT     H127959   7.482   2.776   5.207
 9239WAT     H227960   7.532   2.646   5.291
 9240WAT      O27961   2.718   1.560   3.288
 9240WAT     H127962   2.673   1.515   3.210
 9240WAT     H227963   2.770   1.639   3.255
 9241WAT      O27964   6.146   7.197   4.374
 9241WAT     H127965   6.231   7.162   4.334
 9241WAT     H227966   6.068   7.160   4.324
 9242WAT      O27967   6.397   2.389   2.163
 9242WAT     H127968   6.437   2.297   2.160
 9242WAT     H227969   6.471   2.457   2.170
 9243WAT      O27970   1.401   8.917   3.216
 9243WAT     H127971   1.382   9.013   3.195
 9243WAT     H227972   1.382   8.861   3.135
 9244WAT      O27973   4.454   9.831   2.305
 9244WAT     H127974   4.382   9.762   2.315
 9244WAT     H227975   4.414   9.916   2.271
 9245WAT      O27976   6.399   3.503   7.522
 9245WAT     H127977   6.321   3.447   7.548
 9245WAT     H227978   6.466   3.447   7.474
 9246WAT      O27979   2.629   0.913   8.970
 9246WAT     H127980   2.663   1.007   8.962
 9246WAT     H227981   2.579   0.904   9.056
 9247WAT      O27982   7.204   3.117   6.703
 9247WAT     H127983   7.170   3.028   6.674
 9247WAT     H227984   7.164   3.142   6.791
 9248WAT      O27985   5.113   0.956   8.188
 9248WAT     H127986   5.054   0.889   8.142
 9248WAT     H227987   5.158   1.013   8.120
 9249WAT      O27988   4.172   0.162   4.886
 9249WAT     H127989   4.126   0.130   4.968
 9249WAT     H227990   4.253   0.106   4.869
 9250WAT      O27991   0.987   8.240   5.212
 9250WAT     H127992   0.998   8.148   5.174
 9250WAT     H227993   0.985   8.234   5.312
 9251WAT      O27994   3.532   9.801   4.510
 9251WAT     H127995   3.511   9.787   4.413
 9251WAT     H227996   3.613   9.859   4.518
 9252WAT      O27997   5.997   0.315   4.268
 9252WAT     H127998   6.024   0.328   4.173
 9252WAT     H227999   6.078   0.318   4.327
 9253WAT      O28000   2.858   1.273   6.944
 9253WAT     H128001   2.955   1.261   6.966
 9253WAT     H228002   2.838   1.227   6.857
 9254WAT      O28003   0.185   5.113   6.448
 9254WAT     H128004   0.214   5.208   6.459
 9254WAT     H228005   0.101   5.110   6.393
 9255WAT      O28006   6.323   6.339   0.678
 9255WAT     H128007   6.290   6.258   0.629
 9255WAT     H228008   6.399   6.380   0.629
 9256WAT      O28009   3.372   0.562   3.294
 9256WAT     H128010   3.451   0.607   3.252
 9256WAT     H228011   3.403   0.482   3.346
 9257WAT      O28012   7.873   5.007   1.613
 9257WAT     H128013   7.855   4.968   1.703
 9257WAT     H228014   7.836   4.945   1.543
 9258WAT      O28015   3.771   8.028   1.534
 9258WAT     H128016   3.849   7.981   1.576
 9258WAT     H228017   3.708   8.057   1.605
 9259WAT      O28018   5.128   5.758   3.475
 9259WAT     H128019   5.031   5.735   3.472
 9259WAT     H228020   5.158   5.784   3.383
 9260WAT      O28021   2.587   8.467   1.578
 9260WAT     H128022   2.660   8.422   1.630
 9260WAT     H228023   2.499   8.448   1.622
 9261WAT      O28024   1.311   1.937   1.710
 9261WAT     H128025   1.411   1.942   1.715
 9261WAT     H228026   1.271   2.022   1.743
 9262WAT      O28027   5.789   6.426   7.172
 9262WAT     H128028   5.726   6.351   7.150
 9262WAT     H228029   5.742   6.513   7.161
 9263WAT      O28030   9.462   0.004   3.434
 9263WAT     H128031   9.458  -0.060   3.357
 9263WAT     H228032   9.549   0.054   3.431
 9264WAT      O28033   5.143   6.411   8.258
 9264WAT     H128034   5.146   6.412   8.358
 9264WAT     H228035   5.052   6.385   8.228
 9265WAT      O28036   1.708   6.231   1.334
 9265WAT     H128037   1.753   6.223   1.245
 9265WAT     H228038   1.727   6.322   1.373
 9266WAT      O28039   5.567   0.649   4.930
 9266WAT     H128040   5.559   0.633   4.831
 9266WAT     H228041   5.476   0.655   4.970
 9267WAT      O28042   8.013   3.695   2.896
 9267WAT     H128043   8.094   3.697   2.954
 9267WAT     H228044   7.934   3.664   2.950
 9268WAT      O28045   4.591   0.992   8.337
 9268WAT     H128046   4.606   0.944   8.423
 9268WAT     H228047   4.515   0.950   8.287
 9269WAT      O28048   4.710   8.755   5.893
 9269WAT     H128049   4.659   8.673   5.922
 9269WAT     H228050   4.655   8.807   5.828
 9270WAT      O28051   0.611   6.821   0.241
 9270WAT     H128052   0.548   6.789   0.170
 9270WAT     H228053   0.562   6.882   0.303
 9271WAT      O28054   0.530   7.056   5.726
 9271WAT     H128055   0.432   7.054   5.705
 9271WAT     H228056   0.542   7.049   5.825
 9272WAT      O28057   8.155   8.540   6.338
 9272WAT     H128058   8.183   8.502   6.426
 9272WAT     H228059   8.115   8.468   6.281
 9273WAT      O28060   4.107   7.753   6.113
 9273WAT     H128061   4.166   7.807   6.174
 9273WAT     H228062   4.074   7.812   6.039
 9274WAT      O28063   4.919   9.657   4.710
 9274WAT     H128064   4.929   9.700   4.800
 9274WAT     H228065   4.835   9.689   4.667
 9275WAT      O28066   1.910   9.763   7.169
 9275WAT     H128067   1.993   9.765   7.225
 9275WAT     H228068   1.915   9.686   7.105
 9276WAT      O28069   6.884   2.661   7.228
 9276WAT     H128070   6.931   2.610   7.300
 9276WAT     H228071   6.946   2.679   7.152
 9277WAT      O28072   7.204   4.164   2.992
 9277WAT     H128073   7.241   4.234   3.053
 9277WAT     H228074   7.278   4.126   2.936
 9278WAT      O28075   0.230   4.960   9.431
 9278WAT     H128076   0.242   4.953   9.530
 9278WAT     H228077   0.179   5.043   9.409
 9279WAT      O28078   3.246   1.802   6.344
 9279WAT     H128079   3.174   1.766   6.404
 9279WAT     H228080   3.309   1.728   6.321
 9280WAT      O28081   8.209   7.427   2.533
 9280WAT     H128082   8.187   7.515   2.575
 9280WAT     H228083   8.230   7.360   2.605
 9281WAT      O28084   7.821   2.130   9.308
 9281WAT     H128085   7.828   2.131   9.208
 9281WAT     H228086   7.885   2.062   9.345
 9282WAT      O28087   4.070   9.096   7.205
 9282WAT     H128088   4.050   9.010   7.252
 9282WAT     H228089   4.025   9.097   7.116
 9283WAT      O28090   1.029   1.281   2.976
 9283WAT     H128091   0.979   1.337   2.910
 9283WAT     H228092   1.038   1.188   2.941
 9284WAT      O28093   1.851   8.310   8.108
 9284WAT     H128094   1.950   8.311   8.126
 9284WAT     H228095   1.833   8.358   8.022
 9285WAT      O28096   5.495   6.775   3.121
 9285WAT     H128097   5.538   6.731   3.043
 9285WAT     H228098   5.472   6.870   3.097
 9286WAT      O28099   9.212   5.979   7.806
 9286WAT     H128100   9.122   5.936   7.804
 9286WAT     H228101   9.269   5.934   7.875
 9287WAT      O28102   5.578   6.812   9.855
 9287WAT     H128103   5.576   6.895   9.912
 9287WAT     H228104   5.572   6.838   9.759
 9288WAT      O28105   0.160   4.515   0.718
 9288WAT     H128106   0.098   4.440   0.743
 9288WAT     H228107   0.112   4.578   0.657
 9289WAT      O28108   0.051   1.901   4.968
 9289WAT     H128109  -0.015   1.921   5.041
 9289WAT     H228110   0.001   1.874   4.885
 9290WAT      O28111   8.505   3.791   2.214
 9290WAT     H128112   8.484   3.810   2.118
 9290WAT     H228113   8.585   3.844   2.242
 9291WAT      O28114   8.186   2.687   5.636
 9291WAT     H128115   8.267   2.656   5.686
 9291WAT     H228116   8.215   2.732   5.552
 9292WAT      O28117   3.349   3.556   4.158
 9292WAT     H128118   3.442   3.567   4.123
 9292WAT     H228119   3.287   3.536   4.081
 9293WAT      O28120   7.706   5.878   6.147
 9293WAT     H128121   7.674   5.973   6.147
 9293WAT     H228122   7.690   5.838   6.237
 9294WAT      O28123   0.812   9.598   0.595
 9294WAT     H128124   0.808   9.503   0.624
 9294WAT     H228125   0.818   9.658   0.675
 9295WAT      O28126   4.894   2.195   2.281
 9295WAT     H128127   4.853   2.111   2.315
 9295WAT     H228128   4.871   2.207   2.184
 9296WAT      O28129   7.027   2.277   5.792
 9296WAT     H128130   6.990   2.369   5.786
 9296WAT     H228131   7.004   2.225   5.710
 9297WAT      O28132   4.778   0.337   6.236
 9297WAT     H128133   4.726   0.300   6.313
 9297WAT     H228134   4.834   0.413   6.268
 9298WAT      O28135   4.088   0.667   8.555
 9298WAT     H128136   4.087   0.575   8.596
 9298WAT     H228137   4.023   0.725   8.602
 9299WAT      O28138   4.808   9.145   4.107
 9299WAT     H128139   4.852   9.233   4.090
 9299WAT     H228140   4.758   9.149   4.194
 9300WAT      O28141   5.034   0.942   5.804
 9300WAT     H128142   4.993   0.969   5.891
 9300WAT     H228143   4.974   0.877   5.757
 9301WAT      O28144   8.755   6.076   5.139
 9301WAT     H128145   8.782   6.126   5.221
 9301WAT     H228146   8.737   6.141   5.065
 9302WAT      O28147   3.458   1.321   1.077
 9302WAT     H128148   3.530   1.261   1.112
 9302WAT     H228149   3.492   1.414   1.070
 9303WAT      O28150   1.659   8.056   2.724
 9303WAT     H128151   1.661   8.153   2.751
 9303WAT     H228152   1.753   8.021   2.718
 9304WAT      O28153   2.539   8.195   1.124
 9304WAT     H128154   2.480   8.269   1.156
 9304WAT     H228155   2.635   8.218   1.144
 9305WAT      O28156   5.818   6.330   6.200
 9305WAT     H128157   5.901   6.375   6.167
 9305WAT     H228158   5.749   6.400   6.220
 9306WAT      O28159   7.990   2.405   3.156
 9306WAT     H128160   8.063   2.448   3.103
 9306WAT     H228161   7.924   2.362   3.094
 9307WAT      O28162   7.230   0.417   2.014
 9307WAT     H128163   7.315   0.468   2.014
 9307WAT     H228164   7.242   0.330   1.967
 9308WAT      O28165   2.358   4.107   4.051
 9308WAT     H128166   2.383   4.145   4.140
 9308WAT     H228167   2.441   4.086   3.999
 9309WAT      O28168   8.998   4.434   8.422
 9309WAT     H128169   9.037   4.345   8.403
 9309WAT     H228170   9.061   4.506   8.391
 9310WAT      O28171   3.095   0.318   2.151
 9310WAT     H128172   3.055   0.322   2.243
 9310WAT     H228173   3.146   0.232   2.141
 9311WAT      O28174   3.393   7.018   2.874
 9311WAT     H128175   3.447   7.072   2.938
 9311WAT     H228176   3.451   6.984   2.801
 9312WAT      O28177   7.398   7.580   3.336
 9312WAT     H128178   7.361   7.660   3.289
 9312WAT     H228179   7.343   7.560   3.417
 9313WAT      O28180   6.765   8.840   5.815
 9313WAT     H128181   6.687   8.863   5.757
 9313WAT     H228182   6.825   8.775   5.768
 9314WAT      O28183   2.628   9.269   2.109
 9314WAT     H128184   2.717   9.280   2.064
 9314WAT     H228185   2.620   9.177   2.146
 9315WAT      O28186   6.036   2.332   7.158
 9315WAT     H128187   6.097   2.404   7.189
 9315WAT     H228188   6.085   2.272   7.094
 9316WAT      O28189   1.068   7.343   5.797
 9316WAT     H128190   1.085   7.302   5.887
 9316WAT     H228191   1.114   7.432   5.792
 9317WAT      O28192   9.130   4.705   7.284
 9317WAT     H128193   9.047   4.666   7.244
 9317WAT     H228194   9.106   4.784   7.340
 9318WAT      O28195   4.330   2.383   1.592
 9318WAT     H128196   4.266   2.454   1.566
 9318WAT     H228197   4.339   2.316   1.518
 9319WAT      O28198   8.479   7.090   7.879
 9319WAT     H128199   8.407   7.118   7.942
 9319WAT     H228200   8.466   6.995   7.852
 9320WAT      O28201   4.445   8.252   4.782
 9320WAT     H128202   4.392   8.291   4.708
 9320WAT     H228203   4.472   8.158   4.758
 9321WAT      O28204   4.248   0.884   1.957
 9321WAT     H128205   4.245   0.958   2.025
 9321WAT     H228206   4.156   0.871   1.919
 9322WAT      O28207   9.879   6.707   3.654
 9322WAT     H128208   9.906   6.775   3.586
 9322WAT     H228209   9.785   6.679   3.638
 9323WAT      O28210   6.636   9.311   8.317
 9323WAT     H128211   6.594   9.370   8.386
 9323WAT     H228212   6.612   9.216   8.336
 9324WAT      O28213   1.192   3.416   3.538
 9324WAT     H128214   1.123   3.378   3.599
 9324WAT     H228215   1.224   3.503   3.575
 9325WAT      O28216   2.287   5.263   0.845
 9325WAT     H128217   2.276   5.295   0.751
 9325WAT     H228218   2.383   5.269   0.871
 9326WAT      O28219   0.510   4.180   6.699
 9326WAT     H128220   0.606   4.194   6.675
 9326WAT     H228221   0.481   4.250   6.763
 9327WAT      O28222   5.842   9.792   3.196
 9327WAT     H128223   5.852   9.702   3.154
 9327WAT     H228224   5.839   9.862   3.124
 9328WAT      O28225   4.964   4.336   8.965
 9328WAT     H128226   4.919   4.391   8.894
 9328WAT     H228227   4.951   4.239   8.945
 9329WAT      O28228   9.249   1.758   3.982
 9329WAT     H128229   9.296   1.686   3.931
 9329WAT     H228230   9.251   1.737   4.080
 9330WAT      O28231   5.642   7.774   9.440
 9330WAT     H128232   5.656   7.737   9.532
 9330WAT     H228233   5.729   7.773   9.390
 9331WAT      O28234   6.200   5.047   0.827
 9331WAT     H128235   6.108   5.045   0.866
 9331WAT     H228236   6.267   5.050   0.901
 9332WAT      O28237   7.786   0.213   7.784
 9332WAT     H128238   7.883   0.215   7.759
 9332WAT     H228239   7.758   0.303   7.815
 9333WAT      O28240   3.420   4.989   2.440
 9333WAT     H128241   3.494   4.925   2.422
 9333WAT     H228242   3.447   5.049   2.516
 9334WAT      O28243   0.213   1.609   0.585
 9334WAT     H128244   0.207   1.589   0.487
 9334WAT     H228245   0.122   1.628   0.620
 9335WAT      O28246   0.434   3.034   7.968
 9335WAT     H128247   0.451   3.124   7.929
 9335WAT     H228248   0.363   3.040   8.039
 9336WAT      O28249   1.837   4.399   5.162
 9336WAT     H128250   1.883   4.435   5.244
 9336WAT     H228251   1.760   4.341   5.190
 9337WAT      O28252   8.583   0.298   1.673
 9337WAT     H128253   8.635   0.353   1.739
 9337WAT     H228254   8.572   0.349   1.588
 9338WAT      O28255   2.284   4.614   4.121
 9338WAT     H128256   2.225   4.618   4.202
 9338WAT     H228257   2.268   4.527   4.074
 9339WAT      O28258   0.364   1.413   7.399
 9339WAT     H128259   0.301   1.487   7.374
 9339WAT     H228260   0.384   1.358   7.319
 9340WAT      O28261   9.738   2.840   9.469
 9340WAT     H128262   9.736   2.765   9.402
 9340WAT     H228263   9.771   2.805   9.557
 9341WAT      O28264   2.612   7.125   1.096
 9341WAT     H128265   2.605   7.053   1.027
 9341WAT     H228266   2.522   7.139   1.138
 9342WAT      O28267   0.247   1.477   6.802
 9342WAT     H128268   0.160   1.431   6.784
 9342WAT     H228269   0.256   1.556   6.740
 9343WAT      O28270   8.326   0.845   7.425
 9343WAT     H128271   8.321   0.938   7.462
 9343WAT     H228272   8.280   0.843   7.336
 9344WAT      O28273   4.431   0.750   6.286
 9344WAT     H128274   4.430   0.650   6.278
 9344WAT     H228275   4.337   0.784   6.282
 9345WAT      O28276   1.162   4.567   9.615
 9345WAT     H128277   1.162   4.601   9.521
 9345WAT     H228278   1.247   4.518   9.633
 9346WAT      O28279   1.401   5.790   9.304
 9346WAT     H128280   1.494   5.778   9.269
 9346WAT     H228281   1.354   5.859   9.250
 9347WAT      O28282   1.991   2.255   5.252
 9347WAT     H128283   2.083   2.251   5.291
 9347WAT     H228284   1.926   2.284   5.322
 9348WAT      O28285   8.999   9.790   0.155
 9348WAT     H128286   9.068   9.788   0.081
 9348WAT     H228287   8.936   9.865   0.140
 9349WAT      O28288   2.831   8.725   7.042
 9349WAT     H128289   2.928   8.730   7.069
 9349WAT     H228290   2.816   8.781   6.961
 9350WAT      O28291   9.182   3.567   7.007
 9350WAT     H128292   9.150   3.514   7.086
 9350WAT     H228293   9.109   3.630   6.978
 9351WAT      O28294   5.381   2.606   6.343
 9351WAT     H128295   5.297   2.640   6.300
 9351WAT     H228296   5.405   2.517   6.304
 9352WAT      O28297   7.236   3.440   1.572
 9352WAT     H128298   7.148   3.449   1.526
 9352WAT     H228299   7.259   3.526   1.619
 9353WAT      O28300   3.114   1.407   2.605
 9353WAT     H128301   3.048   1.447   2.541
 9353WAT     H228302   3.206   1.439   2.583
 9354WAT      O28303   6.575   4.769   2.489
 9354WAT     H128304   6.483   4.777   2.450
 9354WAT     H228305   6.580   4.822   2.574
 9355WAT      O28306   2.250   7.767   3.018
 9355WAT     H128307   2.211   7.851   2.978
 9355WAT     H228308   2.252   7.775   3.117
 9356WAT      O28309   2.823   7.447   3.812
 9356WAT     H128310   2.921   7.431   3.824
 9356WAT     H228311   2.801   7.540   3.840
 9357WAT      O28312   4.640   5.315   6.686
 9357WAT     H128313   4.724   5.334   6.736
 9357WAT     H228314   4.604   5.226   6.714
 9358WAT      O28315   4.606   4.823   2.286
 9358WAT     H128316   4.701   4.829   2.317
 9358WAT     H228317   4.579   4.909   2.243
 9359WAT      O28318   7.426   1.917   2.454
 9359WAT     H128319   7.339   1.966   2.445
 9359WAT     H228320   7.413   1.822   2.427
 9360WAT      O28321   9.297   2.103   7.222
 9360WAT     H128322   9.374   2.167   7.213
 9360WAT     H228323   9.218   2.139   7.172
 9361WAT      O28324   0.340   1.854   8.035
 9361WAT     H128325   0.374   1.942   8.002
 9361WAT     H228326   0.282   1.812   7.966
 9362WAT      O28327   1.104   7.412   7.877
 9362WAT     H128328   1.157   7.423   7.961
 9362WAT     H228329   1.008   7.432   7.895
 9363WAT      O28330   3.142   3.693   6.062
 9363WAT     H128331   3.156   3.650   5.973
 9363WAT     H228332   3.220   3.673   6.121
 9364WAT      O28333   2.725   7.441   4.284
 9364WAT     H128334   2.678   7.518   4.241
 9364WAT     H228335   2.658   7.381   4.327
 9365WAT      O28336   7.136   4.586   2.589
 9365WAT     H128337   7.054   4.553   2.541
 9365WAT     H228338   7.140   4.545   2.680
 9366WAT      O28339   0.689   0.507   2.240
 9366WAT     H128340   0.684   0.409   2.220
 9366WAT     H228341   0.777   0.529   2.282
 9367WAT      O28342   4.947   2.542   7.745
 9367WAT     H128343   5.037   2.578   7.770
 9367WAT     H228344   4.958   2.469   7.678
 9368WAT      O28345   3.082   0.510   0.129
 9368WAT     H128346   3.105   0.540   0.222
 9368WAT     H228347   3.124   0.421   0.112
 9369WAT      O28348   1.384   3.553   9.427
 9369WAT     H128349   1.476   3.541   9.464
 9369WAT     H228350   1.320   3.572   9.501
 9370WAT      O28351   6.191   1.620   5.223
 9370WAT     H128352   6.252   1.690   5.187
 9370WAT     H228353   6.141   1.657   5.302
 9371WAT      O28354   6.572   7.333   4.270
 9371WAT     H128355   6.627   7.308   4.191
 9371WAT     H228356   6.538   7.427   4.259
 9372WAT      O28357   2.467   8.733   8.224
 9372WAT     H128358   2.423   8.666   8.164
 9372WAT     H228359   2.494   8.688   8.309
 9373WAT      O28360   8.801   6.526   0.502
 9373WAT     H128361   8.741   6.466   0.448
 9373WAT     H228362   8.774   6.522   0.598
 9374WAT      O28363   6.073   4.786   4.909
 9374WAT     H128364   6.002   4.837   4.861
 9374WAT     H228365   6.101   4.836   4.990
 9375WAT      O28366   8.875   6.937   6.340
 9375WAT     H128367   8.884   7.031   6.375
 9375WAT     H228368   8.903   6.935   6.244
 9376WAT      O28369   7.146   2.306   5.094
 9376WAT     H128370   7.107   2.351   5.175
 9376WAT     H228371   7.113   2.352   5.012
 9377WAT      O28372   0.214   1.496   6.283
 9377WAT     H128373   0.288   1.553   6.247
 9377WAT     H228374   0.244   1.401   6.285
 9378WAT      O28375   7.066   1.401   3.997
 9378WAT     H128376   7.107   1.310   3.992
 9378WAT     H228377   7.111   1.455   4.068
 9379WAT      O28378   6.187   0.512   5.474
 9379WAT     H128379   6.210   0.563   5.391
 9379WAT     H228380   6.247   0.433   5.482
 9380WAT      O28381   4.566   0.464   7.395
 9380WAT     H128382   4.482   0.491   7.442
 9380WAT     H228383   4.549   0.458   7.297
 9381WAT      O28384   6.338   1.870   9.366
 9381WAT     H128385   6.422   1.900   9.320
 9381WAT     H228386   6.354   1.863   9.464
 9382WAT      O28387   7.868   4.963   0.419
 9382WAT     H128388   7.824   4.874   0.434
 9382WAT     H228389   7.963   4.949   0.391
 9383WAT      O28390   0.870   3.058   8.178
 9383WAT     H128391   0.842   3.136   8.122
 9383WAT     H228392   0.968   3.065   8.197
 9384WAT      O28393   9.170   3.227   0.512
 9384WAT     H128394   9.100   3.213   0.442
 9384WAT     H228395   9.146   3.305   0.569
 9385WAT      O28396   3.959   3.349   9.587
 9385WAT     H128397   3.961   3.296   9.503
 9385WAT     H228398   3.937   3.289   9.664
 9386WAT      O28399   1.052   9.198   1.670
 9386WAT     H128400   1.026   9.143   1.591
 9386WAT     H228401   1.144   9.172   1.700
 9387WAT      O28402   1.637   9.241   7.219
 9387WAT     H128403   1.587   9.274   7.139
 9387WAT     H228404   1.619   9.144   7.232
 9388WAT      O28405   7.571   5.508   6.086
 9388WAT     H128406   7.560   5.511   6.185
 9388WAT     H228407   7.512   5.436   6.048
 9389WAT      O28408   3.715   1.772   9.232
 9389WAT     H128409   3.684   1.780   9.137
 9389WAT     H228410   3.666   1.698   9.277
 9390WAT      O28411   0.687   5.843   9.411
 9390WAT     H128412   0.590   5.817   9.414
 9390WAT     H228413   0.696   5.940   9.433
 9391WAT      O28414   6.777   6.476   2.661
 9391WAT     H128415   6.837   6.537   2.712
 9391WAT     H228416   6.737   6.525   2.583
 9392WAT      O28417   6.531   0.268   8.429
 9392WAT     H128418   6.546   0.283   8.331
 9392WAT     H228419   6.493   0.350   8.470
 9393WAT      O28420   7.242   9.798   2.495
 9393WAT     H128421   7.253   9.706   2.457
 9393WAT     H228422   7.248   9.866   2.421
 9394WAT      O28423   8.904   1.584   0.835
 9394WAT     H128424   8.983   1.636   0.868
 9394WAT     H228425   8.831   1.647   0.809
 9395WAT      O28426   9.673   4.930   3.299
 9395WAT     H128427   9.632   4.901   3.213
 9395WAT     H228428   9.771   4.944   3.286
 9396WAT      O28429   2.449   6.250   4.087
 9396WAT     H128430   2.352   6.248   4.067
 9396WAT     H228431   2.495   6.174   4.041
 9397WAT      O28432   6.336   5.788   8.233
 9397WAT     H128433   6.406   5.724   8.200
 9397WAT     H228434   6.288   5.828   8.156
 9398WAT      O28435   0.780   9.591   3.243
 9398WAT     H128436   0.759   9.566   3.337
 9398WAT     H228437   0.791   9.690   3.236
 9399WAT      O28438   1.426   5.121   9.220
 9399WAT     H128439   1.475   5.037   9.196
 9399WAT     H228440   1.438   5.140   9.317
 9400WAT      O28441   8.948   5.531   6.063
 9400WAT     H128442   8.869   5.558   6.007
 9400WAT     H228443   9.021   5.598   6.050
 9401WAT      O28444   2.321   0.761   9.201
 9401WAT     H128445   2.416   0.789   9.213
 9401WAT     H228446   2.285   0.801   9.117
 9402WAT      O28447   3.286   5.557   9.547
 9402WAT     H128448   3.251   5.650   9.546
 9402WAT     H228449   3.363   5.551   9.611
 9403WAT      O28450   6.995   1.247   8.361
 9403WAT     H128451   6.945   1.243   8.275
 9403WAT     H228452   7.092   1.230   8.344
 9404WAT      O28453   1.732   8.077   8.035
 9404WAT     H128454   1.781   8.017   8.098
 9404WAT     H228455   1.746   8.173   8.062
 9405WAT      O28456   2.200   3.557   1.005
 9405WAT     H128457   2.244   3.646   1.004
 9405WAT     H228458   2.102   3.568   0.991
 9406WAT      O28459   1.826   3.598   3.972
 9406WAT     H128460   1.890   3.630   4.042
 9406WAT     H228461   1.781   3.515   4.003
 9407WAT      O28462   1.745   2.929   3.692
 9407WAT     H128463   1.713   3.022   3.710
 9407WAT     H228464   1.673   2.864   3.714
 9408WAT      O28465   4.075   1.793   2.071
 9408WAT     H128466   4.159   1.812   2.121
 9408WAT     H228467   4.097   1.768   1.976
 9409WAT      O28468   5.405   2.363   0.165
 9409WAT     H128469   5.414   2.338   0.261
 9409WAT     H228470   5.431   2.459   0.153
 9410WAT      O28471   0.497   5.944   8.886
 9410WAT     H128472   0.576   6.003   8.867
 9410WAT     H228473   0.489   5.930   8.984
 9411WAT      O28474   7.218   8.616   1.502
 9411WAT     H128475   7.219   8.652   1.595
 9411WAT     H228476   7.237   8.691   1.438
 9412WAT      O28477   1.895   5.337   7.522
 9412WAT     H128478   1.950   5.256   7.502
 9412WAT     H228479   1.956   5.414   7.541
 9413WAT      O28480   9.156   0.305   0.302
 9413WAT     H128481   9.182   0.250   0.223
 9413WAT     H228482   9.096   0.252   0.362
 9414WAT      O28483   1.465   5.756   3.351
 9414WAT     H128484   1.446   5.792   3.442
 9414WAT     H228485   1.437   5.823   3.282
 9415WAT      O28486   7.301   6.365   0.243
 9415WAT     H128487   7.305   6.310   0.326
 9415WAT     H228488   7.393   6.397   0.219
 9416WAT      O28489   2.027   4.378   1.150
 9416WAT     H128490   2.123   4.363   1.174
 9416WAT     H228491   2.011   4.475   1.135
 9417WAT      O28492   7.913   6.539   0.475
 9417WAT     H128493   7.985   6.557   0.541
 9417WAT     H228494   7.834   6.497   0.521
 9418WAT      O28495   9.057   4.784   1.533
 9418WAT     H128496   9.127   4.792   1.462
 9418WAT     H228497   9.032   4.688   1.545
 9419WAT      O28498   8.471   5.875   5.932
 9419WAT     H128499   8.441   5.902   6.023
 9419WAT     H228500   8.562   5.913   5.914
 9420WAT      O28501   7.517   7.303   5.440
 9420WAT     H128502   7.532   7.297   5.539
 9420WAT     H228503   7.600   7.274   5.393
 9421WAT      O28504   9.230   4.679   8.686
 9421WAT     H128505   9.266   4.739   8.757
 9421WAT     H228506   9.150   4.631   8.720
 9422WAT      O28507   3.840   7.142   5.077
 9422WAT     H128508   3.835   7.058   5.131
 9422WAT     H228509   3.766   7.203   5.104
 9423WAT      O28510   5.375   9.269   9.574
 9423WAT     H128511   5.336   9.270   9.482
 9423WAT     H228512   5.397   9.362   9.603
 9424WAT      O28513   3.435   6.213   4.866
 9424WAT     H128514   3.499   6.256   4.802
 9424WAT     H228515   3.355   6.272   4.876
 9425WAT      O28516   2.608   3.321   6.485
 9425WAT     H128517   2.583   3.225   6.500
 9425WAT     H228518   2.582   3.348   6.392
 9426WAT      O28519   2.829   6.220   7.945
 9426WAT     H128520   2.730   6.226   7.932
 9426WAT     H228521   2.858   6.288   8.012
 9427WAT      O28522   8.959   2.394   5.431
 9427WAT     H128523   8.963   2.465   5.361
 9427WAT     H228524   9.005   2.311   5.398
 9428WAT      O28525   9.091   0.039   4.912
 9428WAT     H128526   9.028   0.110   4.942
 9428WAT     H228527   9.044  -0.022   4.847
 9429WAT      O28528   0.406   6.552   2.966
 9429WAT     H128529   0.467   6.481   2.932
 9429WAT     H228530   0.352   6.515   3.042
 9430WAT      O28531   9.212   8.147   7.041
 9430WAT     H128532   9.268   8.102   7.110
 9430WAT     H228533   9.186   8.081   6.971
 9431WAT      O28534   9.036   8.567   4.210
 9431WAT     H128535   9.126   8.554   4.170
 9431WAT     H228536   9.046   8.590   4.307
 9432WAT      O28537   3.017   8.845   6.407
 9432WAT     H128538   3.067   8.759   6.396
 9432WAT     H228539   2.927   8.838   6.364
 9433WAT      O28540   1.857   8.375   5.189
 9433WAT     H128541   1.941   8.423   5.161
 9433WAT     H228542   1.781   8.439   5.191
 9434WAT      O28543   2.868   5.416   0.889
 9434WAT     H128544   2.862   5.330   0.940
 9434WAT     H228545   2.822   5.405   0.801
 9435WAT      O28546   6.854   4.702   5.509
 9435WAT     H128547   6.803   4.787   5.500
 9435WAT     H228548   6.819   4.634   5.444
 9436WAT      O28549   7.318   3.599   7.918
 9436WAT     H128550   7.284   3.592   7.825
 9436WAT     H228551   7.252   3.648   7.975
 9437WAT      O28552   4.596   2.721   3.197
 9437WAT     H128553   4.666   2.657   3.165
 9437WAT     H228554   4.507   2.692   3.163
 9438WAT      O28555   1.167   4.964   2.249
 9438WAT     H128556   1.189   5.051   2.293
 9438WAT     H228557   1.089   4.977   2.188
 9439WAT      O28558   9.189   9.138   1.122
 9439WAT     H128559   9.275   9.101   1.158
 9439WAT     H228560   9.134   9.172   1.198
 9440WAT      O28561   1.856   8.938   6.261
 9440WAT     H128562   1.765   8.967   6.231
 9440WAT     H228563   1.858   8.839   6.270
 9441WAT      O28564   0.848   8.455   1.400
 9441WAT     H128565   0.782   8.511   1.349
 9441WAT     H228566   0.819   8.359   1.397
 9442WAT      O28567   9.376   1.808   2.691
 9442WAT     H128568   9.344   1.718   2.721
 9442WAT     H228569   9.356   1.819   2.593
 9443WAT      O28570   1.014   1.441   8.758
 9443WAT     H128571   1.072   1.454   8.677
 9443WAT     H228572   1.009   1.527   8.809
 9444WAT      O28573   5.755   4.806   8.075
 9444WAT     H128574   5.752   4.761   7.985
 9444WAT     H228575   5.753   4.736   8.146
 9445WAT      O28576   6.451   4.837   5.443
 9445WAT     H128577   6.532   4.838   5.502
 9445WAT     H228578   6.369   4.838   5.499
 9446WAT      O28579   8.170   0.427   9.427
 9446WAT     H128580   8.183   0.384   9.516
 9446WAT     H228581   8.114   0.509   9.437
 9447WAT      O28582   7.991   1.874   3.511
 9447WAT     H128583   7.912   1.857   3.453
 9447WAT     H228584   8.046   1.947   3.472
 9448WAT      O28585   1.614   3.757   8.352
 9448WAT     H128586   1.605   3.822   8.427
 9448WAT     H228587   1.542   3.688   8.359
 9449WAT      O28588   6.581   6.052   2.042
 9449WAT     H128589   6.584   5.958   2.075
 9449WAT     H228590   6.661   6.069   1.985
 9450WAT      O28591   2.092   4.882   9.084
 9450WAT     H128592   2.118   4.885   8.988
 9450WAT     H228593   1.999   4.919   9.095
 9451WAT      O28594   0.213   6.213   4.463
 9451WAT     H128595   0.232   6.126   4.418
 9451WAT     H228596   0.151   6.267   4.407
 9452WAT      O28597   2.963   7.751   0.083
 9452WAT     H128598   2.919   7.822   0.028
 9452WAT     H228599   3.037   7.792   0.137
 9453WAT      O28600   4.314   6.665   9.568
 9453WAT     H128601   4.329   6.686   9.472
 9453WAT     H228602   4.260   6.738   9.610
 9454WAT      O28603   7.907   5.155   4.593
 9454WAT     H128604   7.891   5.248   4.561
 9454WAT     H228605   7.829   5.125   4.648
 9455WAT      O28606   5.093   8.936   8.264
 9455WAT     H128607   5.085   8.871   8.188
 9455WAT     H228608   5.029   8.912   8.336
 9456WAT      O28609   9.743   0.735   6.646
 9456WAT     H128610   9.781   0.671   6.713
 9456WAT     H228611   9.689   0.805   6.694
 9457WAT      O28612   3.877   7.588   8.177
 9457WAT     H128613   3.797   7.609   8.235
 9457WAT     H228614   3.951   7.555   8.235
 9458WAT      O28615   5.613   0.308   4.758
 9458WAT     H128616   5.542   0.238   4.765
 9458WAT     H228617   5.682   0.293   4.828
 9459WAT      O28618   1.349   5.434   1.013
 9459WAT     H128619   1.327   5.393   1.101
 9459WAT     H228620   1.428   5.386   0.974
 9460WAT      O28621   0.196   6.456   3.169
 9460WAT     H128622   0.098   6.472   3.155
 9460WAT     H228623   0.231   6.522   3.236
 9461WAT      O28624   6.467   9.436   6.852
 9461WAT     H128625   6.533   9.447   6.926
 9461WAT     H228626   6.447   9.525   6.811
 9462WAT      O28627   5.302   1.451   6.682
 9462WAT     H128628   5.336   1.398   6.760
 9462WAT     H228629   5.294   1.547   6.709
 9463WAT      O28630   6.844   3.345   4.041
 9463WAT     H128631   6.866   3.425   4.097
 9463WAT     H228632   6.778   3.288   4.090
 9464WAT      O28633   0.767   5.797   7.658
 9464WAT     H128634   0.851   5.798   7.713
 9464WAT     H228635   0.785   5.838   7.569
 9465WAT      O28636   3.695   9.550   8.603
 9465WAT     H128637   3.690   9.646   8.578
 9465WAT     H228638   3.661   9.538   8.697
 9466WAT      O28639   1.108   9.657   4.431
 9466WAT     H128640   1.048   9.735   4.411
 9466WAT     H228641   1.181   9.652   4.363
 9467WAT      O28642   5.820   5.886   8.587
 9467WAT     H128643   5.730   5.889   8.633
 9467WAT     H228644   5.890   5.917   8.651
 9468WAT      O28645   0.558   4.187   9.822
 9468WAT     H128646   0.483   4.157   9.763
 9468WAT     H228647   0.606   4.107   9.857
 9469WAT      O28648   7.720   7.185   8.301
 9469WAT     H128649   7.666   7.123   8.359
 9469WAT     H228650   7.733   7.272   8.348
 9470WAT      O28651   8.973   8.765   0.819
 9470WAT     H128652   9.020   8.851   0.842
 9470WAT     H228653   8.913   8.780   0.741
 9471WAT      O28654   3.368   7.476   4.279
 9471WAT     H128655   3.329   7.559   4.240
 9471WAT     H228656   3.418   7.427   4.207
 9472WAT      O28657   3.831   3.112   5.181
 9472WAT     H128658   3.867   3.028   5.222
 9472WAT     H228659   3.731   3.111   5.186
 9473WAT      O28660   7.481   9.748   9.143
 9473WAT     H128661   7.535   9.685   9.087
 9473WAT     H228662   7.467   9.834   9.093
 9474WAT      O28663   7.919   2.120   4.232
 9474WAT     H128664   7.891   2.025   4.218
 9474WAT     H228665   7.851   2.166   4.289
 9475WAT      O28666   4.066   2.511   1.530
 9475WAT     H128667   4.042   2.608   1.533
 9475WAT     H228668   3.997   2.458   1.579
 9476WAT      O28669   1.021   6.632   5.739
 9476WAT     H128670   0.984   6.577   5.665
 9476WAT     H228671   1.013   6.729   5.716
 9477WAT      O28672   1.865   4.169   7.072
 9477WAT     H128673   1.937   4.111   7.109
 9477WAT     H228674   1.893   4.265   7.077
 9478WAT      O28675   4.252   4.433   1.445
 9478WAT     H128676   4.169   4.435   1.389
 9478WAT     H228677   4.331   4.417   1.385
 9479WAT      O28678   8.016   9.848   2.811
 9479WAT     H128679   8.115   9.836   2.804
 9479WAT     H228680   7.970   9.767   2.773
 9480WAT      O28681   0.791   6.779   7.985
 9480WAT     H128682   0.763   6.805   7.893
 9480WAT     H228683   0.885   6.809   8.000
 9481WAT      O28684   7.821   0.418   0.708
 9481WAT     H128685   7.904   0.443   0.658
 9481WAT     H228686   7.805   0.484   0.781
 9482WAT      O28687   0.046   4.671   6.176
 9482WAT     H128688  -0.004   4.752   6.146
 9482WAT     H228689   0.144   4.690   6.177
 9483WAT      O28690   6.921   7.856   2.234
 9483WAT     H128691   6.877   7.943   2.253
 9483WAT     H228692   7.017   7.871   2.210
 9484WAT      O28693   4.004   3.440   7.445
 9484WAT     H128694   4.011   3.457   7.543
 9484WAT     H228695   4.018   3.343   7.426
 9485WAT      O28696   7.059   5.455   0.259
 9485WAT     H128697   7.062   5.553   0.274
 9485WAT     H228698   6.983   5.416   0.312
 9486WAT      O28699   8.687   3.148   6.267
 9486WAT     H128700   8.753   3.216   6.299
 9486WAT     H228701   8.709   3.121   6.173
 9487WAT      O28702   6.837   0.962   6.219
 9487WAT     H128703   6.836   0.862   6.218
 9487WAT     H228704   6.925   0.994   6.255
 9488WAT      O28705   2.322   1.118   2.351
 9488WAT     H128706   2.391   1.123   2.423
 9488WAT     H228707   2.236   1.156   2.386
 9489WAT      O28708   5.973   3.768   7.167
 9489WAT     H128709   5.902   3.709   7.205
 9489WAT     H228710   6.061   3.746   7.208
 9490WAT      O28711   3.370   2.572   1.918
 9490WAT     H128712   3.336   2.478   1.914
 9490WAT     H228713   3.463   2.573   1.954
 9491WAT      O28714   1.994   5.059   6.489
 9491WAT     H128715   2.080   5.049   6.438
 9491WAT     H228716   1.945   5.140   6.457
 9492WAT      O28717   9.006   5.352   5.874
 9492WAT     H128718   8.977   5.384   5.964
 9492WAT     H228719   9.020   5.430   5.814
 9493WAT      O28720   8.845   5.443   0.691
 9493WAT     H128721   8.850   5.429   0.592
 9493WAT     H228722   8.936   5.433   0.731
 9494WAT      O28723   0.875   6.749   8.509
 9494WAT     H128724   0.845   6.684   8.578
 9494WAT     H228725   0.801   6.812   8.486
 9495WAT      O28726   6.893   2.527   5.756
 9495WAT     H128727   6.801   2.504   5.727
 9495WAT     H228728   6.893   2.617   5.800
 9496WAT      O28729   0.354   2.670   5.230
 9496WAT     H128730   0.452   2.653   5.221
 9496WAT     H228731   0.337   2.724   5.312
 9497WAT      O28732   7.351   3.751   2.522
 9497WAT     H128733   7.313   3.663   2.550
 9497WAT     H228734   7.441   3.737   2.479
 9498WAT      O28735   5.848   4.819   4.163
 9498WAT     H128736   5.881   4.873   4.085
 9498WAT     H228737   5.919   4.755   4.192
 9499WAT      O28738   0.164   4.073   4.683
 9499WAT     H128739   0.254   4.116   4.698
 9499WAT     H228740   0.094   4.125   4.732
 9500WAT      O28741   0.719   5.124   6.769
 9500WAT     H128742   0.810   5.083   6.769
 9500WAT     H228743   0.649   5.052   6.769
 9501WAT      O28744   7.587   6.816   5.374
 9501WAT     H128745   7.582   6.827   5.275
 9501WAT     H228746   7.498   6.786   5.409
 9502WAT      O28747   2.049   9.454   7.170
 9502WAT     H128748   2.021   9.358   7.176
 9502WAT     H228749   1.992   9.500   7.102
 9503WAT      O28750   4.900   5.975   8.347
 9503WAT     H128751   4.825   6.017   8.295
 9503WAT     H228752   4.897   6.008   8.442
 9504WAT      O28753   8.811   7.017   7.436
 9504WAT     H128754   8.815   6.935   7.491
 9504WAT     H228755   8.799   7.097   7.495
 9505WAT      O28756   1.780   6.828   4.531
 9505WAT     H128757   1.775   6.809   4.629
 9505WAT     H228758   1.745   6.749   4.480
 9506WAT      O28759   9.682   6.906   4.747
 9506WAT     H128760   9.770   6.860   4.755
 9506WAT     H228761   9.649   6.899   4.653
 9507WAT      O28762   7.086   8.740   5.908
 9507WAT     H128763   7.049   8.732   5.816
 9507WAT     H228764   7.011   8.742   5.974
 9508WAT      O28765   7.451   5.940   7.716
 9508WAT     H128766   7.414   5.847   7.715
 9508WAT     H228767   7.486   5.961   7.807
 9509WAT      O28768   8.258   5.904   8.618
 9509WAT     H128769   8.328   5.860   8.674
 9509WAT     H228770   8.181   5.931   8.675
 9510WAT      O28771   3.863   6.485   6.122
 9510WAT     H128772   3.854   6.438   6.210
 9510WAT     H228773   3.857   6.418   6.048
 9511WAT      O28774   8.036   2.824   3.956
 9511WAT     H128775   7.995   2.756   4.017
 9511WAT     H228776   8.061   2.905   4.010
 9512WAT      O28777   0.378   3.084   9.482
 9512WAT     H128778   0.373   3.173   9.437
 9512WAT     H228779   0.473   3.053   9.485
 9513WAT      O28780   6.427   9.681   6.737
 9513WAT     H128781   6.486   9.761   6.745
 9513WAT     H228782   6.425   9.651   6.642
 9514WAT      O28783   5.251   7.612   4.984
 9514WAT     H128784   5.174   7.559   5.020
 9514WAT     H228785   5.239   7.626   4.886
 9515WAT      O28786   6.373   7.718   4.370
 9515WAT     H128787   6.382   7.798   4.312
 9515WAT     H228788   6.288   7.670   4.347
 9516WAT      O28789   7.934   5.324   3.833
 9516WAT     H128790   7.922   5.285   3.925
 9516WAT     H228791   7.878   5.406   3.825
 9517WAT      O28792   0.570   0.104   6.673
 9517WAT     H128793   0.635   0.029   6.683
 9517WAT     H228794   0.505   0.082   6.600
 9518WAT      O28795   9.325   5.067   3.161
 9518WAT     H128796   9.326   5.001   3.236
 9518WAT     H228797   9.270   5.147   3.188
 9519WAT      O28798   0.910   6.015   9.114
 9519WAT     H128799   0.989   6.038   9.171
 9519WAT     H228800   0.921   5.923   9.077
 9520WAT      O28801   9.013   8.392   4.557
 9520WAT     H128802   8.949   8.399   4.633
 9520WAT     H228803   9.105   8.377   4.592
 9521WAT      O28804   4.858   0.946   3.996
 9521WAT     H128805   4.890   1.041   3.996
 9521WAT     H228806   4.791   0.933   3.923
 9522WAT      O28807   2.839   6.223   6.904
 9522WAT     H128808   2.780   6.303   6.913
 9522WAT     H228809   2.922   6.237   6.960
 9523WAT      O28810   5.548   3.910   2.282
 9523WAT     H128811   5.493   3.828   2.296
 9523WAT     H228812   5.576   3.947   2.371
 9524WAT      O28813   6.559   7.609   7.168
 9524WAT     H128814   6.519   7.701   7.174
 9524WAT     H228815   6.589   7.593   7.073
 9525WAT      O28816   2.073   3.745   4.635
 9525WAT     H128817   1.975   3.761   4.622
 9525WAT     H228818   2.099   3.661   4.587
 9526WAT      O28819   8.078   4.089   8.710
 9526WAT     H128820   8.123   4.084   8.621
 9526WAT     H228821   8.058   4.185   8.732
 9527WAT      O28822   9.051   2.864   3.418
 9527WAT     H128823   9.068   2.962   3.410
 9527WAT     H228824   9.001   2.832   3.338
 9528WAT      O28825   2.638   2.599   8.707
 9528WAT     H128826   2.646   2.568   8.612
 9528WAT     H228827   2.668   2.527   8.769
 9529WAT      O28828   3.095   1.158   2.764
 9529WAT     H128829   3.176   1.100   2.777
 9529WAT     H228830   3.120   1.238   2.709
 9530WAT      O28831   9.124   1.357   2.746
 9530WAT     H128832   9.081   1.304   2.819
 9530WAT     H228833   9.196   1.303   2.703
 9531WAT      O28834   4.190   6.171   8.451
 9531WAT     H128835   4.175   6.100   8.520
 9531WAT     H228836   4.190   6.261   8.495
 9532WAT      O28837   3.979   3.695   8.272
 9532WAT     H128838   3.944   3.603   8.252
 9532WAT     H228839   3.963   3.716   8.369
 9533WAT      O28840   8.593   6.485   8.083
 9533WAT     H128841   8.588   6.581   8.113
 9533WAT     H228842   8.551   6.426   8.151
 9534WAT      O28843   1.956   8.857   7.312
 9534WAT     H128844   1.888   8.801   7.359
 9534WAT     H228845   1.940   8.954   7.332
 9535WAT      O28846   7.786   8.566   3.595
 9535WAT     H128847   7.879   8.548   3.628
 9535WAT     H228848   7.720   8.538   3.666
 9536WAT      O28849   1.427   5.222   1.197
 9536WAT     H128850   1.352   5.165   1.232
 9536WAT     H228851   1.499   5.164   1.159
 9537WAT      O28852   7.262   8.807   9.228
 9537WAT     H128853   7.200   8.752   9.172
 9537WAT     H228854   7.213   8.840   9.309
 9538WAT      O28855   3.106   0.189   6.663
 9538WAT     H128856   3.065   0.281   6.666
 9538WAT     H228857   3.203   0.196   6.687
 9539WAT      O28858   6.324   3.721   9.846
 9539WAT     H128859   6.329   3.625   9.820
 9539WAT     H228860   6.284   3.774   9.772
 9540WAT      O28861   2.161   6.460   7.042
 9540WAT     H128862   2.128   6.375   7.084
 9540WAT     H228863   2.096   6.534   7.062
 9541WAT      O28864   7.445   2.174   5.314
 9541WAT     H128865   7.406   2.137   5.229
 9541WAT     H228866   7.375   2.229   5.361
 9542WAT      O28867   1.614   0.349   0.869
 9542WAT     H128868   1.578   0.295   0.793
 9542WAT     H228869   1.636   0.441   0.838
 9543WAT      O28870   1.897   2.889   2.031
 9543WAT     H128871   1.931   2.855   2.119
 9543WAT     H228872   1.931   2.831   1.957
 9544WAT      O28873   0.067   6.006   5.455
 9544WAT     H128874   0.072   5.911   5.486
 9544WAT     H228875  -0.026   6.028   5.428
 9545WAT      O28876   0.568   7.641   7.969
 9545WAT     H128877   0.495   7.594   7.918
 9545WAT     H228878   0.635   7.677   7.904
 9546WAT      O28879   4.010   8.422   5.345
 9546WAT     H128880   4.084   8.359   5.322
 9546WAT     H228881   4.040   8.484   5.418
 9547WAT      O28882   1.530   9.753   2.530
 9547WAT     H128883   1.495   9.773   2.438
 9547WAT     H228884   1.628   9.736   2.525
 9548WAT      O28885   8.388   6.621   1.683
 9548WAT     H128886   8.401   6.632   1.584
 9548WAT     H228887   8.342   6.534   1.701
 9549WAT      O28888   1.978   5.656   4.159
 9549WAT     H128889   2.055   5.700   4.113
 9549WAT     H228890   2.000   5.642   4.255
 9550WAT      O28891   1.264   1.810   9.066
 9550WAT     H128892   1.354   1.839   9.098
 9550WAT     H228893   1.269   1.716   9.033
 9551WAT      O28894   8.426   1.449   6.580
 9551WAT     H128895   8.451   1.420   6.488
 9551WAT     H228896   8.329   1.431   6.597
 9552WAT      O28897   1.377   5.770   1.845
 9552WAT     H128898   1.370   5.806   1.938
 9552WAT     H228899   1.446   5.822   1.794
 9553WAT      O28900   6.653   1.342   8.488
 9553WAT     H128901   6.709   1.396   8.552
 9553WAT     H228902   6.664   1.379   8.396
 9554WAT      O28903   2.423   9.756   4.642
 9554WAT     H128904   2.512   9.795   4.620
 9554WAT     H228905   2.397   9.690   4.572
 9555WAT      O28906   4.948   6.780   4.874
 9555WAT     H128907   4.897   6.807   4.792
 9555WAT     H228908   4.892   6.718   4.929
 9556WAT      O28909   6.348   6.127   5.641
 9556WAT     H128910   6.269   6.186   5.626
 9556WAT     H228911   6.321   6.051   5.701
 9557WAT      O28912   3.691   9.577   3.008
 9557WAT     H128913   3.722   9.588   3.103
 9557WAT     H228914   3.609   9.519   3.007
 9558WAT      O28915   1.176   2.194   7.426
 9558WAT     H128916   1.184   2.283   7.471
 9558WAT     H228917   1.085   2.186   7.385
 9559WAT      O28918   8.032   5.762   3.716
 9559WAT     H128919   8.034   5.764   3.616
 9559WAT     H228920   8.122   5.740   3.751
 9560WAT      O28921   0.166   7.841   8.670
 9560WAT     H128922   0.101   7.796   8.609
 9560WAT     H228923   0.134   7.833   8.764
 9561WAT      O28924   5.092   9.504   2.537
 9561WAT     H128925   5.000   9.506   2.497
 9561WAT     H228926   5.158   9.486   2.465
 9562WAT      O28927   5.054   1.980   4.981
 9562WAT     H128928   4.989   2.023   5.044
 9562WAT     H228929   5.144   1.977   5.024
 9563WAT      O28930   6.202   6.416   9.416
 9563WAT     H128931   6.283   6.471   9.398
 9563WAT     H228932   6.205   6.333   9.361
 9564WAT      O28933   5.458   4.721   0.639
 9564WAT     H128934   5.451   4.657   0.716
 9564WAT     H228935   5.422   4.810   0.667
 9565WAT      O28936   0.160   6.300   1.814
 9565WAT     H128937   0.077   6.253   1.784
 9565WAT     H228938   0.138   6.360   1.891
 9566WAT      O28939   9.873   1.234   7.387
 9566WAT     H128940   9.901   1.273   7.299
 9566WAT     H228941   9.954   1.211   7.441
 9567WAT      O28942   8.960   8.210   7.145
 9567WAT     H128943   8.949   8.160   7.231
 9567WAT     H228944   9.045   8.181   7.100
 9568WAT      O28945   7.011   3.591   9.216
 9568WAT     H128946   7.063   3.521   9.169
 9568WAT     H228947   7.072   3.664   9.247
 9569WAT      O28948   5.203   8.926   8.748
 9569WAT     H128949   5.189   8.948   8.845
 9569WAT     H228950   5.258   8.844   8.740
 9570WAT      O28951   8.198   0.538   8.707
 9570WAT     H128952   8.202   0.637   8.713
 9570WAT     H228953   8.107   0.510   8.678
 9571WAT      O28954   5.561   0.043   1.849
 9571WAT     H128955   5.623  -0.023   1.890
 9571WAT     H228956   5.561   0.032   1.750
 9572WAT      O28957   8.745   6.150   6.254
 9572WAT     H128958   8.755   6.053   6.278
 9572WAT     H228959   8.763   6.206   6.335
 9573WAT      O28960   1.978   0.428   7.724
 9573WAT     H128961   2.015   0.496   7.661
 9573WAT     H228962   2.002   0.337   7.693
 9574WAT      O28963   0.683   7.278   7.851
 9574WAT     H128964   0.676   7.201   7.914
 9574WAT     H228965   0.730   7.354   7.896
 9575WAT      O28966   2.644   4.409   1.635
 9575WAT     H128967   2.551   4.377   1.615
 9575WAT     H228968   2.667   4.388   1.730
 9576WAT      O28969   8.389   9.033   3.843
 9576WAT     H128970   8.334   8.974   3.902
 9576WAT     H228971   8.482   8.996   3.836
 9577WAT      O28972   7.422   2.511   1.582
 9577WAT     H128973   7.359   2.437   1.559
 9577WAT     H228974   7.425   2.577   1.506
 9578WAT      O28975   2.679   2.976   0.680
 9578WAT     H128976   2.673   3.060   0.733
 9578WAT     H228977   2.595   2.963   0.629
 9579WAT      O28978   6.405   4.317   3.037
 9579WAT     H128979   6.421   4.364   3.124
 9579WAT     H228980   6.490   4.272   3.008
 9580WAT      O28981   7.083   8.686   9.752
 9580WAT     H128982   7.077   8.748   9.830
 9580WAT     H228983   7.162   8.710   9.696
 9581WAT      O28984   2.734   5.283   3.232
 9581WAT     H128985   2.720   5.366   3.285
 9581WAT     H228986   2.828   5.250   3.246
 9582WAT      O28987   2.301   2.004   7.420
 9582WAT     H128988   2.305   2.070   7.345
 9582WAT     H228989   2.327   1.914   7.387
 9583WAT      O28990   9.585   5.200   6.310
 9583WAT     H128991   9.605   5.280   6.253
 9583WAT     H228992   9.662   5.136   6.306
 9584WAT      O28993   3.961   6.383   1.664
 9584WAT     H128994   3.952   6.289   1.631
 9584WAT     H228995   4.058   6.409   1.660
 9585WAT      O28996   9.473   8.468   1.611
 9585WAT     H128997   9.473   8.437   1.515
 9585WAT     H228998   9.388   8.518   1.629
 9586WAT      O28999   3.460   1.204   8.338
 9586WAT     H129000   3.364   1.202   8.310
 9586WAT     H229001   3.474   1.274   8.408
 9587WAT      O29002   1.220   1.374   5.652
 9587WAT     H129003   1.147   1.362   5.585
 9587WAT     H229004   1.219   1.298   5.717
 9588WAT      O29005   4.901   3.227   8.935
 9588WAT     H129006   4.888   3.218   9.034
 9588WAT     H229007   4.936   3.318   8.914
 9589WAT      O29008   1.387   6.294   3.408
 9589WAT     H129009   1.354   6.207   3.446
 9589WAT     H229010   1.312   6.359   3.405
 9590WAT      O29011   5.801   2.155   8.027
 9590WAT     H129012   5.809   2.056   8.034
 9590WAT     H229013   5.803   2.182   7.930
 9591WAT      O29014   0.280   5.548   3.623
 9591WAT     H129015   0.216   5.478   3.592
 9591WAT     H229016   0.308   5.529   3.717
 9592WAT      O29017   8.715   7.660   7.668
 9592WAT     H129018   8.792   7.663   7.604
 9592WAT     H229019   8.654   7.738   7.650
 9593WAT      O29020   2.038   7.401   2.037
 9593WAT     H129021   2.098   7.432   1.963
 9593WAT     H229022   2.079   7.425   2.125
 9594WAT      O29023   4.272   2.756   5.928
 9594WAT     H129024   4.369   2.733   5.939
 9594WAT     H229025   4.237   2.794   6.014
 9595WAT      O29026   6.313   9.750   5.796
 9595WAT     H129027   6.411   9.767   5.791
 9595WAT     H229028   6.271   9.811   5.863
 9596WAT      O29029   8.247   9.182   3.333
 9596WAT     H129030   8.266   9.229   3.419
 9596WAT     H229031   8.332   9.146   3.296
 9597WAT      O29032   4.082   9.826   8.182
 9597WAT     H129033   4.153   9.862   8.121
 9597WAT     H229034   3.996   9.875   8.165
 9598WAT      O29035   5.196   5.504   8.309
 9598WAT     H129036   5.127   5.576   8.314
 9598WAT     H229037   5.153   5.415   8.323
 9599WAT      O29038   8.512   4.852   4.018
 9599WAT     H129039   8.546   4.934   4.064
 9599WAT     H229040   8.588   4.787   4.006
 9600WAT      O29041   6.762   9.617   9.725
 9600WAT     H129042   6.816   9.683   9.779
 9600WAT     H229043   6.819   9.582   9.650
 9601WAT      O29044   5.517   6.079   5.437
 9601WAT     H129045   5.609   6.086   5.476
 9601WAT     H229046   5.457   6.031   5.501
 9602WAT      O29047   5.211   1.315   2.853
 9602WAT     H129048   5.127   1.277   2.891
 9602WAT     H229049   5.211   1.414   2.863
 9603WAT      O29050   2.678   1.168   5.966
 9603WAT     H129051   2.601   1.217   6.007
 9603WAT     H229052   2.738   1.234   5.920
 9604WAT      O29053   7.581   8.658   4.331
 9604WAT     H129054   7.508   8.651   4.263
 9604WAT     H229055   7.642   8.734   4.307
 9605WAT      O29056   8.584   5.009   0.972
 9605WAT     H129057   8.505   4.992   0.914
 9605WAT     H229058   8.636   4.924   0.983
 9606WAT      O29059   8.941   9.353   0.319
 9606WAT     H129060   8.889   9.430   0.283
 9606WAT     H229061   8.958   9.287   0.246
 9607WAT      O29062   9.864   7.694   4.989
 9607WAT     H129063   9.774   7.734   4.977
 9607WAT     H229064   9.905   7.728   5.074
 9608WAT      O29065   5.434   0.254   7.021
 9608WAT     H129066   5.399   0.193   7.092
 9608WAT     H229067   5.484   0.201   6.953
 9609WAT      O29068   1.731   5.787   0.681
 9609WAT     H129069   1.786   5.869   0.666
 9609WAT     H229070   1.692   5.756   0.594
 9610WAT      O29071   7.639   5.016   1.975
 9610WAT     H129072   7.665   5.113   1.974
 9610WAT     H229073   7.713   4.961   1.936
 9611WAT      O29074   5.672   2.473   4.561
 9611WAT     H129075   5.706   2.380   4.546
 9611WAT     H229076   5.749   2.537   4.559
 9612WAT      O29077   0.633   9.105   4.940
 9612WAT     H129078   0.730   9.099   4.919
 9612WAT     H229079   0.582   9.127   4.856
 9613WAT      O29080   7.290   2.662   1.350
 9613WAT     H129081   7.353   2.704   1.284
 9613WAT     H229082   7.218   2.727   1.374
 9614WAT      O29083   6.347   9.095   8.181
 9614WAT     H129084   6.299   9.017   8.221
 9614WAT     H229085   6.407   9.063   8.107
 9615WAT      O29086   8.361   0.122   5.609
 9615WAT     H129087   8.333   0.180   5.685
 9615WAT     H229088   8.349   0.026   5.634
 9616WAT      O29089   1.614   7.536   1.049
 9616WAT     H129090   1.657   7.608   1.103
 9616WAT     H229091   1.631   7.553   0.952
 9617WAT      O29092   7.569   8.965   7.795
 9617WAT     H129093   7.472   8.984   7.784
 9617WAT     H229094   7.580   8.877   7.843
 9618WAT      O29095   5.006   5.829   9.654
 9618WAT     H129096   5.071   5.760   9.687
 9618WAT     H229097   4.913   5.794   9.661
 9619WAT      O29098   8.412   7.143   9.270
 9619WAT     H129099   8.366   7.145   9.359
 9619WAT     H229100   8.436   7.236   9.243
 9620WAT      O29101   6.075   6.785   3.173
 9620WAT     H129102   5.998   6.730   3.140
 9620WAT     H229103   6.048   6.834   3.256
 9621WAT      O29104   8.050   1.904   7.699
 9621WAT     H129105   8.069   1.843   7.622
 9621WAT     H229106   8.119   1.891   7.770
 9622WAT      O29107   1.539   3.336   6.413
 9622WAT     H129108   1.565   3.303   6.322
 9622WAT     H229109   1.465   3.278   6.449
 9623WAT      O29110   6.839   5.429   8.875
 9623WAT     H129111   6.857   5.459   8.968
 9623WAT     H229112   6.750   5.464   8.845
 9624WAT      O29113   2.277   9.191   9.796
 9624WAT     H129114   2.214   9.231   9.729
 9624WAT     H229115   2.362   9.166   9.750
 9625WAT      O29116   4.496   7.265   0.221
 9625WAT     H129117   4.489   7.169   0.248
 9625WAT     H229118   4.525   7.319   0.300
 9626WAT      O29119   0.986   4.930   1.165
 9626WAT     H129120   1.040   4.849   1.140
 9626WAT     H229121   0.947   4.971   1.083
 9627WAT      O29122   8.848   1.860   7.790
 9627WAT     H129123   8.812   1.949   7.761
 9627WAT     H229124   8.856   1.858   7.889
 9628WAT      O29125   5.538   3.957   4.409
 9628WAT     H129126   5.483   3.902   4.346
 9628WAT     H229127   5.596   4.019   4.356
 9629WAT      O29128   7.996   1.266   1.247
 9629WAT     H129129   7.938   1.230   1.174
 9629WAT     H229130   8.072   1.317   1.206
 9630WAT      O29131   4.121   5.174   7.284
 9630WAT     H129132   4.050   5.132   7.229
 9630WAT     H229133   4.102   5.160   7.381
 9631WAT      O29134   0.127   8.900   1.740
 9631WAT     H129135   0.043   8.928   1.693
 9631WAT     H229136   0.104   8.869   1.832
 9632WAT      O29137   5.112   3.666   1.210
 9632WAT     H129138   5.040   3.735   1.218
 9632WAT     H229139   5.122   3.618   1.297
 9633WAT      O29140   5.095   0.664   6.075
 9633WAT     H129141   5.114   0.635   6.169
 9633WAT     H229142   5.176   0.646   6.018
 9634WAT      O29143   2.356   8.778   5.810
 9634WAT     H129144   2.334   8.869   5.773
 9634WAT     H229145   2.346   8.709   5.738
 9635WAT      O29146   7.742   4.864   8.947
 9635WAT     H129147   7.775   4.771   8.931
 9635WAT     H229148   7.705   4.870   9.040
 9636WAT      O29149   3.540   1.554   9.313
 9636WAT     H129150   3.554   1.484   9.383
 9636WAT     H229151   3.442   1.576   9.308
 9637WAT      O29152   2.674   5.637   6.661
 9637WAT     H129153   2.724   5.714   6.701
 9637WAT     H229154   2.664   5.565   6.730
 9638WAT      O29155   8.622   6.932   9.619
 9638WAT     H129156   8.619   7.027   9.650
 9638WAT     H229157   8.645   6.930   9.522
 9639WAT      O29158   5.716   5.883   7.465
 9639WAT     H129159   5.664   5.930   7.537
 9639WAT     H229160   5.734   5.947   7.391
 9640WAT      O29161   5.752   9.522   7.101
 9640WAT     H129162   5.833   9.540   7.158
 9640WAT     H229163   5.680   9.482   7.158
 9641WAT      O29164   7.382   6.263   1.300
 9641WAT     H129165   7.456   6.196   1.295
 9641WAT     H229166   7.320   6.250   1.223
 9642WAT      O29167   2.081   2.551   2.875
 9642WAT     H129168   2.111   2.513   2.788
 9642WAT     H229169   1.981   2.549   2.879
 9643WAT      O29170   9.355   6.938   7.164
 9643WAT     H129171   9.384   6.863   7.223
 9643WAT     H229172   9.315   7.010   7.221
 9644WAT      O29173   4.255   7.458   9.070
 9644WAT     H129174   4.285   7.419   8.982
 9644WAT     H229175   4.275   7.556   9.071
 9645WAT      O29176   7.875   3.249   1.339
 9645WAT     H129177   7.944   3.221   1.273
 9645WAT     H229178   7.904   3.224   1.431
 9646WAT      O29179   1.787   8.355   3.382
 9646WAT     H129180   1.787   8.455   3.375
 9646WAT     H229181   1.841   8.317   3.307
 9647WAT      O29182   9.740   7.348   6.924
 9647WAT     H129183   9.814   7.301   6.877
 9647WAT     H229184   9.773   7.435   6.960
 9648WAT      O29185   4.142   6.047   5.591
 9648WAT     H129186   4.225   5.992   5.590
 9648WAT     H229187   4.066   5.994   5.552
 9649WAT      O29188   3.975   7.933   0.254
 9649WAT     H129189   3.993   7.947   0.157
 9649WAT     H229190   4.055   7.963   0.307
 9650WAT      O29191   9.682   6.273   6.667
 9650WAT     H129192   9.594   6.243   6.629
 9650WAT     H229193   9.671   6.361   6.712
 9651WAT      O29194   0.495   5.424   4.418
 9651WAT     H129195   0.534   5.455   4.505
 9651WAT     H229196   0.432   5.494   4.383
 9652WAT      O29197   7.570   8.486   9.583
 9652WAT     H129198   7.669   8.483   9.573
 9652WAT     H229199   7.528   8.518   9.498
 9653WAT      O29200   8.705   0.167   2.016
 9653WAT     H129201   8.622   0.156   2.071
 9653WAT     H229202   8.784   0.138   2.070
 9654WAT      O29203   3.160   8.685   3.193
 9654WAT     H129204   3.118   8.768   3.155
 9654WAT     H229205   3.224   8.647   3.127
 9655WAT      O29206   5.249   3.937   0.746
 9655WAT     H129207   5.322   3.888   0.793
 9655WAT     H229208   5.163   3.886   0.755
 9656WAT      O29209   6.734   9.198   8.651
 9656WAT     H129210   6.757   9.294   8.639
 9656WAT     H229211   6.634   9.187   8.643
 9657WAT      O29212   5.947   6.849   8.907
 9657WAT     H129213   5.973   6.753   8.925
 9657WAT     H229214   5.977   6.874   8.815
 9658WAT      O29215   9.666   0.107   1.159
 9658WAT     H129216   9.606   0.182   1.133
 9658WAT     H229217   9.692   0.055   1.078
 9659WAT      O29218   6.171   0.511   7.129
 9659WAT     H129219   6.241   0.581   7.112
 9659WAT     H229220   6.089   0.554   7.165
 9660WAT      O29221   1.816   6.397   1.061
 9660WAT     H129222   1.894   6.457   1.079
 9660WAT     H229223   1.847   6.302   1.060
 9661WAT      O29224   3.352   1.217   9.873
 9661WAT     H129225   3.305   1.138   9.914
 9661WAT     H229226   3.285   1.283   9.841
 9662WAT      O29227   1.586   8.982   9.790
 9662WAT     H129228   1.576   9.081   9.782
 9662WAT     H229229   1.523   8.947   9.859
 9663WAT      O29230   9.680   8.414   9.803
 9663WAT     H129231   9.760   8.418   9.862
 9663WAT     H229232   9.706   8.435   9.709
 9664WAT      O29233   7.923   1.767   5.668
 9664WAT     H129234   7.843   1.813   5.707
 9664WAT     H229235   7.925   1.782   5.569
 9665WAT      O29236   5.383   1.464   7.257
 9665WAT     H129237   5.479   1.478   7.282
 9665WAT     H229238   5.372   1.373   7.218
 9666WAT      O29239   0.474   7.798   8.203
 9666WAT     H129240   0.477   7.733   8.279
 9666WAT     H229241   0.488   7.749   8.117
 9667WAT      O29242   8.154   6.066   0.495
 9667WAT     H129243   8.233   6.116   0.531
 9667WAT     H229244   8.087   6.132   0.459
 9668WAT      O29245   5.343   3.916   0.199
 9668WAT     H129246   5.346   3.984   0.126
 9668WAT     H229247   5.320   3.961   0.286
 9669WAT      O29248   9.364   3.923   3.522
 9669WAT     H129249   9.313   3.845   3.557
 9669WAT     H229250   9.440   3.944   3.583
 9670WAT      O29251   4.856   5.999   4.064
 9670WAT     H129252   4.833   5.973   4.157
 9670WAT     H229253   4.823   6.092   4.046
 9671WAT      O29254   1.280   4.399   7.485
 9671WAT     H129255   1.368   4.393   7.533
 9671WAT     H229256   1.211   4.346   7.534
 9672WAT      O29257   9.426   4.188   4.882
 9672WAT     H129258   9.375   4.102   4.889
 9672WAT     H229259   9.520   4.169   4.855
 9673WAT      O29260   1.447   3.875   7.646
 9673WAT     H129261   1.425   3.968   7.675
 9673WAT     H229262   1.400   3.810   7.705
 9674WAT      O29263   3.854   5.822   5.251
 9674WAT     H129264   3.776   5.787   5.200
 9674WAT     H229265   3.833   5.914   5.285
 9675WAT      O29266   1.452   1.370   4.063
 9675WAT     H129267   1.408   1.345   4.149
 9675WAT     H229268   1.457   1.470   4.056
 9676WAT      O29269   2.045   8.725   8.139
 9676WAT     H129270   2.086   8.737   8.048
 9676WAT     H229271   1.952   8.689   8.128
 9677WAT      O29272   7.949   2.071   2.699
 9677WAT     H129273   7.983   2.148   2.645
 9677WAT     H229274   8.024   2.035   2.756
 9678WAT      O29275   2.846   2.072   1.661
 9678WAT     H129276   2.895   2.156   1.635
 9678WAT     H229277   2.769   2.058   1.599
 9679WAT      O29278   5.257   8.932   0.510
 9679WAT     H129279   5.342   8.961   0.466
 9679WAT     H229280   5.232   9.000   0.580
 9680WAT      O29281   5.487   3.660   2.871
 9680WAT     H129282   5.455   3.655   2.966
 9680WAT     H229283   5.518   3.753   2.852
 9681WAT      O29284   7.698   8.498   8.711
 9681WAT     H129285   7.647   8.414   8.693
 9681WAT     H229286   7.760   8.484   8.788
 9682WAT      O29287   8.875   3.035   7.407
 9682WAT     H129288   8.935   2.972   7.359
 9682WAT     H229289   8.794   2.986   7.440
 9683WAT      O29290   1.605   3.896   1.257
 9683WAT     H129291   1.622   3.956   1.335
 9683WAT     H229292   1.673   3.916   1.186
 9684WAT      O29293   5.303   0.725   2.834
 9684WAT     H129294   5.309   0.687   2.741
 9684WAT     H229295   5.312   0.651   2.900
 9685WAT      O29296   8.358   1.181   7.913
 9685WAT     H129297   8.313   1.235   7.984
 9685WAT     H229298   8.289   1.141   7.852
 9686WAT      O29299   5.987   9.363   9.036
 9686WAT     H129300   5.951   9.340   9.127
 9686WAT     H229301   6.039   9.449   9.042
 9687WAT      O29302   4.116   2.164   8.626
 9687WAT     H129303   4.155   2.256   8.629
 9687WAT     H229304   4.038   2.158   8.689
 9688WAT      O29305   2.513   7.415   3.067
 9688WAT     H129306   2.446   7.455   3.004
 9688WAT     H229307   2.499   7.316   3.072
 9689WAT      O29308   1.044   7.208   5.564
 9689WAT     H129309   1.078   7.264   5.640
 9689WAT     H229310   1.108   7.134   5.546
 9690WAT      O29311   6.057   4.796   5.766
 9690WAT     H129312   6.077   4.760   5.858
 9690WAT     H229313   5.971   4.758   5.734
 9691WAT      O29314   7.685   7.749   9.353
 9691WAT     H129315   7.686   7.652   9.378
 9691WAT     H229316   7.601   7.791   9.387
 9692WAT      O29317   3.094   8.802   0.842
 9692WAT     H129318   3.036   8.879   0.815
 9692WAT     H229319   3.043   8.717   0.834
 9693WAT      O29320   4.606   4.142   8.420
 9693WAT     H129321   4.648   4.079   8.484
 9693WAT     H229322   4.552   4.210   8.470
 9694WAT      O29323   9.495   3.679   2.260
 9694WAT     H129324   9.572   3.649   2.203
 9694WAT     H229325   9.514   3.659   2.356
 9695WAT      O29326   3.963   4.473   4.723
 9695WAT     H129327   4.047   4.448   4.771
 9695WAT     H229328   3.888   4.478   4.789
 9696WAT      O29329   3.625   0.306   1.573
 9696WAT     H129330   3.525   0.312   1.564
 9696WAT     H229331   3.663   0.398   1.579
 9697WAT      O29332   8.424   6.554   3.558
 9697WAT     H129333   8.362   6.632   3.566
 9697WAT     H229334   8.387   6.487   3.493
 9698WAT      O29335   6.465   7.291   1.026
 9698WAT     H129336   6.459   7.371   0.965
 9698WAT     H229337   6.559   7.255   1.025
 9699WAT      O29338   3.849   3.074   8.401
 9699WAT     H129339   3.785   3.094   8.327
 9699WAT     H229340   3.798   3.058   8.485
 9700WAT      O29341   7.134   2.437   8.262
 9700WAT     H129342   7.066   2.369   8.237
 9700WAT     H229343   7.203   2.443   8.190
 9701WAT      O29344   2.973   7.768   2.687
 9701WAT     H129345   2.881   7.805   2.679
 9701WAT     H229346   2.970   7.669   2.676
 9702WAT      O29347   5.085   4.801   5.263
 9702WAT     H129348   5.083   4.832   5.358
 9702WAT     H229349   5.131   4.869   5.206
 9703WAT      O29350   7.140   2.489   6.591
 9703WAT     H129351   7.212   2.419   6.585
 9703WAT     H229352   7.163   2.554   6.664
 9704WAT      O29353   2.607   4.995   1.423
 9704WAT     H129354   2.632   4.919   1.363
 9704WAT     H229355   2.683   5.061   1.425
 9705WAT      O29356   6.955   6.902   8.493
 9705WAT     H129357   6.961   6.918   8.395
 9705WAT     H229358   6.984   6.984   8.542
 9706WAT      O29359   7.519   4.358   6.030
 9706WAT     H129360   7.512   4.453   6.061
 9706WAT     H229361   7.479   4.350   5.939
 9707WAT      O29362   4.454   8.575   7.351
 9707WAT     H129363   4.405   8.593   7.437
 9707WAT     H229364   4.445   8.479   7.327
 9708WAT      O29365   2.551   4.541   2.884
 9708WAT     H129366   2.539   4.610   2.812
 9708WAT     H229367   2.489   4.561   2.960
 9709WAT      O29368   2.431   6.003   5.881
 9709WAT     H129369   2.416   5.982   5.785
 9709WAT     H229370   2.344   6.002   5.930
 9710WAT      O29371   3.683   7.481   7.059
 9710WAT     H129372   3.757   7.424   7.094
 9710WAT     H229373   3.630   7.429   6.992
 9711WAT      O29374   6.360   0.231   1.766
 9711WAT     H129375   6.405   0.287   1.836
 9711WAT     H229376   6.410   0.144   1.757
 9712WAT      O29377   8.876   9.452   7.283
 9712WAT     H129378   8.957   9.394   7.290
 9712WAT     H229379   8.795   9.395   7.266
 9713WAT      O29380   4.961   6.903   3.620
 9713WAT     H129381   4.941   6.840   3.696
 9713WAT     H229382   5.057   6.895   3.595
 9714WAT      O29383   1.190   3.487   8.572
 9714WAT     H129384   1.250   3.567   8.577
 9714WAT     H229385   1.168   3.457   8.664
 9715WAT      O29386   8.405   6.532   8.901
 9715WAT     H129387   8.470   6.473   8.852
 9715WAT     H229388   8.455   6.604   8.948
 9716WAT      O29389   1.995   2.019   2.660
 9716WAT     H129390   1.931   1.979   2.725
 9716WAT     H229391   2.075   2.054   2.708
 9717WAT      O29392   3.254   2.308   4.290
 9717WAT     H129393   3.256   2.209   4.275
 9717WAT     H229394   3.171   2.346   4.249
 9718WAT      O29395   4.655   5.547   0.220
 9718WAT     H129396   4.736   5.522   0.166
 9718WAT     H229397   4.580   5.568   0.157
 9719WAT      O29398   0.817   8.630   6.677
 9719WAT     H129399   0.860   8.558   6.731
 9719WAT     H229400   0.846   8.719   6.713
 9720WAT      O29401   2.837   7.928   0.667
 9720WAT     H129402   2.814   7.838   0.704
 9720WAT     H229403   2.830   7.927   0.567
 9721WAT      O29404   0.512   6.753   1.385
 9721WAT     H129405   0.437   6.818   1.375
 9721WAT     H229406   0.515   6.720   1.479
 9722WAT      O29407   4.469   4.920   0.229
 9722WAT     H129408   4.465   4.971   0.143
 9722WAT     H229409   4.506   4.829   0.212
 9723WAT      O29410   0.927   8.720   5.369
 9723WAT     H129411   0.886   8.811   5.363
 9723WAT     H229412   0.921   8.686   5.462
 9724WAT      O29413   7.589   5.085   7.725
 9724WAT     H129414   7.596   5.041   7.635
 9724WAT     H229415   7.494   5.079   7.757
 9725WAT      O29416   3.669   1.414   6.032
 9725WAT     H129417   3.621   1.498   6.057
 9725WAT     H229418   3.701   1.421   5.938
 9726WAT      O29419   1.384   6.389   7.281
 9726WAT     H129420   1.447   6.312   7.290
 9726WAT     H229421   1.412   6.447   7.205
 9727WAT      O29422   3.252   7.483   4.899
 9727WAT     H129423   3.259   7.455   4.994
 9727WAT     H229424   3.309   7.423   4.842
 9728WAT      O29425   2.149   7.769   2.159
 9728WAT     H129426   2.064   7.741   2.115
 9728WAT     H229427   2.187   7.692   2.211
 9729WAT      O29428   0.400   7.775   2.924
 9729WAT     H129429   0.306   7.772   2.959
 9729WAT     H229430   0.464   7.778   3.001
 9730WAT      O29431   7.154   6.246   2.603
 9730WAT     H129432   7.058   6.251   2.573
 9730WAT     H229433   7.194   6.338   2.601
 9731WAT      O29434   5.683   7.129   7.774
 9731WAT     H129435   5.659   7.153   7.680
 9731WAT     H229436   5.601   7.101   7.824
 9732WAT      O29437   3.652   4.986   5.232
 9732WAT     H129438   3.662   5.085   5.247
 9732WAT     H229439   3.556   4.964   5.218
 9733WAT      O29440   4.552   9.270   1.346
 9733WAT     H129441   4.651   9.261   1.348
 9733WAT     H229442   4.525   9.358   1.384
 9734WAT      O29443   4.105   8.994   1.983
 9734WAT     H129444   4.041   8.925   1.950
 9734WAT     H229445   4.186   8.949   2.021
 9735WAT      O29446   9.169   3.341   5.492
 9735WAT     H129447   9.111   3.327   5.412
 9735WAT     H229448   9.238   3.410   5.472
 9736WAT      O29449   4.756   7.271   7.499
 9736WAT     H129450   4.851   7.298   7.510
 9736WAT     H229451   4.726   7.289   7.405
 9737WAT      O29452   4.629   3.551   2.230
 9737WAT     H129453   4.695   3.596   2.289
 9737WAT     H229454   4.544   3.603   2.229
 9738WAT      O29455   5.652   2.662   6.309
 9738WAT     H129456   5.598   2.652   6.226
 9738WAT     H229457   5.594   2.700   6.382
 9739WAT      O29458   9.229   8.427   9.355
 9739WAT     H129459   9.251   8.511   9.305
 9739WAT     H229460   9.129   8.416   9.359
 9740WAT      O29461   1.142   9.361   4.423
 9740WAT     H129462   1.151   9.461   4.426
 9740WAT     H229463   1.214   9.324   4.364
 9741WAT      O29464   0.912   6.673   6.828
 9741WAT     H129465   0.990   6.619   6.858
 9741WAT     H229466   0.856   6.698   6.907
 9742WAT      O29467   4.708   4.948   5.791
 9742WAT     H129468   4.722   4.976   5.886
 9742WAT     H229469   4.793   4.963   5.740
 9743WAT      O29470   9.576   4.697   8.482
 9743WAT     H129471   9.627   4.632   8.424
 9743WAT     H229472   9.621   4.704   8.571
 9744WAT      O29473   8.666   2.633   4.826
 9744WAT     H129474   8.740   2.590   4.773
 9744WAT     H229475   8.622   2.703   4.771
 9745WAT      O29476   7.159   3.385   5.901
 9745WAT     H129477   7.064   3.412   5.885
 9745WAT     H229478   7.175   3.295   5.861
 9746WAT      O29479   4.444   6.369   4.856
 9746WAT     H129480   4.421   6.279   4.893
 9746WAT     H229481   4.510   6.414   4.916
 9747WAT      O29482   7.148   4.608   3.064
 9747WAT     H129483   7.100   4.650   3.140
 9747WAT     H229484   7.241   4.645   3.058
 9748WAT      O29485   3.837   3.756   1.347
 9748WAT     H129486   3.770   3.765   1.272
 9748WAT     H229487   3.908   3.824   1.336
 9749WAT      O29488   9.000   4.198   4.098
 9749WAT     H129489   8.917   4.247   4.071
 9749WAT     H229490   9.032   4.233   4.186
 9750WAT      O29491   4.904   1.200   4.010
 9750WAT     H129492   4.911   1.293   4.045
 9750WAT     H229493   4.992   1.172   3.972
 9751WAT      O29494   8.285   8.618   1.952
 9751WAT     H129495   8.342   8.632   2.033
 9751WAT     H229496   8.342   8.581   1.878
 9752WAT      O29497   5.095   7.185   1.485
 9752WAT     H129498   5.060   7.221   1.399
 9752WAT     H229499   5.194   7.200   1.490
 9753WAT      O29500   5.320   0.678   7.934
 9753WAT     H129501   5.370   0.599   7.898
 9753WAT     H229502   5.271   0.723   7.860
 9754WAT      O29503   6.521   2.458   9.058
 9754WAT     H129504   6.613   2.438   9.023
 9754WAT     H229505   6.504   2.406   9.141
 9755WAT      O29506   0.404   1.408   9.071
 9755WAT     H129507   0.310   1.419   9.040
 9755WAT     H229508   0.457   1.361   9.001
 9756WAT      O29509   0.088   3.525   2.149
 9756WAT     H129510   0.153   3.601   2.160
 9756WAT     H229511   0.043   3.532   2.061
 9757WAT      O29512   2.206   5.709   7.945
 9757WAT     H129513   2.292   5.671   7.978
 9757WAT     H229514   2.136   5.702   8.016
 9758WAT      O29515   8.359   0.499   5.638
 9758WAT     H129516   8.449   0.487   5.596
 9758WAT     H229517   8.370   0.509   5.737
 9759WAT      O29518   5.896   3.212   0.814
 9759WAT     H129519   5.811   3.173   0.777
 9759WAT     H229520   5.878   3.248   0.906
 9760WAT      O29521   3.341   6.634   6.323
 9760WAT     H129522   3.365   6.561   6.259
 9760WAT     H229523   3.401   6.712   6.309
 9761WAT      O29524   2.272   5.591   8.689
 9761WAT     H129525   2.247   5.496   8.708
 9761WAT     H229526   2.195   5.651   8.709
 9762WAT      O29527   5.092   6.692   8.605
 9762WAT     H129528   5.035   6.773   8.613
 9762WAT     H229529   5.040   6.619   8.561
 9763WAT      O29530   1.985   7.709   0.864
 9763WAT     H129531   1.993   7.720   0.963
 9763WAT     H229532   1.938   7.788   0.825
 9764WAT      O29533   2.571   3.646   2.696
 9764WAT     H129534   2.520   3.577   2.747
 9764WAT     H229535   2.510   3.695   2.635
 9765WAT      O29536   5.361   4.785   7.343
 9765WAT     H129537   5.322   4.863   7.392
 9765WAT     H229538   5.396   4.719   7.409
 9766WAT      O29539   2.214   6.647   2.629
 9766WAT     H129540   2.240   6.715   2.561
 9766WAT     H229541   2.154   6.690   2.697
 9767WAT      O29542   6.988   3.873   1.566
 9767WAT     H129543   7.062   3.940   1.578
 9767WAT     H229544   6.900   3.918   1.580
 9768WAT      O29545   5.297   3.056   9.621
 9768WAT     H129546   5.224   3.053   9.688
 9768WAT     H229547   5.367   3.122   9.649
 9769WAT      O29548   3.199   7.951   1.539
 9769WAT     H129549   3.298   7.941   1.539
 9769WAT     H229550   3.160   7.903   1.617
 9770WAT      O29551   7.866   8.016   2.677
 9770WAT     H129552   7.800   8.077   2.721
 9770WAT     H229553   7.830   7.923   2.678
 9771WAT      O29554   2.881   7.830   1.119
 9771WAT     H129555   2.927   7.761   1.175
 9771WAT     H229556   2.830   7.892   1.178
 9772WAT      O29557   1.125   6.609   0.012
 9772WAT     H129558   1.146   6.618   0.110
 9772WAT     H229559   1.029   6.633  -0.004
 9773WAT      O29560   7.030   0.409   5.924
 9773WAT     H129561   7.051   0.450   6.013
 9773WAT     H229562   7.028   0.481   5.854
 9774WAT      O29563   7.648   6.732   4.099
 9774WAT     H129564   7.744   6.712   4.080
 9774WAT     H229565   7.622   6.692   4.186
 9775WAT      O29566   6.076   9.603   3.533
 9775WAT     H129567   6.070   9.696   3.568
 9775WAT     H229568   6.065   9.603   3.434
 9776WAT      O29569   2.240   5.059   9.568
 9776WAT     H129570   2.273   5.137   9.515
 9776WAT     H229571   2.316   4.998   9.590
 9777WAT      O29572   2.653   9.518   5.162
 9777WAT     H129573   2.623   9.458   5.088
 9777WAT     H229574   2.648   9.613   5.133
 9778WAT      O29575   3.603   3.014   9.531
 9778WAT     H129576   3.558   3.100   9.507
 9778WAT     H229577   3.592   2.949   9.456
 9779WAT      O29578   5.559   5.163   6.226
 9779WAT     H129579   5.528   5.070   6.246
 9779WAT     H229580   5.485   5.213   6.181
 9780WAT      O29581   0.088   0.817   6.302
 9780WAT     H129582   0.141   0.852   6.380
 9780WAT     H229583  -0.006   0.803   6.331
 9781WAT      O29584   3.667   8.891   6.701
 9781WAT     H129585   3.750   8.847   6.666
 9781WAT     H229586   3.602   8.821   6.730
 9782WAT      O29587   1.262   3.961   3.233
 9782WAT     H129588   1.255   4.032   3.163
 9782WAT     H229589   1.276   3.872   3.189
 9783WAT      O29590   1.644   1.512   7.786
 9783WAT     H129591   1.636   1.444   7.859
 9783WAT     H229592   1.739   1.519   7.756
 9784WAT      O29593   1.213   6.990   2.619
 9784WAT     H129594   1.275   6.985   2.697
 9784WAT     H229595   1.122   6.959   2.646
 9785WAT      O29596   7.873   4.902   8.604
 9785WAT     H129597   7.860   4.967   8.679
 9785WAT     H229598   7.807   4.828   8.613
 9786WAT      O29599   0.289   0.756   1.784
 9786WAT     H129600   0.346   0.679   1.812
 9786WAT     H229601   0.333   0.803   1.708
 9787WAT      O29602   4.559   8.062   0.020
 9787WAT     H129603   4.535   8.003   0.096
 9787WAT     H229604   4.659   8.069   0.013
 9788WAT      O29605   8.985   5.954   7.252
 9788WAT     H129606   9.053   5.992   7.315
 9788WAT     H229607   8.894   5.990   7.277
 9789WAT      O29608   2.197   0.149   9.026
 9789WAT     H129609   2.230   0.070   9.077
 9789WAT     H229610   2.233   0.233   9.066
 9790WAT      O29611   1.946   6.900   9.292
 9790WAT     H129612   1.956   6.974   9.226
 9790WAT     H229613   1.867   6.843   9.267
 9791WAT      O29614   2.397   9.461   4.617
 9791WAT     H129615   2.307   9.486   4.651
 9791WAT     H229616   2.433   9.384   4.670
 9792WAT      O29617   6.545   7.475   3.001
 9792WAT     H129618   6.507   7.438   3.085
 9792WAT     H229619   6.644   7.485   3.011
 9793WAT      O29620   1.550   6.240   8.281
 9793WAT     H129621   1.451   6.248   8.270
 9793WAT     H229622   1.593   6.327   8.255
 9794WAT      O29623   7.442   9.767   3.313
 9794WAT     H129624   7.447   9.688   3.252
 9794WAT     H229625   7.375   9.832   3.278
 9795WAT      O29626   7.571   3.521   7.992
 9795WAT     H129627   7.498   3.585   7.968
 9795WAT     H229628   7.652   3.541   7.937
 9796WAT      O29629   6.897   1.968   7.375
 9796WAT     H129630   6.946   1.990   7.459
 9796WAT     H229631   6.852   2.050   7.340
 9797WAT      O29632   7.040   8.244   2.057
 9797WAT     H129633   6.970   8.312   2.032
 9797WAT     H229634   7.074   8.264   2.149
 9798WAT      O29635   8.182   8.038   2.319
 9798WAT     H129636   8.109   8.087   2.270
 9798WAT     H229637   8.160   8.035   2.416
 9799WAT      O29638   0.762   2.570   4.944
 9799WAT     H129639   0.815   2.574   5.029
 9799WAT     H229640   0.669   2.537   4.964
 9800WAT      O29641   5.610   2.687   2.801
 9800WAT     H129642   5.540   2.632   2.846
 9800WAT     H229643   5.575   2.779   2.785
 9801WAT      O29644   0.695   0.412   5.772
 9801WAT     H129645   0.756   0.476   5.819
 9801WAT     H229646   0.739   0.377   5.691
 9802WAT      O29647   7.954   1.430   2.275
 9802WAT     H129648   8.023   1.502   2.268
 9802WAT     H229649   7.934   1.395   2.183
 9803WAT      O29650   8.214   5.342   4.965
 9803WAT     H129651   8.191   5.270   4.900
 9803WAT     H229652   8.255   5.419   4.917
 9804WAT      O29653   8.127   9.380   3.162
 9804WAT     H129654   8.187   9.453   3.197
 9804WAT     H229655   8.154   9.293   3.203
 9805WAT      O29656   9.627   7.846   5.085
 9805WAT     H129657   9.574   7.771   5.044
 9805WAT     H229658   9.627   7.836   5.184
 9806WAT      O29659   3.663   8.347   3.570
 9806WAT     H129660   3.706   8.272   3.519
 9806WAT     H229661   3.596   8.393   3.512
 9807WAT      O29662   2.288   4.591   4.952
 9807WAT     H129663   2.324   4.677   4.986
 9807WAT     H229664   2.238   4.544   5.025
 9808WAT      O29665   2.333   3.491   6.247
 9808WAT     H129666   2.254   3.550   6.227
 9808WAT     H229667   2.352   3.492   6.345
 9809WAT      O29668   9.370   5.790   2.380
 9809WAT     H129669   9.302   5.862   2.361
 9809WAT     H229670   9.455   5.811   2.331
 9810WAT      O29671   0.566   1.574   8.644
 9810WAT     H129672   0.590   1.627   8.725
 9810WAT     H229673   0.507   1.629   8.584
 9811WAT      O29674   8.614   8.738   7.595
 9811WAT     H129675   8.683   8.707   7.530
 9811WAT     H229676   8.648   8.728   7.688
 9812WAT      O29677   9.677   6.764   1.305
 9812WAT     H129678   9.708   6.732   1.395
 9812WAT     H229679   9.585   6.801   1.312
 9813WAT      O29680   1.537   3.483   5.381
 9813WAT     H129681   1.586   3.398   5.399
 9813WAT     H229682   1.545   3.507   5.284
 9814WAT      O29683   0.647   5.626   2.082
 9814WAT     H129684   0.686   5.548   2.034
 9814WAT     H229685   0.720   5.688   2.111
 9815WAT      O29686   9.022   0.090   5.334
 9815WAT     H129687   8.958   0.163   5.311
 9815WAT     H229688   9.115   0.127   5.341
 9816WAT      O29689   4.618   2.803   7.716
 9816WAT     H129690   4.658   2.890   7.744
 9816WAT     H229691   4.519   2.809   7.720
 9817WAT      O29692   4.363   9.003   2.087
 9817WAT     H129693   4.366   9.040   2.179
 9817WAT     H229694   4.389   8.906   2.088
 9818WAT      O29695   8.833   1.955   2.418
 9818WAT     H129696   8.810   2.052   2.414
 9818WAT     H229697   8.932   1.944   2.428
 9819WAT      O29698   1.146   7.454   1.858
 9819WAT     H129699   1.072   7.410   1.909
 9819WAT     H229700   1.232   7.445   1.908
 9820WAT      O29701   7.241   4.292   3.697
 9820WAT     H129702   7.307   4.351   3.650
 9820WAT     H229703   7.269   4.279   3.792
 9821WAT      O29704   4.064   6.062   7.245
 9821WAT     H129705   4.020   5.985   7.199
 9821WAT     H229706   4.163   6.056   7.234
 9822WAT      O29707   5.526   7.719   7.977
 9822WAT     H129708   5.462   7.648   8.005
 9822WAT     H229709   5.542   7.782   8.053
 9823WAT      O29710   9.139   9.762   5.942
 9823WAT     H129711   9.045   9.728   5.946
 9823WAT     H229712   9.168   9.792   6.033
 9824WAT      O29713   2.740   8.098   3.514
 9824WAT     H129714   2.672   8.167   3.540
 9824WAT     H229715   2.831   8.131   3.537
 9825WAT      O29716   8.717   2.842   0.040
 9825WAT     H129717   8.618   2.831   0.048
 9825WAT     H229718   8.736   2.912  -0.030
 9826WAT      O29719   7.207   2.115   8.976
 9826WAT     H129720   7.186   2.018   8.966
 9826WAT     H229721   7.129   2.169   8.943
 9827WAT      O29722   2.038   1.408   1.961
 9827WAT     H129723   2.123   1.392   2.012
 9827WAT     H229724   2.021   1.331   1.900
 9828WAT      O29725   9.150   5.429   3.457
 9828WAT     H129726   9.246   5.409   3.477
 9828WAT     H229727   9.129   5.523   3.485
 9829WAT      O29728   1.472   6.149   8.536
 9829WAT     H129729   1.404   6.078   8.518
 9829WAT     H229730   1.503   6.188   8.449
 9830WAT      O29731   8.523   3.571   1.260
 9830WAT     H129732   8.496   3.656   1.214
 9830WAT     H229733   8.468   3.558   1.342
 9831WAT      O29734   2.667   8.512   9.588
 9831WAT     H129735   2.573   8.477   9.595
 9831WAT     H229736   2.664   8.612   9.582
 9832WAT      O29737   3.982   1.990   0.265
 9832WAT     H129738   3.957   2.023   0.174
 9832WAT     H229739   4.043   1.911   0.256
 9833WAT      O29740   8.196   6.995   2.979
 9833WAT     H129741   8.175   6.904   3.014
 9833WAT     H229742   8.252   6.987   2.896
 9834WAT      O29743   4.451   0.670   9.694
 9834WAT     H129744   4.387   0.595   9.674
 9834WAT     H229745   4.544   0.643   9.668
 9835WAT      O29746   3.219   3.495   3.878
 9835WAT     H129747   3.308   3.516   3.836
 9835WAT     H229748   3.157   3.461   3.807
 9836WAT      O29749   4.449   3.654   0.674
 9836WAT     H129750   4.531   3.653   0.617
 9836WAT     H229751   4.465   3.600   0.756
 9837WAT      O29752   2.701   6.291   0.526
 9837WAT     H129753   2.676   6.363   0.592
 9837WAT     H229754   2.797   6.301   0.501
 9838WAT      O29755   7.395   3.914   4.275
 9838WAT     H129756   7.366   3.821   4.298
 9838WAT     H229757   7.413   3.920   4.177
 9839WAT      O29758   8.151   4.486   0.232
 9839WAT     H129759   8.181   4.421   0.302
 9839WAT     H229760   8.157   4.443   0.142
 9840WAT      O29761   0.376   6.154   4.927
 9840WAT     H129762   0.395   6.099   4.846
 9840WAT     H229763   0.332   6.239   4.900
 9841WAT      O29764   3.714   5.522   6.888
 9841WAT     H129765   3.745   5.617   6.896
 9841WAT     H229766   3.657   5.513   6.806
 9842WAT      O29767   3.613   9.031   2.623
 9842WAT     H129768   3.553   8.960   2.586
 9842WAT     H229769   3.660   9.078   2.548
 9843WAT      O29770   9.806   9.824   0.213
 9843WAT     H129771   9.760   9.754   0.267
 9843WAT     H229772   9.749   9.849   0.135
 9844WAT      O29773   5.891   6.185   0.617
 9844WAT     H129774   5.939   6.270   0.639
 9844WAT     H229775   5.792   6.201   0.620
 9845WAT      O29776   9.167   4.141   3.567
 9845WAT     H129777   9.133   4.124   3.659
 9845WAT     H229778   9.219   4.061   3.535
 9846WAT      O29779   8.514   7.435   4.104
 9846WAT     H129780   8.546   7.520   4.064
 9846WAT     H229781   8.491   7.449   4.200
 9847WAT      O29782   7.442   6.976   7.376
 9847WAT     H129783   7.501   7.050   7.410
 9847WAT     H229784   7.429   6.987   7.277
 9848WAT      O29785   7.080   8.694   0.728
 9848WAT     H129786   7.151   8.762   0.710
 9848WAT     H229787   7.062   8.690   0.826
 9849WAT      O29788   8.586   1.622   7.196
 9849WAT     H129789   8.611   1.631   7.099
 9849WAT     H229790   8.658   1.662   7.252
 9850WAT      O29791   3.236   7.722   7.973
 9850WAT     H129792   3.187   7.751   7.891
 9850WAT     H229793   3.234   7.622   7.979
 9851WAT      O29794   5.848   9.698   0.398
 9851WAT     H129795   5.943   9.672   0.419
 9851WAT     H229796   5.793   9.695   0.482
 9852WAT      O29797   9.374   0.599   7.050
 9852WAT     H129798   9.407   0.596   6.955
 9852WAT     H229799   9.340   0.691   7.070
 9853WAT      O29800   2.091   9.842   7.972
 9853WAT     H129801   2.142   9.762   8.002
 9853WAT     H229802   2.055   9.827   7.880
 9854WAT      O29803   9.465   7.466   4.746
 9854WAT     H129804   9.434   7.453   4.652
 9854WAT     H229805   9.394   7.435   4.809
 9855WAT      O29806   7.930   3.223   1.873
 9855WAT     H129807   8.005   3.289   1.870
 9855WAT     H229808   7.850   3.265   1.917
 9856WAT      O29809   0.153   0.270   3.814
 9856WAT     H129810   0.207   0.315   3.886
 9856WAT     H229811   0.213   0.245   3.738
 9857WAT      O29812   0.542   5.876   2.363
 9857WAT     H129813   0.449   5.839   2.358
 9857WAT     H229814   0.545   5.949   2.432
 9858WAT      O29815   2.464   7.528   4.514
 9858WAT     H129816   2.464   7.433   4.485
 9858WAT     H229817   2.396   7.541   4.586
 9859WAT      O29818   6.955   3.900   2.886
 9859WAT     H129819   6.930   3.885   2.982
 9859WAT     H229820   6.961   3.999   2.868
 9860WAT      O29821   8.024   8.602   1.287
 9860WAT     H129822   7.961   8.574   1.359
 9860WAT     H229823   8.108   8.638   1.328
 9861WAT      O29824   6.816   5.883   3.073
 9861WAT     H129825   6.849   5.852   2.984
 9861WAT     H229826   6.876   5.956   3.108
 9862WAT      O29827   7.378   0.366   9.483
 9862WAT     H129828   7.472   0.342   9.505
 9862WAT     H229829   7.315   0.310   9.537
 9863WAT      O29830   5.773   7.909   4.053
 9863WAT     H129831   5.742   7.815   4.041
 9863WAT     H229832   5.861   7.909   4.102
 9864WAT      O29833   8.347   4.000   0.327
 9864WAT     H129834   8.345   3.904   0.353
 9864WAT     H229835   8.282   4.016   0.253
 9865WAT      O29836   8.994   6.911   2.251
 9865WAT     H129837   8.996   6.847   2.328
 9865WAT     H229838   8.914   6.892   2.194
 9866WAT      O29839   2.159   3.755   3.192
 9866WAT     H129840   2.069   3.736   3.233
 9866WAT     H229841   2.160   3.719   3.098
 9867WAT      O29842   7.141   1.058   8.046
 9867WAT     H129843   7.063   1.112   8.079
 9867WAT     H229844   7.119   0.960   8.055
 9868WAT      O29845   6.221   1.930   2.177
 9868WAT     H129846   6.152   1.875   2.225
 9868WAT     H229847   6.273   1.872   2.114
 9869WAT      O29848   7.009   4.076   3.192
 9869WAT     H129849   7.031   4.095   3.096
 9869WAT     H229850   7.034   4.154   3.248
 9870WAT      O29851   3.340   6.971   6.757
 9870WAT     H129852   3.298   7.058   6.784
 9870WAT     H229853   3.268   6.903   6.742
 9871WAT      O29854   9.085   2.383   0.398
 9871WAT     H129855   9.151   2.427   0.459
 9871WAT     H229856   9.057   2.295   0.438
 9872WAT      O29857   4.343   7.290   6.085
 9872WAT     H129858   4.306   7.285   6.178
 9872WAT     H229859   4.315   7.377   6.043
 9873WAT      O29860   4.949   7.676   4.078
 9873WAT     H129861   4.914   7.714   4.164
 9873WAT     H229862   4.963   7.750   4.012
 9874WAT      O29863   2.851   6.990   1.506
 9874WAT     H129864   2.890   6.924   1.570
 9874WAT     H229865   2.899   7.077   1.513
 9875WAT      O29866   9.103   8.546   6.870
 9875WAT     H129867   9.093   8.609   6.947
 9875WAT     H229868   9.026   8.482   6.870
 9876WAT      O29869   1.609   3.475   3.273
 9876WAT     H129870   1.648   3.491   3.364
 9876WAT     H229871   1.619   3.558   3.218
 9877WAT      O29872   0.467   5.097   1.855
 9877WAT     H129873   0.524   5.053   1.925
 9877WAT     H229874   0.391   5.144   1.899
 9878WAT      O29875   4.371   8.604   5.083
 9878WAT     H129876   4.276   8.636   5.078
 9878WAT     H229877   4.430   8.681   5.107
 9879WAT      O29878   2.752   4.783   4.776
 9879WAT     H129879   2.681   4.803   4.708
 9879WAT     H229880   2.788   4.869   4.813
 9880WAT      O29881   5.667   3.010   9.383
 9880WAT     H129882   5.659   2.961   9.296
 9880WAT     H229883   5.758   2.995   9.421
 9881WAT      O29884   6.910   4.527   7.482
 9881WAT     H129885   6.820   4.569   7.496
 9881WAT     H229886   6.928   4.461   7.556
 9882WAT      O29887   3.646   5.734   9.644
 9882WAT     H129888   3.678   5.802   9.709
 9882WAT     H229889   3.573   5.679   9.687
 9883WAT      O29890   8.780   1.122   4.948
 9883WAT     H129891   8.751   1.154   4.858
 9883WAT     H229892   8.756   1.025   4.958
 9884WAT      O29893   4.783   5.976   6.363
 9884WAT     H129894   4.696   5.980   6.412
 9884WAT     H229895   4.850   5.927   6.418
 9885WAT      O29896   8.378   5.866   3.862
 9885WAT     H129897   8.422   5.922   3.792
 9885WAT     H229898   8.284   5.899   3.876
 9886WAT      O29899   4.198   2.114   6.551
 9886WAT     H129900   4.284   2.096   6.502
 9886WAT     H229901   4.123   2.069   6.503
 9887WAT      O29902   9.426   9.720   8.101
 9887WAT     H129903   9.448   9.811   8.065
 9887WAT     H229904   9.450   9.650   8.033
 9888WAT      O29905   2.101   9.504   9.217
 9888WAT     H129906   2.013   9.490   9.262
 9888WAT     H229907   2.087   9.553   9.131
 9889WAT      O29908   5.648   8.193   7.398
 9889WAT     H129909   5.718   8.123   7.385
 9889WAT     H229910   5.649   8.223   7.493
 9890WAT      O29911   7.284   2.162   9.686
 9890WAT     H129912   7.244   2.144   9.776
 9890WAT     H229913   7.246   2.247   9.649
 9891WAT      O29914   9.251   5.096   0.522
 9891WAT     H129915   9.209   5.021   0.471
 9891WAT     H229916   9.346   5.106   0.494
 9892WAT      O29917   6.765   8.591   8.376
 9892WAT     H129918   6.678   8.582   8.328
 9892WAT     H229919   6.840   8.585   8.310
 9893WAT      O29920   4.903   0.611   7.937
 9893WAT     H129921   4.881   0.574   8.027
 9893WAT     H229922   4.965   0.549   7.889
 9894WAT      O29923   0.730   5.448   1.839
 9894WAT     H129924   0.710   5.516   1.768
 9894WAT     H229925   0.706   5.357   1.806
 9895WAT      O29926   8.653   7.373   8.846
 9895WAT     H129927   8.564   7.397   8.807
 9895WAT     H229928   8.723   7.379   8.775
 9896WAT      O29929   6.999   9.456   1.660
 9896WAT     H129930   7.058   9.389   1.613
 9896WAT     H229931   6.959   9.413   1.741
 9897WAT      O29932   2.751   4.253   8.817
 9897WAT     H129933   2.832   4.198   8.796
 9897WAT     H229934   2.743   4.327   8.750
 9898WAT      O29935   7.730   9.681   4.808
 9898WAT     H129936   7.673   9.756   4.775
 9898WAT     H229937   7.671   9.610   4.847
 9899WAT      O29938   1.827   9.118   4.869
 9899WAT     H129939   1.748   9.168   4.834
 9899WAT     H229940   1.844   9.144   4.964
 9900WAT      O29941   0.283   6.412   6.408
 9900WAT     H129942   0.323   6.461   6.486
 9900WAT     H229943   0.184   6.407   6.419
 9901WAT      O29944   8.007   2.416   6.558
 9901WAT     H129945   8.055   2.336   6.592
 9901WAT     H229946   8.065   2.464   6.492
 9902WAT      O29947   2.596   1.764   2.979
 9902WAT     H129948   2.532   1.723   2.913
 9902WAT     H229949   2.544   1.817   3.046
 9903WAT      O29950   2.049   9.624   8.638
 9903WAT     H129951   1.964   9.573   8.646
 9903WAT     H229952   2.106   9.607   8.719
 9904WAT      O29953   6.976   4.313   0.992
 9904WAT     H129954   7.073   4.328   1.014
 9904WAT     H229955   6.919   4.357   1.060
 9905WAT      O29956   0.362   5.827   3.548
 9905WAT     H129957   0.296   5.857   3.479
 9905WAT     H229958   0.347   5.731   3.569
 9906WAT      O29959   2.692   1.935   9.874
 9906WAT     H129960   2.781   1.978   9.889
 9906WAT     H229961   2.700   1.837   9.889
 9907WAT      O29962   2.780   6.850   6.747
 9907WAT     H129963   2.871   6.883   6.771
 9907WAT     H229964   2.732   6.819   6.829
 9908WAT      O29965   7.308   5.993   1.539
 9908WAT     H129966   7.390   6.024   1.492
 9908WAT     H229967   7.231   6.054   1.516
 9909WAT      O29968   0.398   4.523   0.011
 9909WAT     H129969   0.338   4.583   0.063
 9909WAT     H229970   0.451   4.466   0.073
 9910WAT      O29971   4.103   2.664   1.846
 9910WAT     H129972   4.136   2.713   1.765
 9910WAT     H229973   4.076   2.731   1.917
 9911WAT      O29974   1.020   1.025   8.228
 9911WAT     H129975   1.041   1.056   8.136
 9911WAT     H229976   1.104   0.999   8.275
 9912WAT      O29977   4.947   2.699   9.318
 9912WAT     H129978   4.926   2.647   9.401
 9912WAT     H229979   4.931   2.642   9.238
 9913WAT      O29980   7.043   9.135   5.844
 9913WAT     H129981   6.976   9.097   5.907
 9913WAT     H229982   7.134   9.127   5.885
 9914WAT      O29983   5.243   7.006   0.629
 9914WAT     H129984   5.277   6.922   0.671
 9914WAT     H229985   5.294   7.023   0.544
 9915WAT      O29986   0.123   7.728   0.019
 9915WAT     H129987   0.054   7.684  -0.038
 9915WAT     H229988   0.126   7.683   0.108
 9916WAT      O29989   7.233   7.207   0.739
 9916WAT     H129990   7.288   7.163   0.667
 9916WAT     H229991   7.185   7.136   0.791
 9917WAT      O29992   8.828   0.275   0.881
 9917WAT     H129993   8.761   0.239   0.946
 9917WAT     H229994   8.780   0.312   0.801
 9918WAT      O29995   9.529   2.079   4.596
 9918WAT     H129996   9.493   2.110   4.508
 9918WAT     H229997   9.455   2.039   4.650
 9919WAT      O29998   3.547   0.058   7.556
 9919WAT     H129999   3.499   0.104   7.480
 9919WAT     H230000   3.543  -0.041   7.542
 9920WAT      O30001   6.960   1.932   7.747
 9920WAT     H130002   6.866   1.964   7.742
 9920WAT     H230003   7.014   1.976   7.675
 9921WAT      O30004   6.960   6.919   9.607
 9921WAT     H130005   6.978   7.016   9.619
 9921WAT     H230006   6.898   6.887   9.678
 9922WAT      O30007   5.890   1.196   5.374
 9922WAT     H130008   5.816   1.141   5.337
 9922WAT     H230009   5.874   1.214   5.471
 9923WAT      O30010   6.351   6.367   2.239
 9923WAT     H130011   6.359   6.454   2.288
 9923WAT     H230012   6.441   6.334   2.213
 9924WAT      O30013   0.316   9.339   6.639
 9924WAT     H130014   0.243   9.333   6.707
 9924WAT     H230015   0.355   9.248   6.624
 9925WAT      O30016   6.415   9.141   4.900
 9925WAT     H130017   6.477   9.204   4.947
 9925WAT     H230018   6.437   9.047   4.928
 9926WAT      O30019   0.103   9.538   8.983
 9926WAT     H130020   0.041   9.615   8.999
 9926WAT     H230021   0.053   9.452   8.996
 9927WAT      O30022   9.015   0.572   4.325
 9927WAT     H130023   8.978   0.650   4.274
 9927WAT     H230024   9.108   0.592   4.354
 9928WAT      O30025   2.503   9.220   9.068
 9928WAT     H130026   2.492   9.190   8.973
 9928WAT     H230027   2.413   9.245   9.105
 9929WAT      O30028   5.342   2.644   7.399
 9929WAT     H130029   5.388   2.599   7.476
 9929WAT     H230030   5.305   2.732   7.430
 9930WAT      O30031   1.648   1.037   8.241
 9930WAT     H130032   1.563   0.985   8.249
 9930WAT     H230033   1.719   0.994   8.297
 9931WAT      O30034   6.222   4.114   3.022
 9931WAT     H130035   6.295   4.180   3.037
 9931WAT     H230036   6.260   4.022   3.018
 9932WAT      O30037   3.491   8.174   2.866
 9932WAT     H130038   3.534   8.261   2.841
 9932WAT     H230039   3.419   8.191   2.934
 9933WAT      O30040   9.094   2.104   1.178
 9933WAT     H130041   9.038   2.027   1.149
 9933WAT     H230042   9.039   2.165   1.235
 9934WAT      O30043   6.161   4.823   0.158
 9934WAT     H130044   6.171   4.917   0.192
 9934WAT     H230045   6.161   4.825   0.058
 9935WAT      O30046   0.408   7.619   2.692
 9935WAT     H130047   0.387   7.691   2.759
 9935WAT     H230048   0.409   7.659   2.600
 9936WAT      O30049   5.471   7.965   8.584
 9936WAT     H130050   5.446   8.020   8.664
 9936WAT     H230051   5.396   7.902   8.563
 9937WAT      O30052   8.932   7.173   9.046
 9937WAT     H130053   8.835   7.166   9.022
 9937WAT     H230054   8.985   7.112   8.988
 9938WAT      O30055   9.459   4.292   6.621
 9938WAT     H130056   9.454   4.204   6.574
 9938WAT     H230057   9.534   4.289   6.688
 9939WAT      O30058   8.589   5.150   7.865
 9939WAT     H130059   8.647   5.081   7.821
 9939WAT     H230060   8.573   5.225   7.800
 9940WAT      O30061   8.058   0.192   5.282
 9940WAT     H130062   8.084   0.110   5.232
 9940WAT     H230063   7.962   0.187   5.310
 9941WAT      O30064   8.930   4.812   1.883
 9941WAT     H130065   8.904   4.809   1.786
 9941WAT     H230066   8.980   4.729   1.906
 9942WAT      O30067   8.187   8.433   8.781
 9942WAT     H130068   8.236   8.518   8.802
 9942WAT     H230069   8.090   8.444   8.804
 9943WAT      O30070   0.918   8.332   1.007
 9943WAT     H130071   0.931   8.429   1.025
 9943WAT     H230072   0.871   8.320   0.920
 9944WAT      O30073   6.742   5.906   9.787
 9944WAT     H130074   6.643   5.897   9.775
 9944WAT     H230075   6.781   5.818   9.812
 9945WAT      O30076   3.120   5.919   7.086
 9945WAT     H130077   3.093   5.847   7.022
 9945WAT     H230078   3.215   5.904   7.114
 9946WAT      O30079   0.420   4.362   2.325
 9946WAT     H130080   0.436   4.362   2.226
 9946WAT     H230081   0.506   4.346   2.372
 9947WAT      O30082   4.238   9.768   8.586
 9947WAT     H130083   4.330   9.808   8.583
 9947WAT     H230084   4.225   9.721   8.673
 9948WAT      O30085   8.316   3.364   4.520
 9948WAT     H130086   8.239   3.303   4.506
 9948WAT     H230087   8.392   3.336   4.461
 9949WAT      O30088   5.705   3.326   8.541
 9949WAT     H130089   5.765   3.404   8.522
 9949WAT     H230090   5.761   3.246   8.566
 9950WAT      O30091   5.428   6.636   2.043
 9950WAT     H130092   5.435   6.712   2.107
 9950WAT     H230093   5.504   6.572   2.059
 9951WAT      O30094   2.758   3.507   8.857
 9951WAT     H130095   2.787   3.603   8.864
 9951WAT     H230096   2.771   3.475   8.763
 9952WAT      O30097   2.860   9.513   3.852
 9952WAT     H130098   2.903   9.547   3.936
 9952WAT     H230099   2.788   9.449   3.876
 9953WAT      O30100   8.933   7.704   0.535
 9953WAT     H130101   8.941   7.614   0.491
 9953WAT     H230102   8.851   7.706   0.592
 9954WAT      O30103   1.615   8.294   2.395
 9954WAT     H130104   1.570   8.230   2.333
 9954WAT     H230105   1.706   8.316   2.359
 9955WAT      O30106   3.533   2.726   1.338
 9955WAT     H130107   3.437   2.730   1.366
 9955WAT     H230108   3.540   2.680   1.250
 9956WAT      O30109   1.491   4.115   4.094
 9956WAT     H130110   1.454   4.080   4.180
 9956WAT     H230111   1.562   4.182   4.114
 9957WAT      O30112   1.980   5.669   6.520
 9957WAT     H130113   1.928   5.703   6.599
 9957WAT     H230114   1.925   5.601   6.471
 9958WAT      O30115   5.956   8.665   7.161
 9958WAT     H130116   5.970   8.578   7.208
 9958WAT     H230117   5.930   8.648   7.066
 9959WAT      O30118   7.947   2.977   4.453
 9959WAT     H130119   8.000   2.970   4.368
 9959WAT     H230120   7.876   2.907   4.453
 9960WAT      O30121   6.612   0.013   6.874
 9960WAT     H130122   6.667   0.002   6.792
 9960WAT     H230123   6.637   0.098   6.920
 9961WAT      O30124   2.875   1.574   4.696
 9961WAT     H130125   2.854   1.483   4.660
 9961WAT     H230126   2.793   1.611   4.741
 9962WAT      O30127   8.742   7.830   9.801
 9962WAT     H130128   8.683   7.749   9.804
 9962WAT     H230129   8.793   7.831   9.716
 9963WAT      O30130   4.206   3.137   3.312
 9963WAT     H130131   4.229   3.207   3.244
 9963WAT     H230132   4.224   3.046   3.274
 9964WAT      O30133   8.649   2.476   0.823
 9964WAT     H130134   8.722   2.423   0.780
 9964WAT     H230135   8.662   2.475   0.922
 9965WAT      O30136   6.480   1.008   1.248
 9965WAT     H130137   6.506   0.919   1.212
 9965WAT     H230138   6.495   1.010   1.347
 9966WAT      O30139   1.702   8.794   6.700
 9966WAT     H130140   1.780   8.742   6.735
 9966WAT     H230141   1.624   8.782   6.761
 9967WAT      O30142   7.747   9.672   2.251
 9967WAT     H130143   7.699   9.749   2.210
 9967WAT     H230144   7.709   9.652   2.342
 9968WAT      O30145   5.248   5.528   1.219
 9968WAT     H130146   5.344   5.532   1.247
 9968WAT     H230147   5.205   5.617   1.235
 9969WAT      O30148   7.736   6.602   9.509
 9969WAT     H130149   7.707   6.560   9.595
 9969WAT     H230150   7.733   6.535   9.435
 9970WAT      O30151   3.589   6.951   5.221
 9970WAT     H130152   3.687   6.937   5.235
 9970WAT     H230153   3.554   6.883   5.157
 9971WAT      O30154   8.317   8.095   9.367
 9971WAT     H130155   8.316   8.187   9.327
 9971WAT     H230156   8.352   8.100   9.460
 9972WAT      O30157   9.757   7.397   0.023
 9972WAT     H130158   9.662   7.364   0.018
 9972WAT     H230159   9.771   7.467  -0.047
 9973WAT      O30160   3.287   2.584   1.661
 9973WAT     H130161   3.321   2.501   1.615
 9973WAT     H230162   3.320   2.585   1.755
 9974WAT      O30163   4.591   7.143   5.800
 9974WAT     H130164   4.505   7.184   5.770
 9974WAT     H230165   4.660   7.215   5.812
 9975WAT      O30166   1.976   3.060   4.540
 9975WAT     H130167   1.912   3.007   4.596
 9975WAT     H230168   2.033   3.117   4.600
 9976WAT      O30169   7.817   1.012   9.849
 9976WAT     H130170   7.831   1.044   9.943
 9976WAT     H230171   7.720   1.014   9.827
 9977WAT      O30172   3.283   0.971   5.326
 9977WAT     H130173   3.195   0.997   5.366
 9977WAT     H230174   3.268   0.943   5.231
 9978WAT      O30175   6.523   3.073   4.040
 9978WAT     H130176   6.595   3.125   4.085
 9978WAT     H230177   6.459   3.136   3.995
 9979WAT      O30178   4.509   1.479   4.141
 9979WAT     H130179   4.524   1.576   4.156
 9979WAT     H230180   4.591   1.428   4.165
 9980WAT      O30181   3.682   7.628   0.889
 9980WAT     H130182   3.668   7.631   0.988
 9980WAT     H230183   3.727   7.543   0.864
 9981WAT      O30184   1.955   1.325   2.876
 9981WAT     H130185   1.995   1.235   2.888
 9981WAT     H230186   1.908   1.353   2.960
 9982WAT      O30187   0.053   4.002   8.274
 9982WAT     H130188   0.058   3.956   8.185
 9982WAT     H230189   0.042   3.933   8.346
 9983WAT      O30190   2.705   4.309   5.849
 9983WAT     H130191   2.625   4.339   5.901
 9983WAT     H230192   2.769   4.385   5.841
 9984WAT      O30193   1.408   2.425   1.977
 9984WAT     H130194   1.492   2.477   1.961
 9984WAT     H230195   1.349   2.431   1.897
 9985WAT      O30196   7.988   3.402   7.968
 9985WAT     H130197   8.062   3.400   7.900
 9985WAT     H230198   7.942   3.313   7.970
 9986WAT      O30199   6.035   2.599   1.945
 9986WAT     H130200   6.096   2.520   1.936
 9986WAT     H230201   5.984   2.592   2.030
 9987WAT      O30202   3.490   1.782   4.497
 9987WAT     H130203   3.480   1.881   4.503
 9987WAT     H230204   3.550   1.750   4.570
 9988WAT      O30205   9.841   9.548   7.461
 9988WAT     H130206   9.783   9.485   7.512
 9988WAT     H230207   9.863   9.627   7.518
 9989WAT      O30208   3.334   9.564   6.418
 9989WAT     H130209   3.353   9.493   6.349
 9989WAT     H230210   3.236   9.581   6.421
 9990WAT      O30211   7.891   0.536   2.167
 9990WAT     H130212   7.991   0.542   2.156
 9990WAT     H230213   7.864   0.440   2.169
 9991WAT      O30214   5.562   6.856   0.765
 9991WAT     H130215   5.611   6.794   0.825
 9991WAT     H230216   5.467   6.825   0.754
 9992WAT      O30217   8.207   4.213   3.389
 9992WAT     H130218   8.293   4.193   3.342
 9992WAT     H230219   8.210   4.307   3.423
 9993WAT      O30220   7.307   5.137   2.797
 9993WAT     H130221   7.313   5.102   2.891
 9993WAT     H230222   7.243   5.213   2.794
 9994WAT      O30223   3.487   9.654   9.506
 9994WAT     H130224   3.499   9.567   9.457
 9994WAT     H230225   3.395   9.657   9.546
 9995WAT      O30226   9.858   8.421   4.550
 9995WAT     H130227   9.770   8.463   4.529
 9995WAT     H230228   9.845   8.325   4.575
 9996WAT      O30229   7.378   2.210   6.812
 9996WAT     H130230   7.328   2.202   6.899
 9996WAT     H230231   7.440   2.132   6.802
 9997WAT      O30232   9.272   7.145   7.326
 9997WAT     H130233   9.335   7.109   7.394
 9997WAT     H230234   9.315   7.220   7.276
 9998WAT      O30235   8.115   2.492   3.413
 9998WAT     H130236   8.210   2.487   3.384
 9998WAT     H230237   8.067   2.562   3.360
 9999WAT      O30238   6.464   3.260   0.838
 9999WAT     H130239   6.562   3.279   0.844
 9999WAT     H230240   6.413   3.345   0.839
10000WAT      O30241   6.236   8.454   1.779
10000WAT     H130242   6.315   8.496   1.824
10000WAT     H230243   6.169   8.525   1.757
10001WAT      O30244   6.161   3.182   3.894
10001WAT     H130245   6.254   3.213   3.874
10001WAT     H230246   6.152   3.086   3.867
10002WAT      O30247   7.853   8.301   1.983
10002WAT     H130248   7.941   8.334   1.950
10002WAT     H230249   7.812   8.242   1.913
10003WAT      O30250   0.095   5.117   0.012
10003WAT     H130251   0.075   5.211  -0.017
10003WAT     H230252   0.015   5.059  -0.005
10004WAT      O30253   3.504   0.077   1.180
10004WAT     H130254   3.481  -0.018   1.204
10004WAT     H230255   3.588   0.077   1.126
10005WAT      O30256   2.815   5.357   9.547
10005WAT     H130257   2.905   5.369   9.589
10005WAT     H230258   2.770   5.445   9.539
10006WAT      O30259   9.079   1.810   3.514
10006WAT     H130260   9.111   1.892   3.561
10006WAT     H230261   9.039   1.747   3.580
10007WAT      O30262   3.876   5.569   2.020
10007WAT     H130263   3.966   5.595   1.987
10007WAT     H230264   3.853   5.623   2.101
10008WAT      O30265   2.479   6.825   0.443
10008WAT     H130266   2.417   6.861   0.373
10008WAT     H230267   2.444   6.738   0.476
10009WAT      O30268   6.082   2.665   6.991
10009WAT     H130269   6.036   2.752   7.010
10009WAT     H230270   6.136   2.674   6.908
10010WAT      O30271   1.630   2.550   4.208
10010WAT     H130272   1.633   2.645   4.177
10010WAT     H230273   1.603   2.491   4.132
10011WAT      O30274   3.707   3.227   2.029
10011WAT     H130275   3.736   3.309   2.079
10011WAT     H230276   3.720   3.241   1.931
10012WAT      O30277   2.375   2.649   4.459
10012WAT     H130278   2.380   2.637   4.359
10012WAT     H230279   2.297   2.707   4.482
10013WAT      O30280   1.775   8.198   4.098
10013WAT     H130281   1.867   8.162   4.114
10013WAT     H230282   1.712   8.161   4.166
10014WAT      O30283   6.843   0.071   1.163
10014WAT     H130284   6.759   0.038   1.206
10014WAT     H230285   6.853   0.028   1.073
10015WAT      O30286   3.756   2.159   1.109
10015WAT     H130287   3.694   2.122   1.178
10015WAT     H230288   3.738   2.116   1.021
10016WAT      O30289   4.541   8.829   4.059
10016WAT     H130290   4.639   8.843   4.076
10016WAT     H230291   4.529   8.774   3.976
10017WAT      O30292   2.515   2.552   7.057
10017WAT     H130293   2.550   2.583   7.145
10017WAT     H230294   2.570   2.591   6.983
10018WAT      O30295   5.905   2.515   3.814
10018WAT     H130296   5.889   2.420   3.788
10018WAT     H230297   5.944   2.518   3.906
10019WAT      O30298   4.035   8.439   7.235
10019WAT     H130299   3.978   8.484   7.304
10019WAT     H230300   4.114   8.397   7.280
10020WAT      O30301   3.203   1.909   2.356
10020WAT     H130302   3.232   2.005   2.348
10020WAT     H230303   3.159   1.880   2.271
10021WAT      O30304   4.189   5.039   2.050
10021WAT     H130305   4.148   5.096   2.122
10021WAT     H230306   4.256   4.977   2.091
10022WAT      O30307   4.467   8.700   1.821
10022WAT     H130308   4.434   8.777   1.875
10022WAT     H230309   4.550   8.663   1.863
10023WAT      O30310   2.512   1.750   1.522
10023WAT     H130311   2.449   1.697   1.580
10023WAT     H230312   2.568   1.687   1.468
10024WAT      O30313   1.965   4.727   4.951
10024WAT     H130314   2.031   4.714   4.876
10024WAT     H230315   2.011   4.770   5.029
10025WAT      O30316   2.122   4.257   5.382
10025WAT     H130317   2.194   4.224   5.320
10025WAT     H230318   2.064   4.180   5.409
10026WAT      O30319   0.151   2.829   7.305
10026WAT     H130320   0.186   2.883   7.229
10026WAT     H230321   0.051   2.829   7.302
10027WAT      O30322   4.971   2.376   6.180
10027WAT     H130323   4.894   2.334   6.131
10027WAT     H230324   4.955   2.368   6.278
10028WAT      O30325   1.979   2.125   3.998
10028WAT     H130326   1.977   2.047   3.936
10028WAT     H230327   2.065   2.126   4.049
10029WAT      O30328   3.631   4.054   2.065
10029WAT     H130329   3.562   4.086   2.000
10029WAT     H230330   3.706   4.120   2.068
10030WAT      O30331   9.140   5.442   1.857
10030WAT     H130332   9.132   5.348   1.823
10030WAT     H230333   9.102   5.505   1.790
10031WAT      O30334   5.689   1.579   7.757
10031WAT     H130335   5.592   1.595   7.739
10031WAT     H230336   5.699   1.514   7.832
10032WAT      O30337   4.128   5.726   2.412
10032WAT     H130338   4.100   5.740   2.507
10032WAT     H230339   4.196   5.653   2.407
10033WAT      O30340   8.064   2.529   9.047
10033WAT     H130341   7.968   2.525   9.074
10033WAT     H230342   8.105   2.614   9.080
10034WAT      O30343   8.462   1.982   4.237
10034WAT     H130344   8.470   1.960   4.334
10034WAT     H230345   8.511   2.068   4.219
10035WAT      O30346   4.338   3.180   8.144
10035WAT     H130347   4.398   3.260   8.135
10035WAT     H230348   4.264   3.201   8.208
10036WAT      O30349   5.808   2.210   4.065
10036WAT     H130350   5.748   2.210   4.144
10036WAT     H230351   5.767   2.155   3.992
10037WAT      O30352   6.763   9.019   2.298
10037WAT     H130353   6.830   9.001   2.371
10037WAT     H230354   6.713   9.103   2.318
10038WAT      O30355   8.215   6.801   7.324
10038WAT     H130356   8.135   6.830   7.377
10038WAT     H230357   8.282   6.875   7.319
10039WAT      O30358   9.165   4.428   5.850
10039WAT     H130359   9.089   4.381   5.805
10039WAT     H230360   9.167   4.523   5.821
10040WAT      O30361   5.627   6.241   3.188
10040WAT     H130362   5.674   6.243   3.099
10040WAT     H230363   5.544   6.297   3.183
10041WAT      O30364   8.792   0.504   9.616
10041WAT     H130365   8.824   0.459   9.533
10041WAT     H230366   8.723   0.573   9.593
10042WAT      O30367   7.155   2.926   5.646
10042WAT     H130368   7.202   2.857   5.701
10042WAT     H230369   7.125   2.886   5.560
10043WAT      O30370   9.471   8.261   4.187
10043WAT     H130371   9.543   8.259   4.257
10043WAT     H230372   9.510   8.235   4.098
10044WAT      O30373   5.439   5.020   0.695
10044WAT     H130374   5.509   5.090   0.703
10044WAT     H230375   5.433   4.970   0.782
10045WAT      O30376   5.751   4.178   8.518
10045WAT     H130377   5.846   4.145   8.520
10045WAT     H230378   5.692   4.107   8.480
10046WAT      O30379   7.257   2.986   8.035
10046WAT     H130380   7.238   2.993   8.133
10046WAT     H230381   7.172   2.965   7.986
10047WAT      O30382   4.525   2.125   7.956
10047WAT     H130383   4.531   2.196   7.887
10047WAT     H230384   4.470   2.157   8.033
10048WAT      O30385   7.323   2.070   5.061
10048WAT     H130386   7.398   2.107   5.007
10048WAT     H230387   7.260   2.144   5.085
10049WAT      O30388   2.122   6.259   6.775
10049WAT     H130389   2.107   6.197   6.698
10049WAT     H230390   2.146   6.206   6.857
10050WAT      O30391   7.365   6.966   5.101
10050WAT     H130392   7.376   7.059   5.134
10050WAT     H230393   7.452   6.933   5.065
10051WAT      O30394   4.723   3.230   4.626
10051WAT     H130395   4.625   3.209   4.629
10051WAT     H230396   4.775   3.145   4.631
10052WAT      O30397   3.077   3.943   4.539
10052WAT     H130398   3.103   4.014   4.474
10052WAT     H230399   3.140   3.866   4.530
10053WAT      O30400   7.010   3.026   4.731
10053WAT     H130401   6.948   3.090   4.685
10053WAT     H230402   7.100   3.067   4.740
10054WAT      O30403   5.592   6.002   7.694
10054WAT     H130404   5.507   5.952   7.687
10054WAT     H230405   5.605   6.032   7.789
10055WAT      O30406   8.882   9.189   6.221
10055WAT     H130407   8.882   9.091   6.244
10055WAT     H230408   8.837   9.240   6.294
10056WAT      O30409   1.750   8.634   0.998
10056WAT     H130410   1.834   8.688   1.008
10056WAT     H230411   1.764   8.564   0.928
10057WAT      O30412   4.008   0.204   0.643
10057WAT     H130413   3.965   0.121   0.677
10057WAT     H230414   4.107   0.195   0.647
10058WAT      O30415   2.027   9.039   6.013
10058WAT     H130416   1.944   9.020   6.067
10058WAT     H230417   2.002   9.054   5.918
10059WAT      O30418   3.398   5.469   3.147
10059WAT     H130419   3.422   5.392   3.206
10059WAT     H230420   3.482   5.507   3.106
10060WAT      O30421   4.376   5.555   9.068
10060WAT     H130422   4.385   5.638   9.123
10060WAT     H230423   4.462   5.503   9.072
10061WAT      O30424   0.405   6.116   4.659
10061WAT     H130425   0.426   6.018   4.653
10061WAT     H230426   0.333   6.138   4.594
10062WAT      O30427   8.157   9.684   8.124
10062WAT     H130428   8.212   9.621   8.070
10062WAT     H230429   8.161   9.776   8.083
10063WAT      O30430   9.696   7.299   0.659
10063WAT     H130431   9.629   7.283   0.586
10063WAT     H230432   9.734   7.391   0.650
10064WAT      O30433   7.897   6.916   9.724
10064WAT     H130434   7.824   6.868   9.774
10064WAT     H230435   7.981   6.914   9.778
10065WAT      O30436   2.380   0.189   7.544
10065WAT     H130437   2.420   0.245   7.617
10065WAT     H230438   2.286   0.166   7.568
10066WAT      O30439   0.987   1.515   9.457
10066WAT     H130440   0.967   1.509   9.555
10066WAT     H230441   1.060   1.582   9.442
10067WAT      O30442   4.535   6.167   4.589
10067WAT     H130443   4.596   6.197   4.515
10067WAT     H230444   4.587   6.163   4.674
10068WAT      O30445   8.550   5.948   0.483
10068WAT     H130446   8.537   5.973   0.387
10068WAT     H230447   8.629   5.998   0.520
10069WAT      O30448   3.654   6.437   0.151
10069WAT     H130449   3.684   6.519   0.199
10069WAT     H230450   3.635   6.458   0.055
10070WAT      O30451   2.469   7.580   1.703
10070WAT     H130452   2.526   7.548   1.628
10070WAT     H230453   2.527   7.614   1.777
10071WAT      O30454   3.241   4.484   0.604
10071WAT     H130455   3.142   4.496   0.593
10071WAT     H230456   3.288   4.510   0.519
10072WAT      O30457   8.049   8.606   6.736
10072WAT     H130458   8.064   8.529   6.798
10072WAT     H230459   8.031   8.688   6.790
10073WAT      O30460   2.461   9.627   9.676
10073WAT     H130461   2.362   9.637   9.665
10073WAT     H230462   2.494   9.555   9.615
10074WAT      O30463   2.766   3.758   8.482
10074WAT     H130464   2.771   3.775   8.581
10074WAT     H230465   2.858   3.741   8.447
10075WAT      O30466   1.158   0.705   3.951
10075WAT     H130467   1.186   0.724   3.857
10075WAT     H230468   1.221   0.638   3.992
10076WAT      O30469   4.886   8.365   4.266
10076WAT     H130470   4.921   8.275   4.292
10076WAT     H230471   4.963   8.424   4.239
10077WAT      O30472   7.448   1.550   1.632
10077WAT     H130473   7.350   1.529   1.634
10077WAT     H230474   7.463   1.643   1.664
10078WAT      O30475   3.115   2.700   8.284
10078WAT     H130476   3.178   2.759   8.334
10078WAT     H230477   3.042   2.755   8.243
10079WAT      O30478   1.174   0.406   5.133
10079WAT     H130479   1.199   0.319   5.090
10079WAT     H230480   1.075   0.418   5.129
10080WAT      O30481   3.788   1.785   6.496
10080WAT     H130482   3.816   1.702   6.448
10080WAT     H230483   3.722   1.761   6.568
10081WAT      O30484   0.924   1.206   4.463
10081WAT     H130485   1.018   1.223   4.494
10081WAT     H230486   0.875   1.293   4.458
10082WAT      O30487   0.393   2.822   6.721
10082WAT     H130488   0.489   2.794   6.711
10082WAT     H230489   0.369   2.883   6.645
10083WAT      O30490   1.962   7.796   6.388
10083WAT     H130491   1.973   7.859   6.311
10083WAT     H230492   1.957   7.849   6.473
10084WAT      O30493   6.801   9.489   2.257
10084WAT     H130494   6.825   9.538   2.174
10084WAT     H230495   6.885   9.461   2.305
10085WAT      O30496   2.458   1.786   4.465
10085WAT     H130497   2.377   1.797   4.522
10085WAT     H230498   2.503   1.700   4.487
10086WAT      O30499   6.110   2.041   5.149
10086WAT     H130500   6.042   1.970   5.166
10086WAT     H230501   6.127   2.091   5.234
10087WAT      O30502   1.363   2.864   1.329
10087WAT     H130503   1.268   2.893   1.327
10087WAT     H230504   1.369   2.767   1.353
10088WAT      O30505   3.048   2.906   7.213
10088WAT     H130506   3.086   2.998   7.225
10088WAT     H230507   3.100   2.841   7.268
10089WAT      O30508   4.691   0.376   9.302
10089WAT     H130509   4.667   0.454   9.245
10089WAT     H230510   4.608   0.331   9.336
10090WAT      O30511   9.252   7.085   1.959
10090WAT     H130512   9.191   7.148   2.007
10090WAT     H230513   9.329   7.136   1.921
10091WAT      O30514   0.534   1.184   0.269
10091WAT     H130515   0.528   1.267   0.214
10091WAT     H230516   0.470   1.190   0.346
10092WAT      O30517   5.452   7.439   5.838
10092WAT     H130518   5.379   7.471   5.898
10092WAT     H230519   5.418   7.363   5.782
10093WAT      O30520   3.544   2.743   2.353
10093WAT     H130521   3.498   2.811   2.295
10093WAT     H230522   3.635   2.724   2.316
10094WAT      O30523   4.749   8.883   9.091
10094WAT     H130524   4.800   8.937   9.158
10094WAT     H230525   4.800   8.881   9.005
10095WAT      O30526   3.510   9.689   6.019
10095WAT     H130527   3.594   9.657   6.064
10095WAT     H230528   3.499   9.787   6.037
10096WAT      O30529   4.476   2.817   5.536
10096WAT     H130530   4.385   2.838   5.571
10096WAT     H230531   4.545   2.839   5.606
10097WAT      O30532   1.281   0.585   0.512
10097WAT     H130533   1.203   0.581   0.450
10097WAT     H230534   1.255   0.629   0.597
10098WAT      O30535   1.644   6.857   1.702
10098WAT     H130536   1.568   6.794   1.717
10098WAT     H230537   1.693   6.870   1.788
10099WAT      O30538   6.172   3.346   2.392
10099WAT     H130539   6.127   3.409   2.456
10099WAT     H230540   6.215   3.398   2.318
10100WAT      O30541   1.270   9.588   5.149
10100WAT     H130542   1.295   9.636   5.065
10100WAT     H230543   1.184   9.626   5.184
10101WAT      O30544   6.708   1.164   2.681
10101WAT     H130545   6.650   1.240   2.708
10101WAT     H230546   6.735   1.112   2.762
10102WAT      O30547   2.700   0.733   7.297
10102WAT     H130548   2.729   0.637   7.304
10102WAT     H230549   2.768   0.785   7.246
10103WAT      O30550   7.425   7.379   7.903
10103WAT     H130551   7.523   7.365   7.919
10103WAT     H230552   7.402   7.475   7.919
10104WAT      O30553   8.700   7.477   7.873
10104WAT     H130554   8.682   7.526   7.958
10104WAT     H230555   8.687   7.540   7.795
10105WAT      O30556   2.801   6.072   6.512
10105WAT     H130557   2.713   6.030   6.532
10105WAT     H230558   2.873   6.024   6.561
10106WAT      O30559   0.759   6.175   8.658
10106WAT     H130560   0.739   6.114   8.735
10106WAT     H230561   0.686   6.243   8.649
10107WAT      O30562   6.609   1.334   9.050
10107WAT     H130563   6.632   1.240   9.074
10107WAT     H230564   6.608   1.344   8.950
10108WAT      O30565   9.742   1.336   2.321
10108WAT     H130566   9.701   1.427   2.321
10108WAT     H230567   9.842   1.344   2.322
10109WAT      O30568   0.113   3.587   2.575
10109WAT     H130569   0.051   3.566   2.500
10109WAT     H230570   0.206   3.595   2.540
10110WAT      O30571   7.335   6.313   5.509
10110WAT     H130572   7.426   6.311   5.467
10110WAT     H230573   7.284   6.392   5.475
10111WAT      O30574   3.745   2.123   5.560
10111WAT     H130575   3.843   2.140   5.573
10111WAT     H230576   3.731   2.083   5.469
10112WAT      O30577   7.014   2.914   0.546
10112WAT     H130578   7.000   2.857   0.626
10112WAT     H230579   6.992   3.009   0.568
10113WAT      O30580   7.610   9.201   8.152
10113WAT     H130581   7.543   9.142   8.106
10113WAT     H230582   7.566   9.251   8.226
10114WAT      O30583   0.853   1.759   3.910
10114WAT     H130584   0.925   1.804   3.858
10114WAT     H230585   0.770   1.752   3.855
10115WAT      O30586   2.478   5.656   4.555
10115WAT     H130587   2.546   5.659   4.481
10115WAT     H230588   2.454   5.561   4.574
10116WAT      O30589   5.218   4.232   9.008
10116WAT     H130590   5.131   4.272   8.980
10116WAT     H230591   5.261   4.188   8.929
10117WAT      O30592   9.736   6.031   3.020
10117WAT     H130593   9.792   6.007   2.941
10117WAT     H230594   9.662   6.092   2.991
10118WAT      O30595   5.786   7.433   4.464
10118WAT     H130596   5.879   7.464   4.449
10118WAT     H230597   5.772   7.346   4.418
10119WAT      O30598   2.310   1.081   9.775
10119WAT     H130599   2.356   1.119   9.695
10119WAT     H230600   2.213   1.067   9.755
10120WAT      O30601   0.398   8.805   5.654
10120WAT     H130602   0.431   8.746   5.727
10120WAT     H230603   0.312   8.848   5.682
10121WAT      O30604   6.894   6.996   4.030
10121WAT     H130605   6.857   6.930   4.096
10121WAT     H230606   6.992   7.008   4.046
10122WAT      O30607   2.403   7.509   7.783
10122WAT     H130608   2.402   7.418   7.742
10122WAT     H230609   2.495   7.547   7.777
10123WAT      O30610   6.166   2.635   1.580
10123WAT     H130611   6.093   2.586   1.533
10123WAT     H230612   6.130   2.721   1.617
10124WAT      O30613   9.500   3.327   5.301
10124WAT     H130614   9.593   3.299   5.279
10124WAT     H230615   9.455   3.255   5.355
10125WAT      O30616   2.916   1.750   2.725
10125WAT     H130617   2.952   1.701   2.804
10125WAT     H230618   2.984   1.750   2.652
10126WAT      O30619   2.165   9.020   3.707
10126WAT     H130620   2.093   9.086   3.686
10126WAT     H230621   2.128   8.927   3.704
10127WAT      O30622   3.544   3.098   5.190
10127WAT     H130623   3.481   3.101   5.112
10127WAT     H230624   3.498   3.136   5.270
10128WAT      O30625   6.339   1.908   0.551
10128WAT     H130626   6.321   1.884   0.456
10128WAT     H230627   6.334   2.008   0.562
10129WAT      O30628   5.447   9.686   0.016
10129WAT     H130629   5.535   9.716  -0.020
10129WAT     H230630   5.450   9.588   0.033
10130WAT      O30631   9.296   7.910   1.075
10130WAT     H130632   9.336   7.862   1.153
10130WAT     H230633   9.262   7.843   1.009
10131WAT      O30634   9.463   3.687   6.371
10131WAT     H130635   9.500   3.774   6.403
10131WAT     H230636   9.529   3.642   6.311
10132WAT      O30637   6.988   8.766   4.230
10132WAT     H130638   7.027   8.845   4.183
10132WAT     H230639   7.051   8.688   4.222
10133WAT      O30640   4.320   2.249   4.639
10133WAT     H130641   4.226   2.237   4.606
10133WAT     H230642   4.329   2.208   4.730
10134WAT      O30643   3.522   6.484   9.788
10134WAT     H130644   3.488   6.457   9.878
10134WAT     H230645   3.449   6.475   9.720
10135WAT      O30646   6.012   3.037   9.088
10135WAT     H130647   6.017   3.021   9.187
10135WAT     H230648   5.926   3.082   9.066
10136WAT      O30649   1.003   4.025   7.756
10136WAT     H130650   1.015   3.927   7.740
10136WAT     H230651   0.906   4.049   7.746
10137WAT      O30652   3.331   8.323   8.831
10137WAT     H130653   3.253   8.328   8.769
10137WAT     H230654   3.299   8.318   8.926
10138WAT      O30655   3.363   0.208   6.710
10138WAT     H130656   3.417   0.140   6.662
10138WAT     H230657   3.420   0.288   6.731
10139WAT      O30658   6.111   8.267   2.399
10139WAT     H130659   6.117   8.169   2.415
10139WAT     H230660   6.107   8.286   2.301
10140WAT      O30661   9.218   7.365   8.177
10140WAT     H130662   9.234   7.409   8.266
10140WAT     H230663   9.121   7.343   8.168
10141WAT      O30664   9.433   1.476   4.440
10141WAT     H130665   9.452   1.531   4.359
10141WAT     H230666   9.510   1.483   4.504
10142WAT      O30667   0.820   3.225   6.635
10142WAT     H130668   0.884   3.154   6.606
10142WAT     H230669   0.780   3.199   6.723
10143WAT      O30670   1.858   1.692   3.309
10143WAT     H130671   1.793   1.681   3.233
10143WAT     H230672   1.892   1.602   3.336
10144WAT      O30673   3.753   2.964   5.556
10144WAT     H130674   3.812   2.952   5.636
10144WAT     H230675   3.659   2.979   5.586
10145WAT      O30676   0.859   5.746   3.215
10145WAT     H130677   0.856   5.650   3.242
10145WAT     H230678   0.907   5.799   3.285
10146WAT      O30679   7.805   7.213   4.798
10146WAT     H130680   7.715   7.207   4.843
10146WAT     H230681   7.855   7.292   4.833
10147WAT      O30682   8.880   1.856   3.341
10147WAT     H130683   8.914   1.824   3.253
10147WAT     H230684   8.958   1.869   3.403
10148WAT      O30685   6.328   3.391   0.216
10148WAT     H130686   6.313   3.440   0.130
10148WAT     H230687   6.371   3.303   0.196
10149WAT      O30688   6.314   8.769   1.051
10149WAT     H130689   6.272   8.823   0.978
10149WAT     H230690   6.282   8.675   1.047
10150WAT      O30691   8.161   1.494   6.184
10150WAT     H130692   8.208   1.579   6.161
10150WAT     H230693   8.066   1.499   6.154
10151WAT      O30694   0.259   1.008   9.544
10151WAT     H130695   0.273   1.021   9.642
10151WAT     H230696   0.163   0.987   9.526
10152WAT      O30697   4.183   8.252   2.954
10152WAT     H130698   4.240   8.262   2.872
10152WAT     H230699   4.148   8.158   2.959
10153WAT      O30700   9.236   3.578   6.481
10153WAT     H130701   9.335   3.589   6.484
10153WAT     H230702   9.199   3.582   6.573
10154WAT      O30703   9.325   1.668   1.323
10154WAT     H130704   9.346   1.614   1.405
10154WAT     H230705   9.226   1.684   1.318
10155WAT      O30706   8.960   7.931   0.077
10155WAT     H130707   8.965   7.890   0.167
10155WAT     H230708   8.884   7.889   0.026
10156WAT      O30709   8.809   9.123   1.226
10156WAT     H130710   8.773   9.033   1.252
10156WAT     H230711   8.756   9.195   1.270
10157WAT      O30712   7.083   5.073   8.342
10157WAT     H130713   7.046   4.997   8.395
10157WAT     H230714   7.115   5.145   8.404
10158WAT      O30715   0.043   4.204   2.476
10158WAT     H130716   0.004   4.167   2.560
10158WAT     H230717   0.142   4.214   2.487
10159WAT      O30718   2.320   5.051   6.560
10159WAT     H130719   2.293   5.035   6.465
10159WAT     H230720   2.376   4.975   6.591
10160WAT      O30721   8.855   8.132   3.847
10160WAT     H130722   8.784   8.079   3.894
10160WAT     H230723   8.816   8.174   3.765
10161WAT      O30724   4.964   7.665   2.335
10161WAT     H130725   5.058   7.660   2.368
10161WAT     H230726   4.903   7.690   2.410
10162WAT      O30727   8.327   3.863   4.823
10162WAT     H130728   8.402   3.820   4.773
10162WAT     H230729   8.252   3.883   4.759
10163WAT      O30730   7.098   1.194   8.608
10163WAT     H130731   7.047   1.194   8.522
10163WAT     H230732   7.148   1.280   8.618
10164WAT      O30733   8.579   5.233   4.553
10164WAT     H130734   8.660   5.264   4.502
10164WAT     H230735   8.579   5.133   4.557
10165WAT      O30736   6.190   6.625   3.898
10165WAT     H130737   6.185   6.721   3.925
10165WAT     H230738   6.227   6.618   3.805
10166WAT      O30739   8.416   2.550   5.722
10166WAT     H130740   8.455   2.513   5.806
10166WAT     H230741   8.357   2.481   5.680
10167WAT      O30742   0.639   7.587   1.533
10167WAT     H130743   0.685   7.573   1.621
10167WAT     H230744   0.562   7.650   1.546
10168WAT      O30745   9.444   3.740   8.909
10168WAT     H130746   9.355   3.727   8.867
10168WAT     H230747   9.439   3.718   9.006
10169WAT      O30748   5.685   7.797   6.767
10169WAT     H130749   5.697   7.880   6.822
10169WAT     H230750   5.617   7.814   6.696
10170WAT      O30751   3.079   6.895   5.342
10170WAT     H130752   3.145   6.880   5.269
10170WAT     H230753   2.990   6.919   5.303
10171WAT      O30754   9.189   9.458   8.191
10171WAT     H130755   9.196   9.484   8.095
10171WAT     H230756   9.093   9.454   8.217
10172WAT      O30757   1.292   1.320   8.816
10172WAT     H130758   1.377   1.313   8.764
10172WAT     H230759   1.243   1.233   8.810
10173WAT      O30760   0.984   0.079   2.737
10173WAT     H130761   1.041   0.143   2.686
10173WAT     H230762   1.042   0.013   2.784
10174WAT      O30763   9.766   7.880   7.395
10174WAT     H130764   9.742   7.955   7.333
10174WAT     H230765   9.864   7.881   7.413
10175WAT      O30766   3.506   8.758   4.057
10175WAT     H130767   3.596   8.767   4.014
10175WAT     H230768   3.492   8.664   4.085
10176WAT      O30769   3.244   3.482   8.422
10176WAT     H130770   3.226   3.550   8.351
10176WAT     H230771   3.260   3.529   8.509
10177WAT      O30772   8.923   3.631   0.394
10177WAT     H130773   8.827   3.646   0.369
10177WAT     H230774   8.929   3.612   0.492
10178WAT      O30775   2.923   6.304   6.418
10178WAT     H130776   3.022   6.291   6.411
10178WAT     H230777   2.880   6.216   6.439
10179WAT      O30778   9.048   1.488   5.074
10179WAT     H130779   8.956   1.455   5.057
10179WAT     H230780   9.109   1.459   5.000
10180WAT      O30781   9.432   4.351   3.949
10180WAT     H130782   9.409   4.280   4.016
10180WAT     H230783   9.529   4.373   3.955
10181WAT      O30784   8.689   1.230   3.474
10181WAT     H130785   8.665   1.273   3.561
10181WAT     H230786   8.605   1.213   3.422
10182WAT      O30787   3.272   6.247   9.426
10182WAT     H130788   3.179   6.226   9.459
10182WAT     H230789   3.289   6.198   9.341
10183WAT      O30790   5.192   3.791   5.899
10183WAT     H130791   5.264   3.858   5.919
10183WAT     H230792   5.124   3.792   5.973
10184WAT      O30793   4.196   7.116   1.565
10184WAT     H130794   4.179   7.202   1.516
10184WAT     H230795   4.110   7.082   1.604
10185WAT      O30796   8.413   0.536   2.336
10185WAT     H130797   8.426   0.584   2.423
10185WAT     H230798   8.502   0.508   2.301
10186WAT      O30799   4.513   0.032   6.307
10186WAT     H130800   4.557   0.017   6.396
10186WAT     H230801   4.451  -0.044   6.287
10187WAT      O30802   8.982   0.176   6.986
10187WAT     H130803   8.991   0.275   6.995
10187WAT     H230804   8.931   0.155   6.902
10188WAT      O30805   4.157   4.816   9.485
10188WAT     H130806   4.152   4.746   9.557
10188WAT     H230807   4.189   4.902   9.526
10189WAT      O30808   5.603   0.693   1.557
10189WAT     H130809   5.596   0.617   1.622
10189WAT     H230810   5.638   0.659   1.470
10190WAT      O30811   9.598   0.350   5.988
10190WAT     H130812   9.500   0.348   6.006
10190WAT     H230813   9.621   0.282   5.918
10191WAT      O30814   2.439   9.383   5.615
10191WAT     H130815   2.389   9.467   5.635
10191WAT     H230816   2.500   9.363   5.692
10192WAT      O30817   8.532   5.625   8.490
10192WAT     H130818   8.560   5.532   8.466
10192WAT     H230819   8.530   5.682   8.409
10193WAT      O30820   2.022   2.758   1.813
10193WAT     H130821   2.120   2.764   1.833
10193WAT     H230822   2.008   2.698   1.735
10194WAT      O30823   4.412   0.362   0.912
10194WAT     H130824   4.325   0.365   0.962
10194WAT     H230825   4.485   0.336   0.974
10195WAT      O30826   7.016   3.490   3.600
10195WAT     H130827   7.020   3.519   3.696
10195WAT     H230828   7.100   3.440   3.578
10196WAT      O30829   7.337   4.799   5.280
10196WAT     H130830   7.239   4.790   5.259
10196WAT     H230831   7.386   4.719   5.246
10197WAT      O30832   5.971   8.875   7.596
10197WAT     H130833   5.896   8.824   7.638
10197WAT     H230834   5.955   8.973   7.607
10198WAT      O30835   4.021   9.789   6.127
10198WAT     H130836   4.080   9.713   6.098
10198WAT     H230837   4.077   9.865   6.158
10199WAT      O30838   1.994   6.588   8.313
10199WAT     H130839   2.001   6.680   8.351
10199WAT     H230840   1.908   6.546   8.342
10200WAT      O30841   5.620   3.803   8.588
10200WAT     H130842   5.695   3.814   8.654
10200WAT     H230843   5.606   3.889   8.538
10201WAT      O30844   5.139   5.754   3.098
10201WAT     H130845   5.046   5.724   3.077
10201WAT     H230846   5.136   5.842   3.146
10202WAT      O30847   5.609   1.954   4.139
10202WAT     H130848   5.614   2.029   4.204
10202WAT     H230849   5.522   1.906   4.150
10203WAT      O30850   8.588   7.140   6.604
10203WAT     H130851   8.535   7.179   6.528
10203WAT     H230852   8.636   7.058   6.572
10204WAT      O30853   1.429   8.002   9.390
10204WAT     H130854   1.457   8.055   9.310
10204WAT     H230855   1.330   7.993   9.390
10205WAT      O30856   3.051   8.443   4.894
10205WAT     H130857   3.003   8.443   4.806
10205WAT     H230858   3.110   8.362   4.899
10206WAT      O30859   5.566   6.926   6.125
10206WAT     H130860   5.495   6.896   6.189
10206WAT     H230861   5.624   6.848   6.101
10207WAT      O30862   1.687   8.917   9.527
10207WAT     H130863   1.624   8.851   9.485
10207WAT     H230864   1.660   8.931   9.623
10208WAT      O30865   7.942   9.537   3.020
10208WAT     H130866   7.914   9.575   3.108
10208WAT     H230867   8.008   9.463   3.034
10209WAT      O30868   3.030   2.119   1.023
10209WAT     H130869   2.966   2.170   1.081
10209WAT     H230870   3.113   2.099   1.074
10210WAT      O30871   1.328   8.622   4.490
10210WAT     H130872   1.411   8.669   4.521
10210WAT     H230873   1.351   8.555   4.420
10211WAT      O30874   2.268   3.176   6.862
10211WAT     H130875   2.245   3.168   6.958
10211WAT     H230876   2.331   3.253   6.849
10212WAT      O30877   6.019   6.286   7.744
10212WAT     H130878   6.036   6.383   7.731
10212WAT     H230879   5.943   6.256   7.687
10213WAT      O30880   8.160   3.003   6.294
10213WAT     H130881   8.242   2.997   6.238
10213WAT     H230882   8.163   2.934   6.366
10214WAT      O30883   5.961   3.445   6.427
10214WAT     H130884   6.026   3.483   6.361
10214WAT     H230885   6.007   3.375   6.482
10215WAT      O30886   4.705   2.584   9.807
10215WAT     H130887   4.685   2.682   9.798
10215WAT     H230888   4.771   2.556   9.737
10216WAT      O30889   5.258   6.285   6.643
10216WAT     H130890   5.264   6.339   6.726
10216WAT     H230891   5.259   6.188   6.666
10217WAT      O30892   8.150   4.539   0.620
10217WAT     H130893   8.061   4.561   0.581
10217WAT     H230894   8.206   4.621   0.625
10218WAT      O30895   0.695   4.284   2.401
10218WAT     H130896   0.732   4.300   2.310
10218WAT     H230897   0.704   4.188   2.425
10219WAT      O30898   9.119   2.462   7.136
10219WAT     H130899   9.110   2.365   7.117
10219WAT     H230900   9.213   2.483   7.161
10220WAT      O30901   6.970   6.753   9.204
10220WAT     H130902   7.023   6.697   9.268
10220WAT     H230903   6.957   6.844   9.241
10221WAT      O30904   2.184   7.119   2.726
10221WAT     H130905   2.239   7.107   2.809
10221WAT     H230906   2.234   7.175   2.660
10222WAT      O30907   4.050   0.425   7.020
10222WAT     H130908   4.037   0.464   6.929
10222WAT     H230909   4.021   0.492   7.089
10223WAT      O30910   2.655   3.411   4.312
10223WAT     H130911   2.618   3.340   4.252
10223WAT     H230912   2.590   3.486   4.320
10224WAT      O30913   9.086   9.135   1.637
10224WAT     H130914   9.186   9.130   1.632
10224WAT     H230915   9.046   9.053   1.595
10225WAT      O30916   1.781   6.528   0.033
10225WAT     H130917   1.842   6.606   0.017
10225WAT     H230918   1.836   6.446   0.050
10226WAT      O30919   8.658   4.992   5.886
10226WAT     H130920   8.732   5.059   5.891
10226WAT     H230921   8.596   5.004   5.964
10227WAT      O30922   1.959   4.219   2.670
10227WAT     H130923   1.988   4.188   2.580
10227WAT     H230924   2.026   4.285   2.706
10228WAT      O30925   4.560   0.102   0.709
10228WAT     H130926   4.462   0.112   0.721
10228WAT     H230927   4.607   0.122   0.795
10229WAT      O30928   4.880   9.684   4.218
10229WAT     H130929   4.899   9.721   4.127
10229WAT     H230930   4.781   9.685   4.234
10230WAT      O30931   3.042   0.723   9.290
10230WAT     H130932   3.024   0.648   9.226
10230WAT     H230933   3.134   0.759   9.274
10231WAT      O30934   5.938   7.852   6.997
10231WAT     H130935   5.915   7.948   7.015
10231WAT     H230936   5.889   7.793   7.061
10232WAT      O30937   2.287   1.108   6.980
10232WAT     H130938   2.214   1.041   6.969
10232WAT     H230939   2.319   1.139   6.891
10233WAT      O30940   1.772   9.824   8.450
10233WAT     H130941   1.743   9.910   8.408
10233WAT     H230942   1.837   9.843   8.524
10234WAT      O30943   0.803   6.386   9.171
10234WAT     H130944   0.718   6.339   9.194
10234WAT     H230945   0.828   6.366   9.076
10235WAT      O30946   8.874   2.395   0.683
10235WAT     H130947   8.843   2.376   0.590
10235WAT     H230948   8.953   2.455   0.681
10236WAT      O30949   1.067   7.860   6.329
10236WAT     H130950   1.116   7.944   6.351
10236WAT     H230951   1.133   7.789   6.304
10237WAT      O30952   3.763   6.553   9.651
10237WAT     H130953   3.671   6.572   9.687
10237WAT     H230954   3.784   6.455   9.663
10238WAT      O30955   1.726   9.282   3.610
10238WAT     H130956   1.772   9.206   3.656
10238WAT     H230957   1.743   9.367   3.661
10239WAT      O30958   8.284   9.812   9.435
10239WAT     H130959   8.233   9.846   9.514
10239WAT     H230960   8.328   9.888   9.388
10240WAT      O30961   6.863   8.079   2.499
10240WAT     H130962   6.770   8.086   2.537
10240WAT     H230963   6.887   8.164   2.454
10241WAT      O30964   3.825   4.304   1.748
10241WAT     H130965   3.805   4.222   1.694
10241WAT     H230966   3.777   4.300   1.835
10242WAT      O30967   1.929   6.003   4.326
10242WAT     H130968   1.897   5.922   4.374
10242WAT     H230969   1.856   6.041   4.270
10243WAT      O30970   6.378   5.537   2.832
10243WAT     H130971   6.288   5.536   2.789
10243WAT     H230972   6.400   5.629   2.862
10244WAT      O30973   9.540   0.855   1.462
10244WAT     H130974   9.503   0.939   1.501
10244WAT     H230975   9.636   0.845   1.489
10245WAT      O30976   9.354   0.098   2.673
10245WAT     H130977   9.444   0.091   2.715
10245WAT     H230978   9.317   0.007   2.658
10246WAT      O30979   4.747   8.101   6.796
10246WAT     H130980   4.800   8.108   6.712
10246WAT     H230981   4.696   8.187   6.810
10247WAT      O30982   2.637   3.909   1.102
10247WAT     H130983   2.643   4.008   1.117
10247WAT     H230984   2.692   3.861   1.171
10248WAT      O30985   2.743   9.508   7.517
10248WAT     H130986   2.843   9.503   7.522
10248WAT     H230987   2.714   9.489   7.424
10249WAT      O30988   4.051   6.363   7.374
10249WAT     H130989   4.080   6.310   7.454
10249WAT     H230990   4.085   6.319   7.291
10250WAT      O30991   9.460   7.493   4.215
10250WAT     H130992   9.499   7.404   4.191
10250WAT     H230993   9.492   7.562   4.150
10251WAT      O30994   8.678   1.010   5.453
10251WAT     H130995   8.689   1.073   5.376
10251WAT     H230996   8.677   1.062   5.538
10252WAT      O30997   1.194   6.416   8.765
10252WAT     H130998   1.292   6.404   8.752
10252WAT     H230999   1.145   6.381   8.685
10253WAT      O31000   7.276   1.121   6.976
10253WAT     H131001   7.368   1.119   7.013
10253WAT     H231002   7.211   1.090   7.046
10254WAT      O31003   7.595   8.019   0.638
10254WAT     H131004   7.650   8.069   0.571
10254WAT     H231005   7.572   7.929   0.602
10255WAT      O31006   8.539   0.738   6.417
10255WAT     H131007   8.474   0.787   6.476
10255WAT     H231008   8.631   0.775   6.431
10256WAT      O31009   3.169   7.515   1.280
10256WAT     H131010   3.154   7.511   1.379
10256WAT     H231011   3.232   7.443   1.253
10257WAT      O31012   6.581   3.551   3.273
10257WAT     H131013   6.658   3.540   3.335
10257WAT     H231014   6.587   3.484   3.199
10258WAT      O31015   9.822   3.536   2.390
10258WAT     H131016   9.758   3.461   2.373
10258WAT     H231017   9.901   3.527   2.329
10259WAT      O31018   9.171   1.569   1.666
10259WAT     H131019   9.268   1.592   1.658
10259WAT     H231020   9.147   1.499   1.598
10260WAT      O31021   0.899   5.081   1.392
10260WAT     H131022   0.914   5.027   1.309
10260WAT     H231023   0.801   5.086   1.411
10261WAT      O31024   7.880   7.998   1.623
10261WAT     H131025   7.838   8.048   1.699
10261WAT     H231026   7.842   7.906   1.618
10262WAT      O31027   8.605   1.090   2.417
10262WAT     H131028   8.507   1.070   2.420
10262WAT     H231029   8.644   1.048   2.335
10263WAT      O31030   5.147   6.538   2.310
10263WAT     H131031   5.111   6.631   2.317
10263WAT     H231032   5.075   6.472   2.333
10264WAT      O31033   4.535   9.695   7.833
10264WAT     H131034   4.459   9.683   7.897
10264WAT     H231035   4.530   9.626   7.761
10265WAT      O31036   2.355   0.899   1.289
10265WAT     H131037   2.292   0.833   1.330
10265WAT     H231038   2.449   0.867   1.301
10266WAT      O31039   1.002   2.143   3.719
10266WAT     H131040   1.060   2.084   3.663
10266WAT     H231041   1.057   2.215   3.761
10267WAT      O31042   1.196   7.526   9.029
10267WAT     H131043   1.118   7.472   8.999
10267WAT     H231044   1.163   7.611   9.071
10268WAT      O31045   4.512   4.326   3.442
10268WAT     H131046   4.496   4.361   3.534
10268WAT     H231047   4.595   4.367   3.404
10269WAT      O31048   2.610   1.903   0.686
10269WAT     H131049   2.681   1.952   0.635
10269WAT     H231050   2.555   1.968   0.737
10270WAT      O31051   8.910   7.276   0.846
10270WAT     H131052   8.978   7.304   0.778
10270WAT     H231053   8.933   7.317   0.935
10271WAT      O31054   4.642   6.580   4.339
10271WAT     H131055   4.727   6.581   4.286
10271WAT     H231056   4.663   6.571   4.436
10272WAT      O31057   2.520   3.491   8.983
10272WAT     H131058   2.469   3.415   8.943
10272WAT     H231059   2.615   3.487   8.954
10273WAT      O31060   4.906   8.685   2.477
10273WAT     H131061   5.004   8.704   2.486
10273WAT     H231062   4.884   8.599   2.524
10274WAT      O31063   9.082   2.546   6.890
10274WAT     H131064   9.127   2.468   6.847
10274WAT     H231065   9.083   2.536   6.989
10275WAT      O31066   5.511   5.767   1.379
10275WAT     H131067   5.585   5.755   1.445
10275WAT     H231068   5.509   5.689   1.316
10276WAT      O31069   8.026   3.657   6.808
10276WAT     H131070   7.986   3.571   6.838
10276WAT     H231071   8.084   3.641   6.728
10277WAT      O31072   2.358   8.645   8.785
10277WAT     H131073   2.357   8.573   8.854
10277WAT     H231074   2.266   8.686   8.779
10278WAT      O31075   9.543   9.336   4.956
10278WAT     H131076   9.573   9.258   5.010
10278WAT     H231077   9.559   9.420   5.007
10279WAT      O31078   0.997   4.344   9.553
10279WAT     H131079   0.897   4.345   9.556
10279WAT     H231080   1.033   4.429   9.593
10280WAT      O31081   6.327   1.203   3.483
10280WAT     H131082   6.302   1.225   3.577
10280WAT     H231083   6.285   1.269   3.421
10281WAT      O31084   1.730   0.712   4.877
10281WAT     H131085   1.713   0.709   4.975
10281WAT     H231086   1.662   0.771   4.833
10282WAT      O31087   1.287   1.781   5.830
10282WAT     H131088   1.368   1.757   5.777
10282WAT     H231089   1.247   1.697   5.868
10283WAT      O31090   3.110   4.093   5.149
10283WAT     H131091   3.156   4.066   5.234
10283WAT     H231092   3.011   4.077   5.158
10284WAT      O31093   1.176   6.138   2.974
10284WAT     H131094   1.250   6.075   2.950
10284WAT     H231095   1.213   6.232   2.978
10285WAT      O31096   4.935   0.990   0.145
10285WAT     H131097   5.002   1.027   0.080
10285WAT     H231098   4.846   1.033   0.128
10286WAT      O31099   8.686   1.785   0.099
10286WAT     H131100   8.688   1.738   0.010
10286WAT     H231101   8.593   1.785   0.135
10287WAT      O31102   2.040   2.957   3.352
10287WAT     H131103   2.139   2.950   3.351
10287WAT     H231104   2.010   3.014   3.275
10288WAT      O31105   1.106   9.430   1.844
10288WAT     H131106   1.039   9.442   1.770
10288WAT     H231107   1.136   9.335   1.846
10289WAT      O31108   5.825   2.488   7.186
10289WAT     H131109   5.898   2.420   7.180
10289WAT     H231110   5.864   2.580   7.187
10290WAT      O31111   1.526   3.873   9.676
10290WAT     H131112   1.545   3.918   9.589
10290WAT     H231113   1.430   3.887   9.701
10291WAT      O31114   9.050   5.703   3.755
10291WAT     H131115   9.086   5.703   3.661
10291WAT     H231116   9.107   5.644   3.812
10292WAT      O31117   1.502   6.621   3.907
10292WAT     H131118   1.421   6.567   3.883
10292WAT     H231119   1.579   6.595   3.849
10293WAT      O31120   1.314   0.711   9.767
10293WAT     H131121   1.249   0.708   9.691
10293WAT     H231122   1.312   0.624   9.816
10294WAT      O31123   0.426   5.078   2.996
10294WAT     H131124   0.394   4.983   2.994
10294WAT     H231125   0.378   5.128   3.068
10295WAT      O31126   1.686   1.339   3.380
10295WAT     H131127   1.618   1.398   3.337
10295WAT     H231128   1.653   1.312   3.471
10296WAT      O31129   4.891   9.666   9.468
10296WAT     H131130   4.961   9.645   9.536
10296WAT     H231131   4.871   9.764   9.470
10297WAT      O31132   4.279   0.316   2.719
10297WAT     H131133   4.219   0.287   2.792
10297WAT     H231134   4.259   0.264   2.636
10298WAT      O31135   2.354   8.956   8.330
10298WAT     H131136   2.391   8.878   8.280
10298WAT     H231137   2.354   9.037   8.271
10299WAT      O31138   7.528   9.337   2.385
10299WAT     H131139   7.483   9.252   2.414
10299WAT     H231140   7.625   9.333   2.409
10300WAT      O31141   9.401   6.545   8.826
10300WAT     H131142   9.439   6.598   8.751
10300WAT     H231143   9.361   6.460   8.790
10301WAT      O31144   9.210   4.547   8.296
10301WAT     H131145   9.211   4.626   8.356
10301WAT     H231146   9.209   4.577   8.201
10302WAT      O31147   4.709   7.535   1.598
10302WAT     H131148   4.626   7.579   1.633
10302WAT     H231149   4.778   7.605   1.580
10303WAT      O31150   7.370   8.676   4.153
10303WAT     H131151   7.383   8.690   4.055
10303WAT     H231152   7.285   8.626   4.169
10304WAT      O31153   6.038   0.655   5.973
10304WAT     H131154   6.135   0.652   5.998
10304WAT     H231155   6.029   0.664   5.874
10305WAT      O31156   9.794   9.783   0.960
10305WAT     H131157   9.826   9.706   0.905
10305WAT     H231158   9.872   9.827   1.005
10306WAT      O31159   7.137   1.861   5.074
10306WAT     H131160   7.100   1.833   5.163
10306WAT     H231161   7.205   1.932   5.088
10307WAT      O31162   0.231   4.033   3.533
10307WAT     H131163   0.308   4.085   3.570
10307WAT     H231164   0.162   4.095   3.498
10308WAT      O31165   9.139   3.861   8.239
10308WAT     H131166   9.126   3.946   8.188
10308WAT     H231167   9.189   3.879   8.323
10309WAT      O31168   2.712   6.095   4.885
10309WAT     H131169   2.659   6.179   4.898
10309WAT     H231170   2.654   6.025   4.843
10310WAT      O31171   6.697   3.405   4.594
10310WAT     H131172   6.767   3.476   4.589
10310WAT     H231173   6.663   3.398   4.688
10311WAT      O31174   3.265   4.579   6.340
10311WAT     H131175   3.280   4.534   6.252
10311WAT     H231176   3.173   4.619   6.342
10312WAT      O31177   5.364   2.509   2.260
10312WAT     H131178   5.412   2.483   2.344
10312WAT     H231179   5.317   2.596   2.274
10313WAT      O31180   6.610   3.003   5.685
10313WAT     H131181   6.618   3.077   5.752
10313WAT     H231182   6.615   3.040   5.593
10314WAT      O31183   9.043   4.023   7.831
10314WAT     H131184   9.027   4.119   7.805
10314WAT     H231185   8.966   3.967   7.800
10315WAT      O31186   9.087   0.424   3.585
10315WAT     H131187   9.040   0.359   3.525
10315WAT     H231188   9.058   0.409   3.679
10316WAT      O31189   0.392   7.797   6.245
10316WAT     H131190   0.330   7.724   6.219
10316WAT     H231191   0.484   7.759   6.260
10317WAT      O31192   6.077   7.325   0.821
10317WAT     H131193   6.115   7.382   0.894
10317WAT     H231194   5.993   7.282   0.853
10318WAT      O31195   4.644   8.497   4.296
10318WAT     H131196   4.722   8.436   4.281
10318WAT     H231197   4.674   8.575   4.351
10319WAT      O31198   4.782   9.794   7.643
10319WAT     H131199   4.779   9.700   7.610
10319WAT     H231200   4.736   9.854   7.577
10320WAT      O31201   5.500   0.312   1.873
10320WAT     H131202   5.519   0.216   1.852
10320WAT     H231203   5.446   0.318   1.957
10321WAT      O31204   3.462   2.679   3.718
10321WAT     H131205   3.548   2.725   3.740
10321WAT     H231206   3.433   2.703   3.626
10322WAT      O31207   7.179   9.650   9.847
10322WAT     H131208   7.190   9.619   9.753
10322WAT     H231209   7.084   9.677   9.862
10323WAT      O31210   4.942   7.791   3.827
10323WAT     H131211   4.906   7.820   3.738
10323WAT     H231212   5.018   7.727   3.813
10324WAT      O31213   4.247   7.727   8.181
10324WAT     H131214   4.188   7.802   8.211
10324WAT     H231215   4.206   7.640   8.208
10325WAT      O31216   7.799   3.889   4.294
10325WAT     H131217   7.760   3.933   4.213
10325WAT     H231218   7.758   3.798   4.305
10326WAT      O31219   8.938   4.246   6.190
10326WAT     H131220   9.035   4.257   6.208
10326WAT     H231221   8.887   4.318   6.237
10327WAT      O31222   7.906   7.006   5.223
10327WAT     H131223   7.986   6.975   5.173
10327WAT     H231224   7.927   7.012   5.320
10328WAT      O31225   5.381   6.974   8.074
10328WAT     H131226   5.331   7.030   8.008
10328WAT     H231227   5.479   6.993   8.068
10329WAT      O31228   4.257   9.690   1.079
10329WAT     H131229   4.247   9.597   1.113
10329WAT     H231230   4.342   9.729   1.115
10330WAT      O31231   5.516   3.541   9.776
10330WAT     H131232   5.476   3.453   9.804
10330WAT     H231233   5.591   3.563   9.838
10331WAT      O31234   7.859   7.285   2.750
10331WAT     H131235   7.840   7.381   2.729
10331WAT     H231236   7.776   7.231   2.736
10332WAT      O31237   3.543   3.570   0.868
10332WAT     H131238   3.588   3.483   0.890
10332WAT     H231239   3.612   3.639   0.845
10333WAT      O31240   3.271   6.853   9.069
10333WAT     H131241   3.335   6.868   8.993
10333WAT     H231242   3.210   6.931   9.076
10334WAT      O31243   7.457   8.164   4.093
10334WAT     H131244   7.547   8.190   4.129
10334WAT     H231245   7.470   8.109   4.011
10335WAT      O31246   3.985   3.544   1.251
10335WAT     H131247   3.918   3.471   1.266
10335WAT     H231248   3.967   3.619   1.314
10336WAT      O31249   3.392   8.353   9.650
10336WAT     H131250   3.310   8.298   9.666
10336WAT     H231251   3.425   8.391   9.736
10337WAT      O31252   5.487   5.802   5.786
10337WAT     H131253   5.550   5.852   5.845
10337WAT     H231254   5.454   5.720   5.833
10338WAT      O31255   6.306   6.739   7.473
10338WAT     H131256   6.282   6.830   7.441
10338WAT     H231257   6.224   6.682   7.479
10339WAT      O31258   8.531   5.209   6.078
10339WAT     H131259   8.574   5.250   5.998
10339WAT     H231260   8.488   5.280   6.133
10340WAT      O31261   4.391   6.803   5.790
10340WAT     H131262   4.362   6.830   5.882
10340WAT     H231263   4.490   6.815   5.782
10341WAT      O31264   7.714   1.070   4.491
10341WAT     H131265   7.648   1.142   4.513
10341WAT     H231266   7.792   1.110   4.442
10342WAT      O31267   4.950   7.367   2.137
10342WAT     H131268   4.880   7.327   2.078
10342WAT     H231269   4.937   7.466   2.139
10343WAT      O31270   5.122   4.194   7.043
10343WAT     H131271   5.033   4.187   7.089
10343WAT     H231272   5.160   4.286   7.059
10344WAT      O31273   1.533   4.860   1.919
10344WAT     H131274   1.484   4.821   1.841
10344WAT     H231275   1.631   4.845   1.907
10345WAT      O31276   8.111   2.131   6.811
10345WAT     H131277   8.136   2.035   6.824
10345WAT     H231278   8.061   2.163   6.891
10346WAT      O31279   3.462   7.298   6.898
10346WAT     H131280   3.526   7.227   6.870
10346WAT     H231281   3.477   7.381   6.843
10347WAT      O31282   9.214   7.552   9.261
10347WAT     H131283   9.233   7.602   9.176
10347WAT     H231284   9.124   7.509   9.255
10348WAT      O31285   3.354   4.895   9.270
10348WAT     H131286   3.362   4.985   9.311
10348WAT     H231287   3.445   4.861   9.245
10349WAT      O31288   2.877   8.471   5.560
10349WAT     H131289   2.925   8.492   5.475
10349WAT     H231290   2.857   8.373   5.563
10350WAT      O31291   9.437   7.741   4.327
10350WAT     H131292   9.443   7.642   4.316
10350WAT     H231293   9.356   7.775   4.281
10351WAT      O31294   9.752   1.566   7.330
10351WAT     H131295   9.758   1.514   7.415
10351WAT     H231296   9.658   1.597   7.317
10352WAT      O31297   1.280   6.085   4.832
10352WAT     H131298   1.283   5.993   4.793
10352WAT     H231299   1.351   6.141   4.791
10353WAT      O31300   7.732   2.083   2.857
10353WAT     H131301   7.692   1.998   2.893
10353WAT     H231302   7.817   2.062   2.809
10354WAT      O31303   0.075   5.037   8.605
10354WAT     H131304  -0.023   5.037   8.586
10354WAT     H231305   0.095   4.976   8.681
10355WAT      O31306   9.203   1.666   4.340
10355WAT     H131307   9.297   1.684   4.314
10355WAT     H231308   9.147   1.746   4.319
10356WAT      O31309   4.927   0.694   3.226
10356WAT     H131310   4.864   0.723   3.155
10356WAT     H231311   5.018   0.728   3.206
10357WAT      O31312   2.027   1.691   6.766
10357WAT     H131313   2.003   1.773   6.818
10357WAT     H231314   2.064   1.622   6.827
10358WAT      O31315   1.908   9.171   0.151
10358WAT     H131316   1.920   9.250   0.091
10358WAT     H231317   1.929   9.087   0.100
10359WAT      O31318   6.724   4.695   5.955
10359WAT     H131319   6.667   4.687   5.873
10359WAT     H231320   6.685   4.640   6.029
10360WAT      O31321   2.366   6.389   4.735
10360WAT     H131322   2.305   6.451   4.784
10360WAT     H231323   2.320   6.355   4.653
10361WAT      O31324   9.078   5.410   0.815
10361WAT     H131325   9.086   5.328   0.872
10361WAT     H231326   9.169   5.439   0.786
10362WAT      O31327   1.167   4.173   9.704
10362WAT     H131328   1.150   4.139   9.797
10362WAT     H231329   1.092   4.231   9.675
10363WAT      O31330   6.187   4.534   0.079
10363WAT     H131331   6.102   4.501   0.122
10363WAT     H231332   6.219   4.616   0.126
10364WAT      O31333   6.272   2.393   1.210
10364WAT     H131334   6.302   2.297   1.209
10364WAT     H231335   6.172   2.396   1.213
10365WAT      O31336   9.123   1.492   6.727
10365WAT     H131337   9.129   1.574   6.670
10365WAT     H231338   9.203   1.485   6.785
10366WAT      O31339   5.069   2.980   8.360
10366WAT     H131340   5.020   3.065   8.341
10366WAT     H231341   5.083   2.929   8.276
10367WAT      O31342   2.714   7.167   8.434
10367WAT     H131343   2.691   7.257   8.472
10367WAT     H231344   2.637   7.105   8.448
10368WAT      O31345   1.242   2.339   2.251
10368WAT     H131346   1.277   2.338   2.344
10368WAT     H231347   1.317   2.323   2.187
10369WAT      O31348   0.265   3.481   1.859
10369WAT     H131349   0.259   3.398   1.803
10369WAT     H231350   0.331   3.466   1.933
10370WAT      O31351   6.663   1.395   4.369
10370WAT     H131352   6.738   1.440   4.321
10370WAT     H231353   6.631   1.317   4.316
10371WAT      O31354   0.140   7.087   3.080
10371WAT     H131355   0.191   7.001   3.084
10371WAT     H231356   0.150   7.128   2.990
10372WAT      O31357   1.017   6.106   8.774
10372WAT     H131358   0.974   6.030   8.822
10372WAT     H231359   0.949   6.152   8.717
10373WAT      O31360   9.682   2.388   5.126
10373WAT     H131361   9.730   2.379   5.039
10373WAT     H231362   9.745   2.368   5.201
10374WAT      O31363   5.732   1.123   4.314
10374WAT     H131364   5.726   1.204   4.373
10374WAT     H231365   5.666   1.132   4.239
10375WAT      O31366   2.113   9.796   3.667
10375WAT     H131367   2.203   9.793   3.709
10375WAT     H231368   2.084   9.892   3.657
10376WAT      O31369   9.486   8.158   1.765
10376WAT     H131370   9.405   8.190   1.717
10376WAT     H231371   9.500   8.213   1.847
10377WAT      O31372   0.427   4.690   7.520
10377WAT     H131373   0.465   4.770   7.567
10377WAT     H231374   0.403   4.620   7.587
10378WAT      O31375   1.292   2.318   2.521
10378WAT     H131376   1.263   2.413   2.511
10378WAT     H231377   1.378   2.315   2.573
10379WAT      O31378   3.860   9.638   9.623
10379WAT     H131379   3.892   9.621   9.530
10379WAT     H231380   3.793   9.568   9.648
10380WAT      O31381   3.615   8.021   3.743
10380WAT     H131382   3.627   8.037   3.645
10380WAT     H231383   3.571   7.932   3.757
10381WAT      O31384   1.677   1.290   5.742
10381WAT     H131385   1.611   1.242   5.685
10381WAT     H231386   1.737   1.345   5.685
10382WAT      O31387   8.763   9.252   8.712
10382WAT     H131388   8.771   9.175   8.775
10382WAT     H231389   8.673   9.295   8.723
10383WAT      O31390   1.235   3.069   5.618
10383WAT     H131391   1.148   3.116   5.633
10383WAT     H231392   1.297   3.089   5.694
10384WAT      O31393   3.973   4.379   0.509
10384WAT     H131394   4.041   4.437   0.463
10384WAT     H231395   3.883   4.422   0.502
10385WAT      O31396   8.528   3.581   5.209
10385WAT     H131397   8.487   3.654   5.154
10385WAT     H231398   8.505   3.595   5.305
10386WAT      O31399   8.889   3.793   3.137
10386WAT     H131400   8.944   3.710   3.131
10386WAT     H231401   8.835   3.791   3.222
10387WAT      O31402   3.578   1.194   5.793
10387WAT     H131403   3.491   1.195   5.744
10387WAT     H231404   3.626   1.281   5.776
10388WAT      O31405   4.837   2.164   2.678
10388WAT     H131406   4.820   2.256   2.643
10388WAT     H231407   4.826   2.163   2.778
10389WAT      O31408   2.927   9.433   7.180
10389WAT     H131409   2.840   9.386   7.171
10389WAT     H231410   2.913   9.532   7.175
10390WAT      O31411   0.598   7.416   9.625
10390WAT     H131412   0.583   7.375   9.715
10390WAT     H231413   0.657   7.356   9.571
10391WAT      O31414   7.547   0.252   1.189
10391WAT     H131415   7.599   0.182   1.139
10391WAT     H231416   7.596   0.339   1.183
10392WAT      O31417   3.136   6.648   6.496
10392WAT     H131418   3.167   6.607   6.581
10392WAT     H231419   3.213   6.661   6.434
10393WAT      O31420   5.356   3.041   7.186
10393WAT     H131421   5.308   2.984   7.251
10393WAT     H231422   5.368   3.133   7.225
10394WAT      O31423   2.751   2.457   9.253
10394WAT     H131424   2.772   2.410   9.339
10394WAT     H231425   2.657   2.491   9.255
10395WAT      O31426   3.609   2.629   9.241
10395WAT     H131427   3.562   2.716   9.223
10395WAT     H231428   3.605   2.571   9.160
10396WAT      O31429   1.629   0.511   1.474
10396WAT     H131430   1.638   0.599   1.428
10396WAT     H231431   1.714   0.459   1.464
10397WAT      O31432   8.953   8.670   8.358
10397WAT     H131433   8.938   8.682   8.456
10397WAT     H231434   8.889   8.601   8.323
10398WAT      O31435   5.712   2.853   8.507
10398WAT     H131436   5.804   2.845   8.545
10398WAT     H231437   5.699   2.786   8.434
10399WAT      O31438   0.080   6.504   1.989
10399WAT     H131439  -0.018   6.515   2.009
10399WAT     H231440   0.131   6.499   2.074
10400WAT      O31441   3.253   4.748   2.507
10400WAT     H131442   3.300   4.829   2.542
10400WAT     H231443   3.296   4.665   2.545
10401WAT      O31444   8.084   6.427   7.621
10401WAT     H131445   8.108   6.452   7.715
10401WAT     H231446   7.989   6.453   7.603
10402WAT      O31447   3.566   8.575   6.979
10402WAT     H131448   3.514   8.612   6.901
10402WAT     H231449   3.619   8.648   7.021
10403WAT      O31450   1.622   1.356   8.007
10403WAT     H131451   1.592   1.273   7.961
10403WAT     H231452   1.626   1.340   8.106
10404WAT      O31453   0.943   0.193   5.898
10404WAT     H131454   0.883   0.153   5.829
10404WAT     H231455   1.027   0.225   5.855
10405WAT      O31456   5.372   5.346   4.284
10405WAT     H131457   5.450   5.284   4.278
10405WAT     H231458   5.337   5.347   4.377
10406WAT      O31459   6.392   6.180   3.593
10406WAT     H131460   6.310   6.227   3.561
10406WAT     H231461   6.367   6.115   3.665
10407WAT      O31462   3.322   9.481   2.095
10407WAT     H131463   3.391   9.553   2.091
10407WAT     H231464   3.359   9.398   2.052
10408WAT      O31465   0.555   6.037   1.095
10408WAT     H131466   0.634   6.096   1.079
10408WAT     H231467   0.538   6.029   1.193
10409WAT      O31468   1.983   4.719   7.626
10409WAT     H131469   1.972   4.785   7.551
10409WAT     H231470   1.999   4.769   7.711
10410WAT      O31471   1.862   5.387   3.028
10410WAT     H131472   1.858   5.486   3.034
10410WAT     H231473   1.774   5.348   3.058
10411WAT      O31474   8.652   0.539   8.138
10411WAT     H131475   8.721   0.537   8.210
10411WAT     H231476   8.582   0.606   8.161
10412WAT      O31477   0.754   9.713   2.853
10412WAT     H131478   0.843   9.668   2.852
10412WAT     H231479   0.733   9.748   2.762
10413WAT      O31480   5.110   5.064   2.394
10413WAT     H131481   5.021   5.021   2.410
10413WAT     H231482   5.145   5.036   2.305
10414WAT      O31483   2.329   1.633   6.225
10414WAT     H131484   2.343   1.590   6.136
10414WAT     H231485   2.385   1.585   6.293
10415WAT      O31486   2.982   6.629   4.260
10415WAT     H131487   3.023   6.549   4.305
10415WAT     H231488   3.052   6.678   4.208
10416WAT      O31489   6.636   5.268   7.329
10416WAT     H131490   6.690   5.204   7.274
10416WAT     H231491   6.563   5.308   7.274
10417WAT      O31492   1.607   9.244   2.594
10417WAT     H131493   1.638   9.339   2.601
10417WAT     H231494   1.535   9.227   2.662
10418WAT      O31495   0.336   6.798   4.901
10418WAT     H131496   0.378   6.726   4.958
10418WAT     H231497   0.385   6.884   4.915
10419WAT      O31498   1.912   0.819   8.136
10419WAT     H131499   2.010   0.799   8.132
10419WAT     H231500   1.864   0.766   8.066
10420WAT      O31501   5.959   8.395   2.870
10420WAT     H131502   6.057   8.380   2.879
10420WAT     H231503   5.932   8.381   2.775
10421WAT      O31504   3.792   6.253   2.625
10421WAT     H131505   3.891   6.262   2.629
10421WAT     H231506   3.767   6.157   2.619
10422WAT      O31507   0.062   7.646   3.911
10422WAT     H131508   0.006   7.703   3.850
10422WAT     H231509   0.010   7.565   3.938
10423WAT      O31510   5.474   4.215   9.393
10423WAT     H131511   5.522   4.233   9.479
10423WAT     H231512   5.400   4.151   9.409
10424WAT      O31513   3.927   5.711   8.904
10424WAT     H131514   3.945   5.617   8.933
10424WAT     H231515   3.954   5.775   8.976
10425WAT      O31516   5.368   0.481   8.235
10425WAT     H131517   5.300   0.547   8.204
10425WAT     H231518   5.460   0.515   8.212
10426WAT      O31519   2.845   9.800   5.796
10426WAT     H131520   2.944   9.789   5.790
10426WAT     H231521   2.804   9.714   5.827
10427WAT      O31522   3.378   4.653   9.606
10427WAT     H131523   3.467   4.679   9.571
10427WAT     H231524   3.389   4.581   9.675
10428WAT      O31525   8.495   8.954   5.870
10428WAT     H131526   8.402   8.949   5.833
10428WAT     H231527   8.537   8.863   5.867
10429WAT      O31528   0.568   9.248   3.331
10429WAT     H131529   0.591   9.232   3.235
10429WAT     H231530   0.651   9.271   3.382
10430WAT      O31531   6.692   6.105   9.174
10430WAT     H131532   6.742   6.188   9.148
10430WAT     H231533   6.673   6.050   9.093
10431WAT      O31534   1.031   9.661   5.287
10431WAT     H131535   1.061   9.739   5.342
10431WAT     H231536   0.934   9.644   5.303
10432WAT      O31537   1.981   5.111   9.189
10432WAT     H131538   2.077   5.134   9.174
10432WAT     H231539   1.938   5.182   9.245
10433WAT      O31540   0.641   2.109   9.360
10433WAT     H131541   0.732   2.123   9.322
10433WAT     H231542   0.641   2.133   9.457
10434WAT      O31543   8.809   2.318   1.114
10434WAT     H131544   8.872   2.295   1.040
10434WAT     H231545   8.722   2.271   1.099
10435WAT      O31546   7.299   7.155   6.651
10435WAT     H131547   7.273   7.163   6.747
10435WAT     H231548   7.230   7.201   6.594
10436WAT      O31549   5.946   2.458   1.201
10436WAT     H131550   5.984   2.550   1.211
10436WAT     H231551   5.899   2.432   1.285
10437WAT      O31552   9.054   7.313   6.049
10437WAT     H131553   9.076   7.340   6.143
10437WAT     H231554   8.955   7.316   6.036
10438WAT      O31555   5.668   6.864   6.586
10438WAT     H131556   5.747   6.803   6.576
10438WAT     H231557   5.588   6.821   6.545
10439WAT      O31558   3.178   3.020   8.888
10439WAT     H131559   3.233   3.026   8.971
10439WAT     H231560   3.107   3.090   8.889
10440WAT      O31561   1.834   3.422   5.267
10440WAT     H131562   1.768   3.445   5.196
10440WAT     H231563   1.788   3.416   5.356
10441WAT      O31564   5.259   0.601   7.595
10441WAT     H131565   5.267   0.661   7.515
10441WAT     H231566   5.217   0.515   7.568
10442WAT      O31567   5.796   8.810   1.082
10442WAT     H131568   5.873   8.807   1.018
10442WAT     H231569   5.790   8.901   1.122
10443WAT      O31570   4.765   1.987   3.744
10443WAT     H131571   4.775   1.965   3.841
10443WAT     H231572   4.677   2.033   3.729
10444WAT      O31573   1.834   0.790   4.558
10444WAT     H131574   1.749   0.813   4.604
10444WAT     H231575   1.815   0.760   4.464
10445WAT      O31576   2.223   9.410   4.386
10445WAT     H131577   2.212   9.311   4.385
10445WAT     H231578   2.308   9.434   4.432
10446WAT      O31579   1.788   9.708   5.872
10446WAT     H131580   1.802   9.609   5.874
10446WAT     H231581   1.873   9.753   5.844
10447WAT      O31582   3.393   4.964   5.109
10447WAT     H131583   3.356   5.056   5.117
10447WAT     H231584   3.382   4.932   5.015
10448WAT      O31585   8.971   6.841   9.211
10448WAT     H131586   8.945   6.816   9.304
10448WAT     H231587   9.055   6.793   9.187
10449WAT      O31588   9.011   3.050   8.019
10449WAT     H131589   9.049   3.089   7.935
10449WAT     H231590   8.957   2.969   7.996
10450WAT      O31591   1.216   7.349   4.737
10450WAT     H131592   1.201   7.426   4.675
10450WAT     H231593   1.314   7.332   4.746
10451WAT      O31594   0.194   7.244   5.465
10451WAT     H131595   0.134   7.315   5.503
10451WAT     H231596   0.139   7.175   5.418
10452WAT      O31597   1.238   3.729   1.574
10452WAT     H131598   1.206   3.718   1.668
10452WAT     H231599   1.273   3.821   1.561
10453WAT      O31600   3.117   7.716   0.535
10453WAT     H131601   3.059   7.650   0.584
10453WAT     H231602   3.158   7.779   0.601
10454WAT      O31603   6.678   3.586   2.004
10454WAT     H131604   6.710   3.680   2.017
10454WAT     H231605   6.703   3.531   2.083
10455WAT      O31606   7.811   0.410   2.823
10455WAT     H131607   7.871   0.390   2.746
10455WAT     H231608   7.862   0.461   2.892
10456WAT      O31609   8.324   2.456   2.236
10456WAT     H131610   8.233   2.495   2.251
10456WAT     H231611   8.370   2.444   2.324
10457WAT      O31612   4.489   7.162   8.539
10457WAT     H131613   4.552   7.125   8.607
10457WAT     H231614   4.507   7.117   8.451
10458WAT      O31615   0.458   5.851   0.442
10458WAT     H131616   0.546   5.897   0.431
10458WAT     H231617   0.450   5.816   0.536
10459WAT      O31618   4.483   4.586   0.637
10459WAT     H131619   4.543   4.652   0.681
10459WAT     H231620   4.518   4.564   0.546
10460WAT      O31621   4.902   6.594   9.185
10460WAT     H131622   4.833   6.636   9.127
10460WAT     H231623   4.984   6.651   9.186
10461WAT      O31624   1.047   5.800   4.919
10461WAT     H131625   1.100   5.755   4.991
10461WAT     H231626   0.952   5.810   4.948
10462WAT      O31627   7.243   1.056   7.452
10462WAT     H131628   7.160   1.020   7.495
10462WAT     H231629   7.270   1.140   7.499
10463WAT      O31630   3.972   6.849   1.612
10463WAT     H131631   3.936   6.939   1.587
10463WAT     H231632   3.956   6.784   1.538
10464WAT      O31633   6.806   2.621   5.085
10464WAT     H131634   6.904   2.639   5.100
10464WAT     H231635   6.760   2.612   5.174
10465WAT      O31636   3.618   5.763   2.841
10465WAT     H131637   3.681   5.696   2.880
10465WAT     H231638   3.556   5.718   2.777
10466WAT      O31639   6.331   2.663   8.837
10466WAT     H131640   6.383   2.610   8.770
10466WAT     H231641   6.362   2.759   8.834
10467WAT      O31642   0.844   9.229   9.521
10467WAT     H131643   0.904   9.299   9.559
10467WAT     H231644   0.749   9.258   9.531
10468WAT      O31645   3.328   1.906   3.588
10468WAT     H131646   3.378   1.820   3.601
10468WAT     H231647   3.387   1.983   3.610
10469WAT      O31648   3.669   9.812   0.756
10469WAT     H131649   3.599   9.864   0.708
10469WAT     H231650   3.657   9.715   0.739
10470WAT      O31651   0.921   2.032   6.493
10470WAT     H131652   0.849   2.059   6.557
10470WAT     H231653   0.881   1.975   6.421
10471WAT      O31654   9.383   2.624   5.217
10471WAT     H131655   9.328   2.589   5.140
10471WAT     H231656   9.472   2.653   5.183
10472WAT      O31657   8.203   8.260   6.538
10472WAT     H131658   8.130   8.245   6.604
10472WAT     H231659   8.176   8.221   6.449
10473WAT      O31660   2.300   4.126   2.566
10473WAT     H131661   2.238   4.052   2.541
10473WAT     H231662   2.318   4.184   2.487
10474WAT      O31663   6.033   6.707   1.284
10474WAT     H131664   6.037   6.612   1.253
10474WAT     H231665   6.065   6.768   1.212
10475WAT      O31666   8.283   0.252   0.784
10475WAT     H131667   8.339   0.331   0.760
10475WAT     H231668   8.336   0.190   0.841
10476WAT      O31669   3.006   2.619   6.628
10476WAT     H131670   2.974   2.530   6.596
10476WAT     H231671   2.996   2.624   6.728
10477WAT      O31672   4.368   4.018   8.506
10477WAT     H131673   4.417   3.937   8.474
10477WAT     H231674   4.352   4.079   8.428
10478WAT      O31675   5.319   8.684   4.971
10478WAT     H131676   5.385   8.753   5.002
10478WAT     H231677   5.231   8.701   5.014
10479WAT      O31678   7.103   4.553   7.042
10479WAT     H131679   7.027   4.558   7.106
10479WAT     H231680   7.077   4.598   6.956
10480WAT      O31681   0.280   4.315   2.624
10480WAT     H131682   0.349   4.381   2.653
10480WAT     H231683   0.322   4.226   2.608
10481WAT      O31684   2.308   5.811   5.712
10481WAT     H131685   2.241   5.825   5.640
10481WAT     H231686   2.399   5.802   5.672
10482WAT      O31687   3.807   1.785   5.342
10482WAT     H131688   3.762   1.698   5.325
10482WAT     H231689   3.843   1.787   5.436
10483WAT      O31690   1.643   9.702   0.988
10483WAT     H131691   1.657   9.793   0.948
10483WAT     H231692   1.730   9.654   0.990
10484WAT      O31693   4.291   8.376   6.049
10484WAT     H131694   4.351   8.440   6.001
10484WAT     H231695   4.346   8.307   6.096
10485WAT      O31696   9.684   2.380   3.198
10485WAT     H131697   9.591   2.367   3.233
10485WAT     H231698   9.682   2.394   3.099
10486WAT      O31699   5.045   5.323   8.659
10486WAT     H131700   4.946   5.317   8.654
10486WAT     H231701   5.086   5.280   8.579
10487WAT      O31702   5.037   7.287   6.908
10487WAT     H131703   5.034   7.326   6.816
10487WAT     H231704   4.979   7.341   6.970
10488WAT      O31705   6.522   8.685   1.178
10488WAT     H131706   6.600   8.654   1.123
10488WAT     H231707   6.448   8.712   1.117
10489WAT      O31708   9.751   2.886   8.207
10489WAT     H131709   9.697   2.898   8.290
10489WAT     H231710   9.694   2.906   8.127
10490WAT      O31711   6.556   8.867   6.972
10490WAT     H131712   6.625   8.928   6.933
10490WAT     H231713   6.506   8.915   7.044
10491WAT      O31714   1.133   0.593   7.737
10491WAT     H131715   1.163   0.688   7.727
10491WAT     H231716   1.050   0.590   7.793
10492WAT      O31717   4.071   2.340   6.947
10492WAT     H131718   4.075   2.431   6.987
10492WAT     H231719   4.085   2.346   6.848
10493WAT      O31720   5.373   1.336   1.560
10493WAT     H131721   5.288   1.324   1.612
10493WAT     H231722   5.431   1.402   1.607
10494WAT      O31723   1.516   1.616   7.327
10494WAT     H131724   1.416   1.619   7.330
10494WAT     H231725   1.545   1.531   7.284
10495WAT      O31726   5.410   1.343   8.773
10495WAT     H131727   5.436   1.435   8.741
10495WAT     H231728   5.473   1.276   8.735
10496WAT      O31729   9.203   0.357   3.207
10496WAT     H131730   9.270   0.330   3.276
10496WAT     H231731   9.206   0.293   3.130
10497WAT      O31732   8.498   5.208   8.601
10497WAT     H131733   8.462   5.301   8.604
10497WAT     H231734   8.585   5.204   8.650
10498WAT      O31735   1.775   4.694   2.863
10498WAT     H131736   1.847   4.736   2.807
10498WAT     H231737   1.688   4.698   2.814
10499WAT      O31738   8.535   6.118   9.393
10499WAT     H131739   8.462   6.168   9.439
10499WAT     H231740   8.624   6.147   9.429
10500WAT      O31741   3.298   4.760   1.986
10500WAT     H131742   3.224   4.700   1.956
10500WAT     H231743   3.339   4.723   2.069
10501WAT      O31744   2.291   8.537   0.923
10501WAT     H131745   2.358   8.492   0.864
10501WAT     H231746   2.245   8.610   0.873
10502WAT      O31747   1.833   3.257   3.575
10502WAT     H131748   1.776   3.336   3.552
10502WAT     H231749   1.825   3.188   3.503
10503WAT      O31750   9.333   4.593   3.588
10503WAT     H131751   9.330   4.598   3.488
10503WAT     H231752   9.344   4.498   3.616
10504WAT      O31753   5.732   7.972   5.543
10504WAT     H131754   5.651   7.914   5.544
10504WAT     H231755   5.800   7.937   5.608
10505WAT      O31756   6.038   5.811   3.344
10505WAT     H131757   6.026   5.861   3.258
10505WAT     H231758   6.103   5.737   3.331
10506WAT      O31759   9.093   8.506   5.927
10506WAT     H131760   9.030   8.496   5.849
10506WAT     H231761   9.173   8.559   5.899
10507WAT      O31762   8.276   8.686   4.535
10507WAT     H131763   8.186   8.647   4.515
10507WAT     H231764   8.327   8.696   4.450
10508WAT      O31765   3.440   3.571   3.724
10508WAT     H131766   3.478   3.518   3.648
10508WAT     H231767   3.435   3.667   3.697
10509WAT      O31768   4.754   7.800   0.688
10509WAT     H131769   4.756   7.804   0.588
10509WAT     H231770   4.760   7.705   0.718
10510WAT      O31771   4.946   2.628   2.783
10510WAT     H131772   4.962   2.607   2.686
10510WAT     H231773   4.972   2.549   2.839
10511WAT      O31774   1.444   0.072   8.448
10511WAT     H131775   1.428   0.133   8.371
10511WAT     H231776   1.491   0.122   8.522
10512WAT      O31777   7.227   5.215   8.551
10512WAT     H131778   7.253   5.204   8.647
10512WAT     H231779   7.215   5.312   8.531
10513WAT      O31780   0.070   2.038   1.577
10513WAT     H131781   0.119   1.959   1.538
10513WAT     H231782  -0.027   2.031   1.555
10514WAT      O31783   4.864   5.330   9.321
10514WAT     H131784   4.904   5.412   9.361
10514WAT     H231785   4.925   5.294   9.250
10515WAT      O31786   0.937   1.242   4.849
10515WAT     H131787   0.919   1.256   4.947
10515WAT     H231788   0.941   1.144   4.829
10516WAT      O31789   1.415   3.353   8.069
10516WAT     H131790   1.441   3.298   7.989
10516WAT     H231791   1.498   3.385   8.116
10517WAT      O31792   9.177   2.134   8.340
10517WAT     H131793   9.178   2.146   8.241
10517WAT     H231794   9.185   2.037   8.362
10518WAT      O31795   7.025   4.897   8.142
10518WAT     H131796   7.034   4.987   8.185
10518WAT     H231797   7.030   4.908   8.043
10519WAT      O31798   2.995   9.023   2.086
10519WAT     H131799   3.045   9.068   2.012
10519WAT     H231800   2.970   8.931   2.058
10520WAT      O31801   3.560   5.391   8.913
10520WAT     H131802   3.642   5.335   8.900
10520WAT     H231803   3.585   5.487   8.919
10521WAT      O31804   1.309   7.924   5.985
10521WAT     H131805   1.332   8.020   5.965
10521WAT     H231806   1.379   7.864   5.946
10522WAT      O31807   7.714   6.971   8.666
10522WAT     H131808   7.722   6.890   8.607
10522WAT     H231809   7.805   6.998   8.697
10523WAT      O31810   1.956   5.165   1.666
10523WAT     H131811   1.873   5.128   1.709
10523WAT     H231812   1.993   5.238   1.722
10524WAT      O31813   9.573   2.779   2.237
10524WAT     H131814   9.496   2.761   2.297
10524WAT     H231815   9.593   2.698   2.182
10525WAT      O31816   5.591   2.362   5.590
10525WAT     H131817   5.560   2.327   5.678
10525WAT     H231818   5.689   2.383   5.596
10526WAT      O31819   2.652   9.122   6.390
10526WAT     H131820   2.672   9.099   6.485
10526WAT     H231821   2.556   9.149   6.382
10527WAT      O31822   6.458   1.473   7.853
10527WAT     H131823   6.524   1.532   7.900
10527WAT     H231824   6.391   1.529   7.806
10528WAT      O31825   0.260   2.991   0.330
10528WAT     H131826   0.321   2.919   0.362
10528WAT     H231827   0.266   3.069   0.392
10529WAT      O31828   2.852   5.255   0.316
10529WAT     H131829   2.878   5.299   0.230
10529WAT     H231830   2.774   5.194   0.300
10530WAT      O31831   6.322   1.706   5.886
10530WAT     H131832   6.324   1.785   5.825
10530WAT     H231833   6.359   1.733   5.975
10531WAT      O31834   7.820   9.116   8.497
10531WAT     H131835   7.723   9.097   8.510
10531WAT     H231836   7.862   9.044   8.441
10532WAT      O31837   0.834   2.573   6.102
10532WAT     H131838   0.865   2.485   6.138
10532WAT     H231839   0.735   2.572   6.093
10533WAT      O31840   5.631   8.912   7.388
10533WAT     H131841   5.654   8.996   7.339
10533WAT     H231842   5.641   8.928   7.487
10534WAT      O31843   7.103   4.864   0.410
10534WAT     H131844   7.020   4.892   0.362
10534WAT     H231845   7.115   4.765   0.401
10535WAT      O31846   3.939   7.895   5.353
10535WAT     H131847   3.879   7.974   5.367
10535WAT     H231848   4.033   7.920   5.377
10536WAT      O31849   4.574   9.488   2.092
10536WAT     H131850   4.639   9.429   2.043
10536WAT     H231851   4.622   9.538   2.164
10537WAT      O31852   7.134   0.010   2.832
10537WAT     H131853   7.100  -0.040   2.753
10537WAT     H231854   7.216   0.060   2.806
10538WAT      O31855   0.269   5.391   7.048
10538WAT     H131856   0.360   5.420   7.079
10538WAT     H231857   0.201   5.459   7.078
10539WAT      O31858   1.387   4.120   2.249
10539WAT     H131859   1.425   4.163   2.331
10539WAT     H231860   1.359   4.026   2.270
10540WAT      O31861   3.005   9.250   9.246
10540WAT     H131862   2.956   9.165   9.265
10540WAT     H231863   3.013   9.303   9.331
10541WAT      O31864   4.952   1.401   5.376
10541WAT     H131865   5.031   1.400   5.314
10541WAT     H231866   4.871   1.433   5.327
10542WAT      O31867   2.373   0.160   3.550
10542WAT     H131868   2.309   0.174   3.474
10542WAT     H231869   2.464   0.142   3.513
10543WAT      O31870   2.844   1.150   9.888
10543WAT     H131871   2.868   1.246   9.904
10543WAT     H231872   2.926   1.093   9.899
10544WAT      O31873   1.505   7.577   4.916
10544WAT     H131874   1.572   7.555   4.987
10544WAT     H231875   1.530   7.663   4.872
10545WAT      O31876   0.351   9.415   3.260
10545WAT     H131877   0.388   9.493   3.310
10545WAT     H231878   0.425   9.354   3.232
10546WAT      O31879   8.701   4.422   4.259
10546WAT     H131880   8.717   4.514   4.294
10546WAT     H231881   8.604   4.399   4.269
10547WAT      O31882   6.668   0.768   5.048
10547WAT     H131883   6.730   0.723   4.983
10547WAT     H231884   6.575   0.767   5.012
10548WAT      O31885   9.267   3.955   5.529
10548WAT     H131886   9.317   3.997   5.604
10548WAT     H231887   9.224   3.870   5.561
10549WAT      O31888   8.077   6.893   5.798
10549WAT     H131889   8.016   6.958   5.843
10549WAT     H231890   8.172   6.920   5.813
10550WAT      O31891   5.524   3.843   7.143
10550WAT     H131892   5.580   3.855   7.061
10550WAT     H231893   5.445   3.905   7.138
10551WAT      O31894   4.466   4.308   4.742
10551WAT     H131895   4.525   4.259   4.805
10551WAT     H231896   4.517   4.329   4.658
10552WAT      O31897   8.078   1.679   9.871
10552WAT     H131898   8.065   1.608   9.940
10552WAT     H231899   8.094   1.766   9.916
10553WAT      O31900   3.137   3.019   1.271
10553WAT     H131901   3.161   3.112   1.298
10553WAT     H231902   3.133   3.013   1.172
10554WAT      O31903   1.932   2.533   3.620
10554WAT     H131904   1.849   2.585   3.599
10554WAT     H231905   1.911   2.435   3.617
10555WAT      O31906   4.086   3.044   3.657
10555WAT     H131907   4.064   2.954   3.695
10555WAT     H231908   4.183   3.048   3.633
10556WAT      O31909   8.720   9.327   6.681
10556WAT     H131910   8.755   9.366   6.767
10556WAT     H231911   8.648   9.261   6.702
10557WAT      O31912   3.837   4.064   4.707
10557WAT     H131913   3.826   3.968   4.732
10557WAT     H231914   3.788   4.121   4.772
10558WAT      O31915   1.006   6.206   9.722
10558WAT     H131916   1.052   6.185   9.635
10558WAT     H231917   0.974   6.300   9.721
10559WAT      O31918   4.433   0.244   9.599
10559WAT     H131919   4.515   0.239   9.656
10559WAT     H231920   4.360   0.290   9.650
10560WAT      O31921   5.915   2.967   9.680
10560WAT     H131922   5.945   2.873   9.661
10560WAT     H231923   5.815   2.971   9.674
10561WAT      O31924   2.396   3.922   3.791
10561WAT     H131925   2.451   3.840   3.803
10561WAT     H231926   2.383   3.940   3.693
10562WAT      O31927   0.921   8.308   9.505
10562WAT     H131928   0.967   8.248   9.570
10562WAT     H231929   0.989   8.365   9.458
10563WAT      O31930   3.320   0.067   3.353
10563WAT     H131931   3.411   0.027   3.351
10563WAT     H231932   3.304   0.118   3.268
10564WAT      O31933   9.044   6.217   9.854
10564WAT     H131934   8.954   6.234   9.816
10564WAT     H231935   9.112   6.275   9.808
10565WAT      O31936   9.582   0.783   5.695
10565WAT     H131937   9.599   0.870   5.649
10565WAT     H231938   9.494   0.786   5.742
10566WAT      O31939   9.598   8.694   4.624
10566WAT     H131940   9.576   8.602   4.656
10566WAT     H231941   9.545   8.715   4.542
10567WAT      O31942   0.284   7.239   4.815
10567WAT     H131943   0.376   7.220   4.781
10567WAT     H231944   0.229   7.280   4.742
10568WAT      O31945   6.518   7.873   1.988
10568WAT     H131946   6.534   7.876   1.889
10568WAT     H231947   6.594   7.826   2.032
10569WAT      O31948   3.806   7.447   4.934
10569WAT     H131949   3.768   7.364   4.974
10569WAT     H231950   3.739   7.520   4.938
10570WAT      O31951   3.068   8.877   5.658
10570WAT     H131952   3.139   8.945   5.638
10570WAT     H231953   2.983   8.902   5.612
10571WAT      O31954   9.312   6.587   6.322
10571WAT     H131955   9.294   6.685   6.309
10571WAT     H231956   9.260   6.554   6.401
10572WAT      O31957   3.478   6.505   4.669
10572WAT     H131958   3.551   6.446   4.704
10572WAT     H231959   3.415   6.526   4.743
10573WAT      O31960   3.476   8.285   6.160
10573WAT     H131961   3.493   8.187   6.151
10573WAT     H231962   3.477   8.328   6.070
10574WAT      O31963   2.462   0.304   4.394
10574WAT     H131964   2.436   0.350   4.479
10574WAT     H231965   2.387   0.245   4.364
10575WAT      O31966   7.131   6.308   9.116
10575WAT     H131967   7.116   6.265   9.205
10575WAT     H231968   7.179   6.394   9.129
10576WAT      O31969   1.558   2.309   2.635
10576WAT     H131970   1.568   2.348   2.726
10576WAT     H231971   1.582   2.212   2.637
10577WAT      O31972   3.947   1.756   5.587
10577WAT     H131973   3.904   1.669   5.565
10577WAT     H231974   3.958   1.764   5.686
10578WAT      O31975   3.374   6.164   3.979
10578WAT     H131976   3.351   6.236   4.044
10578WAT     H231977   3.293   6.139   3.926
10579WAT      O31978   2.958   3.127   6.456
10579WAT     H131979   3.021   3.145   6.530
10579WAT     H231980   2.868   3.103   6.493
10580WAT      O31981   4.572   8.558   3.314
10580WAT     H131982   4.575   8.557   3.414
10580WAT     H231983   4.623   8.636   3.279
10581WAT      O31984   9.496   9.440   6.470
10581WAT     H131985   9.497   9.496   6.387
10581WAT     H231986   9.480   9.344   6.445
10582WAT      O31987   2.835   0.794   8.229
10582WAT     H131988   2.812   0.730   8.301
10582WAT     H231989   2.869   0.744   8.149
10583WAT      O31990   7.003   4.375   6.619
10583WAT     H131991   6.968   4.445   6.557
10583WAT     H231992   7.052   4.419   6.695
10584WAT      O31993   3.623   4.596   0.693
10584WAT     H131994   3.552   4.536   0.730
10584WAT     H231995   3.688   4.618   0.766
10585WAT      O31996   1.585   0.613   9.226
10585WAT     H131997   1.527   0.692   9.246
10585WAT     H231998   1.574   0.587   9.129
10586WAT      O31999   4.202   8.176   6.500
10586WAT     H132000   4.258   8.245   6.455
10586WAT     H232001   4.125   8.219   6.545
10587WAT      O32002   4.505   2.859   0.975
10587WAT     H132003   4.596   2.829   1.003
10587WAT     H232004   4.513   2.938   0.915
10588WAT      O32005   6.847   3.557   6.284
10588WAT     H132006   6.925   3.605   6.322
10588WAT     H232007   6.802   3.614   6.215
10589WAT      O32008   2.466   7.426   5.654
10589WAT     H132009   2.477   7.377   5.568
10589WAT     H232010   2.553   7.426   5.704
10590WAT      O32011   7.101   8.325   9.637
10590WAT     H132012   7.146   8.370   9.713
10590WAT     H232013   7.033   8.386   9.597
10591WAT      O32014   0.800   0.941   3.859
10591WAT     H132015   0.810   0.843   3.845
10591WAT     H232016   0.887   0.980   3.890
10592WAT      O32017   3.785   1.068   3.557
10592WAT     H132018   3.863   1.007   3.573
10592WAT     H232019   3.736   1.083   3.643
10593WAT      O32020   7.847   0.635   1.553
10593WAT     H132021   7.777   0.570   1.582
10593WAT     H232022   7.832   0.723   1.598
10594WAT      O32023   9.710   2.030   7.028
10594WAT     H132024   9.765   1.954   6.993
10594WAT     H232025   9.667   2.077   6.951
10595WAT      O32026   6.339   8.137   4.076
10595WAT     H132027   6.281   8.142   3.995
10595WAT     H232028   6.295   8.184   4.152
10596WAT      O32029   3.286   9.563   0.163
10596WAT     H132030   3.238   9.579   0.249
10596WAT     H232031   3.381   9.538   0.182
10597WAT      O32032   3.695   8.890   2.014
10597WAT     H132033   3.722   8.863   2.106
10597WAT     H232034   3.731   8.981   1.994
10598WAT      O32035   5.680   0.680   7.418
10598WAT     H132036   5.710   0.765   7.375
10598WAT     H232037   5.605   0.641   7.364
10599WAT      O32038   3.646   1.818   8.959
10599WAT     H132039   3.680   1.752   8.892
10599WAT     H232040   3.550   1.839   8.939
10600WAT      O32041   6.968   5.588   7.991
10600WAT     H132042   6.975   5.558   7.896
10600WAT     H232043   6.893   5.540   8.036
10601WAT      O32044   1.965   0.541   2.222
10601WAT     H132045   1.968   0.566   2.319
10601WAT     H232046   1.970   0.442   2.213
10602WAT      O32047   2.186   5.463   1.128
10602WAT     H132048   2.226   5.528   1.193
10602WAT     H232049   2.198   5.497   1.035
10603WAT      O32050   6.140   0.935   4.084
10603WAT     H132051   6.071   0.862   4.078
10603WAT     H232052   6.101   1.013   4.133
10604WAT      O32053   2.351   7.652   0.793
10604WAT     H132054   2.394   7.673   0.705
10604WAT     H232055   2.267   7.600   0.777
10605WAT      O32056   6.900   0.304   0.427
10605WAT     H132057   6.981   0.266   0.471
10605WAT     H232058   6.853   0.233   0.375
10606WAT      O32059   6.466   2.395   3.680
10606WAT     H132060   6.367   2.406   3.690
10606WAT     H232061   6.498   2.448   3.601
10607WAT      O32062   9.752   7.893   2.924
10607WAT     H132063   9.730   7.841   2.842
10607WAT     H232064   9.755   7.832   3.003
10608WAT      O32065   5.260   8.635   6.669
10608WAT     H132066   5.326   8.686   6.614
10608WAT     H232067   5.306   8.596   6.748
10609WAT      O32068   3.971   5.179   1.460
10609WAT     H132069   3.931   5.271   1.457
10609WAT     H232070   3.929   5.127   1.534
10610WAT      O32071   1.411   4.242   7.280
10610WAT     H132072   1.509   4.259   7.280
10610WAT     H232073   1.369   4.294   7.355
10611WAT      O32074   6.048   6.026   0.281
10611WAT     H132075   6.061   5.934   0.243
10611WAT     H232076   5.957   6.033   0.321
10612WAT      O32077   4.411   3.964   2.354
10612WAT     H132078   4.328   3.973   2.409
10612WAT     H232079   4.401   3.886   2.292
10613WAT      O32080   6.192   7.232   2.968
10613WAT     H132081   6.211   7.304   2.902
10613WAT     H232082   6.134   7.267   3.041
10614WAT      O32083   7.215   8.824   2.381
10614WAT     H132084   7.140   8.873   2.337
10614WAT     H232085   7.302   8.854   2.341
10615WAT      O32086   4.932   8.831   2.739
10615WAT     H132087   5.029   8.825   2.760
10615WAT     H232088   4.914   8.787   2.651
10616WAT      O32089   9.000   6.513   4.007
10616WAT     H132090   9.047   6.525   4.094
10616WAT     H232091   8.903   6.498   4.023
10617WAT      O32092   7.313   6.359   3.540
10617WAT     H132093   7.330   6.374   3.638
10617WAT     H232094   7.400   6.344   3.493
10618WAT      O32095   8.336   2.132   0.473
10618WAT     H132096   8.430   2.124   0.506
10618WAT     H232097   8.304   2.226   0.488
10619WAT      O32098   4.200   8.455   0.434
10619WAT     H132099   4.108   8.431   0.403
10619WAT     H232100   4.264   8.385   0.403
10620WAT      O32101   5.421   8.767   8.026
10620WAT     H132102   5.443   8.791   8.120
10620WAT     H232103   5.343   8.703   8.025
10621WAT      O32104   2.623   4.128   3.975
10621WAT     H132105   2.698   4.127   3.909
10621WAT     H232106   2.615   4.220   4.014
10622WAT      O32107   6.765   7.692   6.525
10622WAT     H132108   6.668   7.683   6.549
10622WAT     H232109   6.776   7.672   6.428
10623WAT      O32110   9.758   4.395   7.053
10623WAT     H132111   9.744   4.297   7.035
10623WAT     H232112   9.710   4.420   7.137
10624WAT      O32113   0.754   8.965   3.346
10624WAT     H132114   0.659   8.987   3.324
10624WAT     H232115   0.782   9.018   3.426
10625WAT      O32116   3.608   2.947   4.302
10625WAT     H132117   3.682   2.949   4.234
10625WAT     H232118   3.546   2.872   4.282
10626WAT      O32119   8.137   9.312   6.414
10626WAT     H132120   8.181   9.348   6.331
10626WAT     H232121   8.039   9.302   6.398
10627WAT      O32122   6.908   2.351   4.709
10627WAT     H132123   6.907   2.449   4.731
10627WAT     H232124   6.890   2.339   4.611
10628WAT      O32125   5.500   7.190   1.698
10628WAT     H132126   5.498   7.200   1.797
10628WAT     H232127   5.452   7.106   1.672
10629WAT      O32128   0.439   9.344   2.400
10629WAT     H132129   0.481   9.317   2.487
10629WAT     H232130   0.353   9.391   2.419
10630WAT      O32131   9.871   6.723   3.943
10630WAT     H132132   9.896   6.711   3.846
10630WAT     H232133   9.849   6.634   3.982
10631WAT      O32134   6.034   2.095   6.266
10631WAT     H132135   6.114   2.135   6.220
10631WAT     H232136   6.063   2.016   6.321
10632WAT      O32137   1.787   1.524   2.060
10632WAT     H132138   1.811   1.571   2.146
10632WAT     H232139   1.869   1.481   2.022
10633WAT      O32140   4.962   8.795   3.890
10633WAT     H132141   5.055   8.828   3.876
10633WAT     H232142   4.918   8.782   3.801
10634WAT      O32143   1.243   5.994   8.545
10634WAT     H132144   1.216   6.053   8.621
10634WAT     H232145   1.177   6.003   8.470
10635WAT      O32146   7.567   7.760   1.853
10635WAT     H132147   7.538   7.683   1.796
10635WAT     H232148   7.538   7.846   1.810
10636WAT      O32149   0.959   8.479   4.726
10636WAT     H132150   1.033   8.533   4.766
10636WAT     H232151   0.917   8.422   4.797
10637WAT      O32152   2.257   0.808   7.717
10637WAT     H132153   2.199   0.755   7.778
10637WAT     H232154   2.201   0.849   7.645
10638WAT      O32155   0.475   6.234   6.378
10638WAT     H132156   0.387   6.275   6.402
10638WAT     H232157   0.501   6.167   6.448
10639WAT      O32158   4.350   8.257   7.149
10639WAT     H132159   4.433   8.272   7.204
10639WAT     H232160   4.348   8.323   7.074
10640WAT      O32161   1.112   4.072   0.753
10640WAT     H132162   1.035   4.023   0.793
10640WAT     H232163   1.159   4.012   0.687
10641WAT      O32164   1.410   3.584   2.491
10641WAT     H132165   1.444   3.584   2.397
10641WAT     H232166   1.414   3.677   2.528
10642WAT      O32167   4.858   0.839   8.330
10642WAT     H132168   4.787   0.904   8.303
10642WAT     H232169   4.947   0.885   8.328
10643WAT      O32170   2.456   0.348   5.076
10643WAT     H132171   2.431   0.418   5.143
10643WAT     H232172   2.485   0.265   5.124
10644WAT      O32173   3.595   6.783   7.439
10644WAT     H132174   3.617   6.876   7.470
10644WAT     H232175   3.652   6.760   7.360
10645WAT      O32176   8.093   0.008   6.951
10645WAT     H132177   8.059  -0.071   6.900
10645WAT     H232178   8.088  -0.011   7.049
10646WAT      O32179   5.627   4.288   9.619
10646WAT     H132180   5.599   4.350   9.692
10646WAT     H232181   5.652   4.199   9.659
10647WAT      O32182   8.582   0.037   7.607
10647WAT     H132183   8.534  -0.036   7.560
10647WAT     H232184   8.521   0.080   7.673
10648WAT      O32185   4.333   7.467   6.770
10648WAT     H132186   4.262   7.537   6.772
10648WAT     H232187   4.379   7.464   6.859
10649WAT      O32188   9.567   2.775   6.370
10649WAT     H132189   9.567   2.868   6.407
10649WAT     H232190   9.473   2.748   6.347
10650WAT      O32191   1.247   3.537   0.916
10650WAT     H132192   1.323   3.504   0.973
10650WAT     H232193   1.163   3.540   0.970
10651WAT      O32194   4.374   8.730   4.240
10651WAT     H132195   4.451   8.758   4.183
10651WAT     H232196   4.292   8.718   4.184
10652WAT      O32197   0.295   1.611   3.937
10652WAT     H132198   0.344   1.573   4.015
10652WAT     H232199   0.223   1.548   3.908
10653WAT      O32200   7.261   7.987   1.323
10653WAT     H132201   7.321   8.052   1.276
10653WAT     H232202   7.291   7.894   1.305
10654WAT      O32203   1.380   1.654   4.129
10654WAT     H132204   1.301   1.675   4.071
10654WAT     H232205   1.459   1.707   4.097
10655WAT      O32206   3.695   8.929   4.541
10655WAT     H132207   3.644   8.852   4.502
10655WAT     H232208   3.721   8.992   4.468
10656WAT      O32209   1.636   3.286   0.984
10656WAT     H132210   1.736   3.291   0.984
10656WAT     H232211   1.606   3.224   0.912
10657WAT      O32212   0.641   5.237   1.707
10657WAT     H132213   0.575   5.201   1.773
10657WAT     H232214   0.644   5.178   1.627
10658WAT      O32215   3.263   3.976   0.883
10658WAT     H132216   3.303   4.031   0.956
10658WAT     H232217   3.282   3.879   0.899
10659WAT      O32218   3.539   1.570   1.146
10659WAT     H132219   3.483   1.599   1.223
10659WAT     H232220   3.511   1.618   1.063
10660WAT      O32221   5.535   6.125   1.856
10660WAT     H132222   5.597   6.138   1.779
10660WAT     H232223   5.576   6.161   1.940
10661WAT      O32224   6.941   2.961   2.828
10661WAT     H132225   6.931   2.949   2.729
10661WAT     H232226   6.974   3.053   2.847
10662WAT      O32227   3.435   9.113   7.614
10662WAT     H132228   3.525   9.154   7.600
10662WAT     H232229   3.370   9.150   7.547
10663WAT      O32230   7.282   7.729   4.612
10663WAT     H132231   7.368   7.775   4.591
10663WAT     H232232   7.237   7.704   4.526
10664WAT      O32233   4.330   6.406   7.207
10664WAT     H132234   4.335   6.458   7.293
10664WAT     H232235   4.272   6.455   7.142
10665WAT      O32236   4.463   4.555   9.101
10665WAT     H132237   4.550   4.577   9.057
10665WAT     H232238   4.410   4.638   9.114
10666WAT      O32239   4.054   5.490   0.797
10666WAT     H132240   4.108   5.418   0.753
10666WAT     H232241   4.032   5.561   0.730
10667WAT      O32242   8.434   3.338   5.132
10667WAT     H132243   8.474   3.423   5.166
10667WAT     H232244   8.352   3.359   5.078
10668WAT      O32245   3.451   8.871   2.482
10668WAT     H132246   3.405   8.951   2.445
10668WAT     H232247   3.463   8.802   2.410
10669WAT      O32248   3.424   3.776   6.159
10669WAT     H132249   3.513   3.821   6.164
10669WAT     H232250   3.352   3.844   6.174
10670WAT      O32251   8.181   8.017   5.963
10670WAT     H132252   8.240   8.091   5.996
10670WAT     H232253   8.176   8.020   5.863
10671WAT      O32254   3.560   5.923   5.451
10671WAT     H132255   3.537   5.999   5.391
10671WAT     H232256   3.590   5.958   5.540
10672WAT      O32257   0.657   2.561   0.955
10672WAT     H132258   0.717   2.630   0.914
10672WAT     H232259   0.705   2.511   1.026
10673WAT      O32260   7.000   8.244   0.977
10673WAT     H132261   6.950   8.299   1.044
10673WAT     H232262   6.939   8.221   0.901
10674WAT      O32263   8.423   1.212   4.479
10674WAT     H132264   8.424   1.242   4.574
10674WAT     H232265   8.335   1.234   4.438
10675WAT      O32266   9.340   6.417   4.700
10675WAT     H132267   9.424   6.461   4.733
10675WAT     H232268   9.262   6.477   4.719
10676WAT      O32269   8.378   2.763   6.925
10676WAT     H132270   8.471   2.737   6.900
10676WAT     H232271   8.352   2.719   7.011
10677WAT      O32272   4.063   7.166   6.396
10677WAT     H132273   4.160   7.190   6.393
10677WAT     H232274   4.028   7.158   6.302
10678WAT      O32275   7.781   4.726   1.106
10678WAT     H132276   7.726   4.646   1.084
10678WAT     H232277   7.737   4.808   1.069
10679WAT      O32278   2.795   3.312   4.803
10679WAT     H132279   2.724   3.282   4.740
10679WAT     H232280   2.879   3.331   4.752
10680WAT      O32281   3.438   0.859   1.317
10680WAT     H132282   3.468   0.797   1.389
10680WAT     H232283   3.341   0.879   1.329
10681WAT      O32284   3.014   5.246   3.723
10681WAT     H132285   3.106   5.213   3.748
10681WAT     H232286   3.022   5.315   3.651
10682WAT      O32287   5.300   2.680   3.140
10682WAT     H132288   5.337   2.759   3.091
10682WAT     H232289   5.237   2.712   3.211
10683WAT      O32290   3.595   4.203   1.359
10683WAT     H132291   3.563   4.108   1.364
10683WAT     H232292   3.633   4.230   1.447
10684WAT      O32293   0.659   8.613   2.431
10684WAT     H132294   0.693   8.525   2.466
10684WAT     H232295   0.690   8.687   2.490
10685WAT      O32296   9.510   7.290   0.032
10685WAT     H132297   9.446   7.221   0.068
10685WAT     H232298   9.464   7.379   0.030
10686WAT      O32299   7.065   1.011   6.349
10686WAT     H132300   7.010   1.053   6.421
10686WAT     H232301   7.119   0.936   6.388
10687WAT      O32302   0.662   6.731   8.225
10687WAT     H132303   0.706   6.749   8.137
10687WAT     H232304   0.662   6.633   8.243
10688WAT      O32305   1.439   4.712   1.706
10688WAT     H132306   1.359   4.655   1.722
10688WAT     H232307   1.462   4.712   1.609
10689WAT      O32308   5.353   1.043   0.317
10689WAT     H132309   5.420   1.038   0.243
10689WAT     H232310   5.265   1.009   0.285
10690WAT      O32311   2.563   9.767   1.185
10690WAT     H132312   2.546   9.845   1.125
10690WAT     H232313   2.539   9.682   1.137
10691WAT      O32314   9.474   9.235   1.028
10691WAT     H132315   9.502   9.296   1.102
10691WAT     H232316   9.428   9.289   0.957
10692WAT      O32317   8.649   6.874   6.452
10692WAT     H132318   8.737   6.887   6.406
10692WAT     H232319   8.603   6.794   6.413
10693WAT      O32320   8.682   5.401   8.428
10693WAT     H132321   8.724   5.414   8.338
10693WAT     H232322   8.752   5.375   8.494
10694WAT      O32323   4.296   6.712   3.201
10694WAT     H132324   4.292   6.690   3.299
10694WAT     H232325   4.387   6.747   3.179
10695WAT      O32326   8.973   6.598   9.042
10695WAT     H132327   9.010   6.506   9.024
10695WAT     H232328   8.899   6.591   9.108
10696WAT      O32329   7.443   4.614   6.153
10696WAT     H132330   7.415   4.708   6.170
10696WAT     H232331   7.450   4.565   6.240
10697WAT      O32332   0.172   9.816   9.709
10697WAT     H132333   0.152   9.723   9.678
10697WAT     H232334   0.173   9.818   9.809
10698WAT      O32335   0.058   7.262   0.445
10698WAT     H132336  -0.020   7.321   0.425
10698WAT     H232337   0.072   7.258   0.544
10699WAT      O32338   8.812   3.078   6.033
10699WAT     H132339   8.904   3.042   6.047
10699WAT     H232340   8.803   3.109   5.938
10700WAT      O32341   4.774   4.883   7.492
10700WAT     H132342   4.787   4.856   7.588
10700WAT     H232343   4.719   4.815   7.445
10701WAT      O32344   7.241   1.788   5.588
10701WAT     H132345   7.333   1.813   5.615
10701WAT     H232346   7.244   1.706   5.531
10702WAT      O32347   8.081   5.036   4.400
10702WAT     H132348   8.015   5.091   4.451
10702WAT     H232349   8.173   5.072   4.413
10703WAT      O32350   8.468   8.081   9.579
10703WAT     H132351   8.556   8.100   9.622
10703WAT     H232352   8.462   7.984   9.557
10704WAT      O32353   7.360   0.980   8.246
10704WAT     H132354   7.395   1.020   8.161
10704WAT     H232355   7.427   0.917   8.284
10705WAT      O32356   3.770   1.798   6.145
10705WAT     H132357   3.799   1.873   6.204
10705WAT     H232358   3.833   1.722   6.153
10706WAT      O32359   0.996   8.802   5.701
10706WAT     H132360   0.975   8.900   5.690
10706WAT     H232361   0.922   8.748   5.661
10707WAT      O32362   8.807   0.545   8.345
10707WAT     H132363   8.814   0.641   8.318
10707WAT     H232364   8.757   0.538   8.431
10708WAT      O32365   1.608   2.013   6.968
10708WAT     H132366   1.590   1.982   7.062
10708WAT     H232367   1.598   2.113   6.963
10709WAT      O32368   3.418   4.697   5.742
10709WAT     H132369   3.398   4.758   5.665
10709WAT     H232370   3.483   4.627   5.713
10710WAT      O32371   2.199   8.851   1.425
10710WAT     H132372   2.236   8.942   1.406
10710WAT     H232373   2.145   8.819   1.347
10711WAT      O32374   9.285   8.168   8.470
10711WAT     H132375   9.209   8.145   8.409
10711WAT     H232376   9.252   8.228   8.543
10712WAT      O32377   5.314   5.879   9.024
10712WAT     H132378   5.400   5.858   9.070
10712WAT     H232379   5.282   5.969   9.053
10713WAT      O32380   4.270   3.426   1.976
10713WAT     H132381   4.334   3.480   1.921
10713WAT     H232382   4.198   3.390   1.917
10714WAT      O32383   9.555   7.677   4.049
10714WAT     H132384   9.621   7.746   4.078
10714WAT     H232385   9.476   7.721   4.008
10715WAT      O32386   8.395   0.169   3.118
10715WAT     H132387   8.460   0.223   3.173
10715WAT     H232388   8.364   0.091   3.172
10716WAT      O32389   6.263   5.344   3.507
10716WAT     H132390   6.250   5.273   3.437
10716WAT     H232391   6.190   5.412   3.500
10717WAT      O32392   6.941   8.644   5.672
10717WAT     H132393   6.892   8.641   5.585
10717WAT     H232394   6.994   8.560   5.683
10718WAT      O32395   2.973   0.408   8.091
10718WAT     H132396   2.940   0.500   8.074
10718WAT     H232397   3.055   0.392   8.035
10719WAT      O32398   0.449   0.396   1.531
10719WAT     H132399   0.440   0.493   1.509
10719WAT     H232400   0.361   0.363   1.566
10720WAT      O32401   5.224   1.941   7.799
10720WAT     H132402   5.133   1.921   7.761
10720WAT     H232403   5.293   1.887   7.751
10721WAT      O32404   0.822   7.557   8.258
10721WAT     H132405   0.787   7.494   8.327
10721WAT     H232406   0.870   7.632   8.303
10722WAT      O32407   7.281   4.353   2.415
10722WAT     H132408   7.211   4.361   2.344
10722WAT     H232409   7.343   4.278   2.392
10723WAT      O32410   3.469   1.661   5.185
10723WAT     H132411   3.511   1.583   5.138
10723WAT     H232412   3.434   1.726   5.117
10724WAT      O32413   9.599   8.683   9.252
10724WAT     H132414   9.667   8.695   9.179
10724WAT     H232415   9.513   8.725   9.224
10725WAT      O32416   0.459   4.148   5.365
10725WAT     H132417   0.529   4.108   5.306
10725WAT     H232418   0.442   4.243   5.337
10726WAT      O32419   9.638   1.019   9.260
10726WAT     H132420   9.604   1.032   9.168
10726WAT     H232421   9.579   1.067   9.325
10727WAT      O32422   3.729   1.261   8.621
10727WAT     H132423   3.653   1.321   8.645
10727WAT     H232424   3.735   1.252   8.521
10728WAT      O32425   7.543   2.154   1.695
10728WAT     H132426   7.507   2.063   1.714
10728WAT     H232427   7.601   2.183   1.771
10729WAT      O32428   7.202   0.418   5.200
10729WAT     H132429   7.236   0.504   5.163
10729WAT     H232430   7.102   0.415   5.192
10730WAT      O32431   7.427   4.917   5.061
10730WAT     H132432   7.399   4.942   5.153
10730WAT     H232433   7.515   4.871   5.065
10731WAT      O32434   4.025   4.901   6.982
10731WAT     H132435   4.107   4.878   7.035
10731WAT     H232436   3.970   4.818   6.970
10732WAT      O32437   5.576   8.688   9.811
10732WAT     H132438   5.518   8.621   9.857
10732WAT     H232439   5.558   8.779   9.848
10733WAT      O32440   0.072   0.252   7.390
10733WAT     H132441  -0.028   0.249   7.394
10733WAT     H232442   0.102   0.340   7.354
10734WAT      O32443   8.761   1.169   2.647
10734WAT     H132444   8.710   1.142   2.566
10734WAT     H232445   8.847   1.213   2.619
10735WAT      O32446   7.985   6.163   6.589
10735WAT     H132447   7.996   6.124   6.681
10735WAT     H232448   7.889   6.188   6.575
10736WAT      O32449   5.627   8.625   7.377
10736WAT     H132450   5.631   8.722   7.355
10736WAT     H232451   5.676   8.608   7.463
10737WAT      O32452   3.247   2.853   1.464
10737WAT     H132453   3.177   2.790   1.498
10737WAT     H232454   3.205   2.923   1.406
10738WAT      O32455   2.133   3.566   5.190
10738WAT     H132456   2.056   3.507   5.214
10738WAT     H232457   2.110   3.617   5.107
10739WAT      O32458   0.379   2.144   8.459
10739WAT     H132459   0.354   2.178   8.369
10739WAT     H232460   0.397   2.046   8.454
10740WAT      O32461   5.870   8.666   5.207
10740WAT     H132462   5.868   8.664   5.107
10740WAT     H232463   5.933   8.596   5.241
10741WAT      O32464   4.035   0.775   1.750
10741WAT     H132465   4.062   0.836   1.676
10741WAT     H232466   3.937   0.787   1.769
10742WAT      O32467   0.127   6.826   4.119
10742WAT     H132468   0.073   6.785   4.045
10742WAT     H232469   0.181   6.902   4.083
10743WAT      O32470   4.512   8.582   5.940
10743WAT     H132471   4.473   8.564   5.850
10743WAT     H232472   4.442   8.622   6.000
10744WAT      O32473   5.829   5.728   7.744
10744WAT     H132474   5.832   5.803   7.809
10744WAT     H232475   5.845   5.763   7.652
10745WAT      O32476   6.329   9.371   3.340
10745WAT     H132477   6.319   9.271   3.337
10745WAT     H232478   6.309   9.404   3.433
10746WAT      O32479   7.812   1.680   3.931
10746WAT     H132480   7.755   1.608   3.890
10746WAT     H232481   7.829   1.751   3.862
10747WAT      O32482   6.358   3.503   4.032
10747WAT     H132483   6.407   3.562   4.097
10747WAT     H232484   6.261   3.527   4.031
10748WAT      O32485   7.577   1.298   4.529
10748WAT     H132486   7.651   1.365   4.541
10748WAT     H232487   7.494   1.331   4.575
10749WAT      O32488   3.403   5.889   9.440
10749WAT     H132489   3.479   5.862   9.380
10749WAT     H232490   3.439   5.920   9.528
10750WAT      O32491   6.629   3.202   7.036
10750WAT     H132492   6.602   3.116   7.080
10750WAT     H232493   6.721   3.194   6.999
10751WAT      O32494   7.623   4.691   1.506
10751WAT     H132495   7.637   4.659   1.600
10751WAT     H232496   7.693   4.650   1.446
10752WAT      O32497   6.048   2.048   8.908
10752WAT     H132498   6.085   2.023   8.818
10752WAT     H232499   5.959   2.092   8.897
10753WAT      O32500   9.707   0.519   3.203
10753WAT     H132501   9.616   0.555   3.225
10753WAT     H232502   9.771   0.594   3.192
10754WAT      O32503   2.097   9.492   2.752
10754WAT     H132504   2.055   9.556   2.688
10754WAT     H232505   2.044   9.490   2.837
10755WAT      O32506   4.819   1.984   9.781
10755WAT     H132507   4.809   1.960   9.684
10755WAT     H232508   4.786   2.077   9.796
10756WAT      O32509   1.475   7.534   6.619
10756WAT     H132510   1.449   7.500   6.709
10756WAT     H232511   1.414   7.609   6.594
10757WAT      O32512   9.331   3.900   4.861
10757WAT     H132513   9.271   3.850   4.798
10757WAT     H232514   9.349   3.844   4.941
10758WAT      O32515   4.005   9.379   1.690
10758WAT     H132516   3.965   9.289   1.707
10758WAT     H232517   4.027   9.423   1.777
10759WAT      O32518   1.069   8.907   3.070
10759WAT     H132519   1.051   8.815   3.036
10759WAT     H232520   1.132   8.954   3.009
10760WAT      O32521   9.550   8.142   3.959
10760WAT     H132522   9.638   8.142   3.911
10760WAT     H232523   9.477   8.125   3.893
10761WAT      O32524   8.890   1.112   2.889
10761WAT     H132525   8.971   1.169   2.905
10761WAT     H232526   8.860   1.123   2.794
10762WAT      O32527   9.118   1.923   2.403
10762WAT     H132528   9.118   1.900   2.306
10762WAT     H232529   9.132   1.840   2.457
10763WAT      O32530   8.312   2.602   6.599
10763WAT     H132531   8.265   2.633   6.516
10763WAT     H232532   8.268   2.644   6.679
10764WAT      O32533   3.840   8.122   2.312
10764WAT     H132534   3.811   8.105   2.218
10764WAT     H232535   3.940   8.128   2.316
10765WAT      O32536   4.982   6.541   3.290
10765WAT     H132537   5.071   6.548   3.246
10765WAT     H232538   4.921   6.484   3.236
10766WAT      O32539   1.757   8.778   9.156
10766WAT     H132540   1.821   8.704   9.179
10766WAT     H232541   1.787   8.822   9.071
10767WAT      O32542   2.986   0.009   7.568
10767WAT     H132543   3.035  -0.038   7.494
10767WAT     H232544   2.887   0.000   7.553
10768WAT      O32545   1.603   5.516   4.866
10768WAT     H132546   1.649   5.437   4.826
10768WAT     H232547   1.592   5.587   4.796
10769WAT      O32548   8.281   3.385   8.847
10769WAT     H132549   8.282   3.379   8.747
10769WAT     H232550   8.211   3.450   8.876
10770WAT      O32551   1.491   6.962   7.460
10770WAT     H132552   1.543   7.003   7.535
10770WAT     H232553   1.530   6.873   7.437
10771WAT      O32554   3.109   4.768   8.042
10771WAT     H132555   3.176   4.840   8.023
10771WAT     H232556   3.060   4.789   8.126
10772WAT      O32557   5.145   1.814   5.704
10772WAT     H132558   5.089   1.861   5.772
10772WAT     H232559   5.087   1.763   5.642
10773WAT      O32560   4.479   3.578   1.232
10773WAT     H132561   4.472   3.672   1.198
10773WAT     H232562   4.388   3.546   1.259
10774WAT      O32563   9.340   3.306   9.663
10774WAT     H132564   9.311   3.239   9.595
10774WAT     H232565   9.298   3.284   9.751
10775WAT      O32566   6.717   6.790   7.354
10775WAT     H132567   6.800   6.838   7.381
10775WAT     H232568   6.689   6.728   7.427
10776WAT      O32569   1.864   6.312   0.725
10776WAT     H132570   1.935   6.272   0.668
10776WAT     H232571   1.775   6.301   0.680
10777WAT      O32572   9.049   4.337   1.211
10777WAT     H132573   8.971   4.291   1.253
10777WAT     H232574   9.128   4.333   1.273
10778WAT      O32575   1.529   0.854   7.064
10778WAT     H132576   1.562   0.903   6.984
10778WAT     H232577   1.577   0.767   7.072
10779WAT      O32578   2.118   3.638   3.624
10779WAT     H132579   2.066   3.700   3.682
10779WAT     H232580   2.216   3.653   3.639
10780WAT      O32581   2.725   5.362   4.870
10780WAT     H132582   2.753   5.395   4.960
10780WAT     H232583   2.793   5.390   4.802
10781WAT      O32584   9.575   7.886   7.840
10781WAT     H132585   9.631   7.882   7.757
10781WAT     H232586   9.535   7.796   7.858
10782WAT      O32587   7.306   6.553   6.192
10782WAT     H132588   7.341   6.574   6.283
10782WAT     H232589   7.212   6.586   6.184
10783WAT      O32590   5.461   6.839   1.401
10783WAT     H132591   5.468   6.802   1.309
10783WAT     H232592   5.552   6.858   1.437
10784WAT      O32593   2.486   1.455   0.149
10784WAT     H132594   2.548   1.383   0.179
10784WAT     H232595   2.428   1.422   0.075
10785WAT      O32596   8.213   9.141   9.173
10785WAT     H132597   8.296   9.189   9.144
10785WAT     H232598   8.143   9.209   9.197
10786WAT      O32599   1.576   0.473   4.549
10786WAT     H132600   1.659   0.418   4.542
10786WAT     H232601   1.518   0.437   4.622
10787WAT      O32602   1.538   7.287   9.366
10787WAT     H132603   1.528   7.360   9.434
10787WAT     H232604   1.458   7.285   9.306
10788WAT      O32605   7.334   3.963   7.323
10788WAT     H132606   7.398   3.896   7.284
10788WAT     H232607   7.303   3.930   7.412
10789WAT      O32608   5.441   3.940   4.119
10789WAT     H132609   5.429   3.909   4.025
10789WAT     H232610   5.361   3.993   4.148
10790WAT      O32611   4.888   0.373   9.734
10790WAT     H132612   4.971   0.373   9.790
10790WAT     H232613   4.913   0.357   9.638
10791WAT      O32614   7.549   9.439   7.588
10791WAT     H132615   7.464   9.433   7.537
10791WAT     H232616   7.583   9.346   7.607
10792WAT      O32617   1.997   7.964   6.170
10792WAT     H132618   1.958   8.007   6.088
10792WAT     H232619   2.018   8.035   6.238
10793WAT      O32620   2.231   6.213   8.639
10793WAT     H132621   2.210   6.218   8.542
10793WAT     H232622   2.329   6.217   8.653
10794WAT      O32623   2.853   9.116   3.941
10794WAT     H132624   2.947   9.096   3.913
10794WAT     H232625   2.790   9.071   3.878
10795WAT      O32626   4.085   5.058   6.760
10795WAT     H132627   4.117   5.147   6.790
10795WAT     H232628   4.067   5.000   6.839
10796WAT      O32629   7.855   8.152   8.432
10796WAT     H132630   7.780   8.185   8.376
10796WAT     H232631   7.940   8.199   8.405
10797WAT      O32632   9.709   3.345   7.997
10797WAT     H132633   9.788   3.303   8.042
10797WAT     H232634   9.625   3.311   8.040
10798WAT      O32635   4.382   7.037   2.480
10798WAT     H132636   4.467   7.021   2.431
10798WAT     H232637   4.309   7.058   2.415
10799WAT      O32638   2.657   0.209   0.895
10799WAT     H132639   2.682   0.299   0.929
10799WAT     H232640   2.720   0.141   0.931
10800WAT      O32641   5.721   9.427   3.975
10800WAT     H132642   5.805   9.372   3.968
10800WAT     H232643   5.742   9.522   3.954
10801WAT      O32644   7.803   7.750   2.684
10801WAT     H132645   7.747   7.670   2.701
10801WAT     H232646   7.898   7.730   2.707
10802WAT      O32647   0.264   3.280   4.975
10802WAT     H132648   0.228   3.231   5.054
10802WAT     H232649   0.304   3.215   4.910
10803WAT      O32650   6.612   7.299   7.798
10803WAT     H132651   6.695   7.242   7.796
10803WAT     H232652   6.532   7.240   7.808
10804WAT      O32653   0.861   3.837   1.997
10804WAT     H132654   0.836   3.745   1.965
10804WAT     H232655   0.786   3.876   2.049
10805WAT      O32656   1.391   8.918   8.037
10805WAT     H132657   1.449   8.918   8.119
10805WAT     H232658   1.308   8.970   8.055
10806WAT      O32659   6.381   9.341   9.458
10806WAT     H132660   6.428   9.364   9.543
10806WAT     H232661   6.371   9.242   9.451
10807WAT      O32662   4.627   5.224   0.756
10807WAT     H132663   4.678   5.305   0.786
10807WAT     H232664   4.557   5.201   0.825
10808WAT      O32665   0.497   6.655   7.886
10808WAT     H132666   0.467   6.738   7.934
10808WAT     H232667   0.499   6.579   7.950
10809WAT      O32668   5.516   7.446   8.966
10809WAT     H132669   5.495   7.461   9.063
10809WAT     H232670   5.509   7.348   8.945
10810WAT      O32671   3.636   7.876   0.752
10810WAT     H132672   3.652   7.804   0.819
10810WAT     H232673   3.700   7.866   0.675
10811WAT      O32674   8.403   0.104   7.004
10811WAT     H132675   8.309   0.076   6.984
10811WAT     H232676   8.406   0.201   7.026
10812WAT      O32677   1.238   3.593   8.068
10812WAT     H132678   1.312   3.528   8.050
10812WAT     H232679   1.153   3.559   8.028
10813WAT      O32680   6.986   0.770   1.910
10813WAT     H132681   6.952   0.745   1.819
10813WAT     H232682   6.916   0.751   1.978
10814WAT      O32683   8.035   0.994   2.046
10814WAT     H132684   8.079   0.932   1.981
10814WAT     H232685   8.032   1.086   2.008
10815WAT      O32686   0.749   2.438   3.508
10815WAT     H132687   0.812   2.496   3.559
10815WAT     H232688   0.701   2.493   3.440
10816WAT      O32689   9.487   1.890   1.419
10816WAT     H132690   9.425   1.812   1.414
10816WAT     H232691   9.447   1.968   1.370
10817WAT      O32692   0.261   3.322   2.863
10817WAT     H132693   0.182   3.260   2.862
10817WAT     H232694   0.230   3.416   2.874
10818WAT      O32695   9.860   4.510   4.172
10818WAT     H132696   9.797   4.535   4.245
10818WAT     H232697   9.940   4.464   4.211
10819WAT      O32698   5.970   9.262   3.103
10819WAT     H132699   5.977   9.206   3.185
10819WAT     H232700   5.883   9.243   3.056
10820WAT      O32701   5.604   7.121   1.120
10820WAT     H132702   5.597   7.171   1.034
10820WAT     H232703   5.699   7.121   1.151
10821WAT      O32704   5.687   5.583   3.481
10821WAT     H132705   5.701   5.496   3.530
10821WAT     H232706   5.589   5.601   3.473
10822WAT      O32707   0.288   2.190   2.404
10822WAT     H132708   0.251   2.265   2.459
10822WAT     H232709   0.382   2.211   2.378
10823WAT      O32710   7.819   2.249   7.883
10823WAT     H132711   7.773   2.330   7.846
10823WAT     H232712   7.909   2.239   7.839
10824WAT      O32713   1.346   6.931   0.774
10824WAT     H132714   1.262   6.877   0.776
10824WAT     H232715   1.379   6.937   0.680
10825WAT      O32716   7.589   5.403   1.627
10825WAT     H132717   7.551   5.345   1.555
10825WAT     H232718   7.515   5.452   1.673
10826WAT      O32719   3.297   1.863   9.890
10826WAT     H132720   3.320   1.903   9.979
10826WAT     H232721   3.264   1.934   9.828
10827WAT      O32722   9.184   1.438   7.443
10827WAT     H132723   9.168   1.355   7.497
10827WAT     H232724   9.277   1.471   7.460
10828WAT      O32725   0.732   6.688   5.540
10828WAT     H132726   0.734   6.753   5.616
10828WAT     H232727   0.637   6.672   5.511
10829WAT      O32728   1.440   6.233   2.766
10829WAT     H132729   1.429   6.318   2.713
10829WAT     H232730   1.472   6.255   2.858
10830WAT      O32731   5.267   6.002   8.019
10830WAT     H132732   5.366   6.014   8.022
10830WAT     H232733   5.223   6.090   8.000
10831WAT      O32734   4.770   1.210   2.835
10831WAT     H132735   4.672   1.229   2.827
10831WAT     H232736   4.814   1.220   2.746
10832WAT      O32737   9.617   9.457   8.711
10832WAT     H132738   9.627   9.524   8.785
10832WAT     H232739   9.704   9.444   8.665
10833WAT      O32740   0.279   3.279   2.498
10833WAT     H132741   0.332   3.195   2.483
10833WAT     H232742   0.307   3.320   2.584
10834WAT      O32743   0.671   0.736   0.790
10834WAT     H132744   0.767   0.739   0.763
10834WAT     H232745   0.617   0.792   0.728
10835WAT      O32746   1.418   5.538   1.703
10835WAT     H132747   1.405   5.625   1.750
10835WAT     H232748   1.422   5.464   1.770
10836WAT      O32749   1.635   5.984   8.279
10836WAT     H132750   1.616   6.082   8.285
10836WAT     H232751   1.726   5.965   8.316
10837WAT      O32752   2.710   2.433   8.171
10837WAT     H132753   2.652   2.352   8.163
10837WAT     H232754   2.740   2.462   8.079
10838WAT      O32755   0.799   4.638   0.517
10838WAT     H132756   0.760   4.721   0.476
10838WAT     H232757   0.788   4.561   0.455
10839WAT      O32758   2.590   9.018   2.201
10839WAT     H132759   2.540   9.061   2.276
10839WAT     H232760   2.526   8.970   2.141
10840WAT      O32761   0.765   2.311   3.076
10840WAT     H132762   0.679   2.356   3.100
10840WAT     H232763   0.802   2.354   2.993
10841WAT      O32764   0.166   7.681   9.620
10841WAT     H132765   0.226   7.685   9.699
10841WAT     H232766   0.178   7.594   9.573
10842WAT      O32767   6.808   7.835   0.466
10842WAT     H132768   6.847   7.812   0.555
10842WAT     H232769   6.841   7.925   0.438
10843WAT      O32770   0.272   3.423   1.252
10843WAT     H132771   0.189   3.472   1.226
10843WAT     H232772   0.343   3.441   1.184
10844WAT      O32773   6.002   0.703   4.037
10844WAT     H132774   6.072   0.641   4.000
10844WAT     H232775   5.948   0.741   3.962
10845WAT      O32776   0.080   5.361   5.678
10845WAT     H132777   0.068   5.267   5.711
10845WAT     H232778   0.017   5.422   5.726
10846WAT      O32779   9.423   0.297   1.168
10846WAT     H132780   9.417   0.373   1.233
10846WAT     H232781   9.466   0.329   1.084
10847WAT      O32782   1.387   8.689   1.486
10847WAT     H132783   1.401   8.662   1.582
10847WAT     H232784   1.387   8.788   1.479
10848WAT      O32785   4.662   2.536   7.790
10848WAT     H132786   4.634   2.626   7.757
10848WAT     H232787   4.759   2.523   7.773
10849WAT      O32788   1.564   1.966   3.352
10849WAT     H132789   1.500   1.898   3.388
10849WAT     H232790   1.517   2.054   3.341
10850WAT      O32791   5.333   7.737   6.939
10850WAT     H132792   5.350   7.787   7.024
10850WAT     H232793   5.405   7.670   6.925
10851WAT      O32794   9.335   2.123   0.631
10851WAT     H132795   9.331   2.222   0.641
10851WAT     H232796   9.407   2.098   0.567
10852WAT      O32797   8.439   6.713   0.408
10852WAT     H132798   8.445   6.631   0.465
10852WAT     H232799   8.406   6.688   0.317
10853WAT      O32800   4.821   2.107   0.687
10853WAT     H132801   4.856   2.016   0.663
10853WAT     H232802   4.831   2.122   0.785
10854WAT      O32803   8.172   7.717   0.882
10854WAT     H132804   8.202   7.758   0.968
10854WAT     H232805   8.220   7.631   0.867
10855WAT      O32806   4.966   9.782   6.580
10855WAT     H132807   5.045   9.755   6.525
10855WAT     H232808   4.931   9.702   6.630
10856WAT      O32809   7.549   5.319   3.271
10856WAT     H132810   7.606   5.383   3.221
10856WAT     H232811   7.564   5.226   3.236
10857WAT      O32812   2.713   6.706   4.645
10857WAT     H132813   2.645   6.636   4.622
10857WAT     H232814   2.802   6.663   4.655
10858WAT      O32815   7.792   5.685   2.176
10858WAT     H132816   7.728   5.751   2.217
10858WAT     H232817   7.742   5.606   2.141
10859WAT      O32818   6.335   6.322   6.368
10859WAT     H132819   6.393   6.399   6.343
10859WAT     H232820   6.390   6.238   6.371
10860WAT      O32821   9.359   9.718   5.731
10860WAT     H132822   9.295   9.794   5.726
10860WAT     H232823   9.435   9.742   5.791
10861WAT      O32824   8.695   6.731   1.335
10861WAT     H132825   8.740   6.642   1.346
10861WAT     H232826   8.683   6.751   1.238
10862WAT      O32827   1.560   4.326   4.588
10862WAT     H132828   1.478   4.283   4.627
10862WAT     H232829   1.607   4.379   4.658
10863WAT      O32830   0.723   4.231   0.908
10863WAT     H132831   0.814   4.270   0.925
10863WAT     H232832   0.682   4.277   0.829
10864WAT      O32833   1.283   4.623   2.719
10864WAT     H132834   1.300   4.535   2.763
10864WAT     H232835   1.220   4.676   2.776
10865WAT      O32836   3.611   2.477   0.138
10865WAT     H132837   3.617   2.380   0.114
10865WAT     H232838   3.521   2.512   0.110
10866WAT      O32839   1.737   0.022   5.108
10866WAT     H132840   1.745   0.012   5.008
10866WAT     H232841   1.815   0.074   5.142
10867WAT      O32842   6.328   2.584   9.599
10867WAT     H132843   6.340   2.497   9.646
10867WAT     H232844   6.260   2.573   9.527
10868WAT      O32845   4.064   3.329   8.689
10868WAT     H132846   3.971   3.361   8.670
10868WAT     H232847   4.129   3.402   8.667
10869WAT      O32848   7.815   0.102   3.416
10869WAT     H132849   7.803   0.197   3.445
10869WAT     H232850   7.736   0.048   3.446
10870WAT      O32851   2.284   1.621   0.227
10870WAT     H132852   2.346   1.550   0.195
10870WAT     H232853   2.190   1.596   0.203
10871WAT      O32854   5.085   0.083   7.598
10871WAT     H132855   5.089   0.174   7.555
10871WAT     H232856   4.989   0.055   7.605
10872WAT      O32857   7.958   5.220   5.564
10872WAT     H132858   7.979   5.123   5.574
10872WAT     H232859   8.043   5.272   5.552
10873WAT      O32860   3.236   7.437   8.853
10873WAT     H132861   3.194   7.453   8.942
10873WAT     H232862   3.242   7.523   8.803
10874WAT      O32863   7.211   9.812   0.797
10874WAT     H132864   7.150   9.820   0.876
10874WAT     H232865   7.239   9.903   0.767
10875WAT      O32866   5.110   3.358   3.692
10875WAT     H132867   5.048   3.296   3.741
10875WAT     H232868   5.074   3.451   3.697
10876WAT      O32869   6.073   4.834   6.049
10876WAT     H132870   6.066   4.933   6.062
10876WAT     H232871   6.167   4.805   6.065
10877WAT      O32872   9.787   1.349   3.479
10877WAT     H132873   9.873   1.392   3.503
10877WAT     H232874   9.771   1.357   3.381
10878WAT      O32875   6.384   5.675   3.573
10878WAT     H132876   6.352   5.655   3.480
10878WAT     H232877   6.322   5.633   3.639
10879WAT      O32878   5.947   8.066   6.271
10879WAT     H132879   5.986   8.126   6.341
10879WAT     H232880   5.993   8.083   6.183
10880WAT      O32881   9.827   0.727   3.033
10880WAT     H132882   9.775   0.710   2.949
10880WAT     H232883   9.765   0.763   3.103
10881WAT      O32884   4.083   2.173   0.784
10881WAT     H132885   4.150   2.194   0.713
10881WAT     H232886   3.992   2.205   0.755
10882WAT      O32887   8.445   3.741   3.079
10882WAT     H132888   8.469   3.687   2.998
10882WAT     H232889   8.372   3.805   3.056
10883WAT      O32890   7.124   3.165   9.133
10883WAT     H132891   7.110   3.083   9.189
10883WAT     H232892   7.059   3.165   9.057
10884WAT      O32893   1.484   4.992   2.752
10884WAT     H132894   1.541   5.067   2.720
10884WAT     H232895   1.477   4.995   2.851
10885WAT      O32896   3.175   1.523   7.207
10885WAT     H132897   3.167   1.424   7.216
10885WAT     H232898   3.204   1.546   7.114
10886WAT      O32899   4.611   6.990   8.337
10886WAT     H132900   4.708   7.007   8.320
10886WAT     H232901   4.556   7.034   8.266
10887WAT      O32902   9.596   3.142   0.761
10887WAT     H132903   9.640   3.230   0.779
10887WAT     H232904   9.622   3.109   0.671
10888WAT      O32905   3.716   6.209   1.990
10888WAT     H132906   3.762   6.126   1.958
10888WAT     H232907   3.692   6.198   2.087
10889WAT      O32908   6.089   0.754   2.637
10889WAT     H132909   6.097   0.767   2.538
10889WAT     H232910   5.992   0.756   2.663
10890WAT      O32911   5.597   9.357   4.371
10890WAT     H132912   5.568   9.336   4.278
10890WAT     H232913   5.695   9.339   4.381
10891WAT      O32914   8.993   5.215   5.649
10891WAT     H132915   9.006   5.133   5.704
10891WAT     H232916   8.959   5.289   5.706
10892WAT      O32917   4.514   6.229   8.307
10892WAT     H132918   4.519   6.309   8.247
10892WAT     H232919   4.424   6.187   8.299
10893WAT      O32920   2.615   8.291   0.012
10893WAT     H132921   2.628   8.222  -0.059
10893WAT     H232922   2.612   8.382  -0.029
10894WAT      O32923   3.662   7.476   7.755
10894WAT     H132924   3.674   7.526   7.841
10894WAT     H232925   3.677   7.378   7.771
10895WAT      O32926   9.820   9.502   5.366
10895WAT     H132927   9.735   9.555   5.371
10895WAT     H232928   9.808   9.416   5.414
10896WAT      O32929   3.936   6.076   8.875
10896WAT     H132930   3.924   6.021   8.958
10896WAT     H232931   4.033   6.101   8.866
10897WAT      O32932   5.087   0.663   1.901
10897WAT     H132933   5.159   0.722   1.863
10897WAT     H232934   5.056   0.599   1.831
10898WAT      O32935   5.823   2.124   2.059
10898WAT     H132936   5.827   2.061   2.136
10898WAT     H232937   5.729   2.132   2.027
10899WAT      O32938   8.064   0.487   7.353
10899WAT     H132939   8.080   0.541   7.435
10899WAT     H232940   8.149   0.475   7.303
10900WAT      O32941   7.555   1.167   0.109
10900WAT     H132942   7.530   1.082   0.061
10900WAT     H232943   7.485   1.236   0.092
10901WAT      O32944   3.155   6.494   3.224
10901WAT     H132945   3.115   6.407   3.253
10901WAT     H232946   3.115   6.522   3.136
10902WAT      O32947   9.877   1.280   5.651
10902WAT     H132948   9.802   1.215   5.635
10902WAT     H232949   9.948   1.266   5.583
10903WAT      O32950   8.369   0.527   6.677
10903WAT     H132951   8.317   0.574   6.605
10903WAT     H232952   8.445   0.477   6.636
10904WAT      O32953   0.077   8.384   5.603
10904WAT     H132954   0.031   8.296   5.615
10904WAT     H232955   0.103   8.421   5.692
10905WAT      O32956   5.481   1.982   8.940
10905WAT     H132957   5.396   1.983   8.887
10905WAT     H232958   5.461   2.008   9.035
10906WAT      O32959   6.390   2.716   9.124
10906WAT     H132960   6.472   2.667   9.156
10906WAT     H232961   6.353   2.668   9.044
10907WAT      O32962   4.597   4.397   8.740
10907WAT     H132963   4.615   4.491   8.713
10907WAT     H232964   4.680   4.342   8.728
10908WAT      O32965   2.962   0.724   5.826
10908WAT     H132966   3.034   0.703   5.759
10908WAT     H232967   2.971   0.663   5.904
10909WAT      O32968   1.047   5.898   6.148
10909WAT     H132969   0.985   5.966   6.109
10909WAT     H232970   1.004   5.808   6.144
10910WAT      O32971   8.604   1.305   2.818
10910WAT     H132972   8.674   1.253   2.767
10910WAT     H232973   8.580   1.387   2.766
10911WAT      O32974   4.591   0.977   4.507
10911WAT     H132975   4.546   0.895   4.542
10911WAT     H232976   4.660   0.950   4.439
10912WAT      O32977   8.290   5.939   8.356
10912WAT     H132978   8.269   5.933   8.454
10912WAT     H232979   8.243   6.018   8.317
10913WAT      O32980   6.787   5.556   2.250
10913WAT     H132981   6.754   5.580   2.342
10913WAT     H232982   6.708   5.540   2.190
10914WAT      O32983   6.605   4.646   7.532
10914WAT     H132984   6.659   4.720   7.573
10914WAT     H232985   6.531   4.685   7.478
10915WAT      O32986   2.816   0.082   2.462
10915WAT     H132987   2.789   0.106   2.369
10915WAT     H232988   2.851  -0.012   2.463
10916WAT      O32989   7.676   3.119   5.414
10916WAT     H132990   7.628   3.056   5.475
10916WAT     H232991   7.610   3.182   5.373
10917WAT      O32992   6.696   3.043   0.515
10917WAT     H132993   6.675   2.946   0.509
10917WAT     H232994   6.623   3.095   0.470
10918WAT      O32995   4.755   5.913   7.659
10918WAT     H132996   4.783   5.819   7.640
10918WAT     H232997   4.837   5.968   7.680
10919WAT      O32998   2.209   2.003   4.105
10919WAT     H132999   2.260   1.917   4.103
10919WAT     H233000   2.220   2.045   4.195
10920WAT      O33001   5.291   6.793   0.780
10920WAT     H133002   5.226   6.838   0.841
10920WAT     H233003   5.296   6.695   0.803
10921WAT      O33004   5.091   1.669   3.538
10921WAT     H133005   5.094   1.722   3.454
10921WAT     H233006   5.061   1.727   3.614
10922WAT      O33007   1.203   0.866   1.789
10922WAT     H133008   1.282   0.853   1.729
10922WAT     H233009   1.119   0.863   1.734
10923WAT      O33010   9.876   3.254   0.093
10923WAT     H133011   9.825   3.240   0.008
10923WAT     H233012   9.972   3.230   0.078
10924WAT      O33013   5.695   5.553   8.149
10924WAT     H133014   5.750   5.634   8.168
10924WAT     H233015   5.754   5.479   8.118
10925WAT      O33016   4.177   2.064   5.762
10925WAT     H133017   4.261   2.082   5.711
10925WAT     H233018   4.201   2.033   5.854
10926WAT      O33019   4.373   8.989   5.804
10926WAT     H133020   4.470   8.963   5.800
10926WAT     H233021   4.366   9.088   5.807
10927WAT      O33022   3.114   1.957   8.928
10927WAT     H133023   3.135   2.039   8.981
10927WAT     H233024   3.165   1.879   8.965
10928WAT      O33025   9.550   9.517   5.139
10928WAT     H133026   9.626   9.581   5.141
10928WAT     H233027   9.470   9.559   5.181
10929WAT      O33028   9.093   0.097   8.582
10929WAT     H133029   9.178   0.058   8.547
10929WAT     H233030   9.074   0.058   8.673
10930WAT      O33031   2.098   1.648   1.874
10930WAT     H133032   2.032   1.695   1.815
10930WAT     H233033   2.056   1.566   1.913
10931WAT      O33034   0.371   0.198   2.975
10931WAT     H133035   0.315   0.207   3.057
10931WAT     H233036   0.347   0.113   2.928
10932WAT      O33037   6.518   7.663   4.061
10932WAT     H133038   6.569   7.644   4.145
10932WAT     H233039   6.481   7.756   4.064
10933WAT      O33040   9.801   6.165   0.010
10933WAT     H133041   9.866   6.214   0.068
10933WAT     H233042   9.777   6.078   0.054
10934WAT      O33043   7.471   9.120   6.494
10934WAT     H133044   7.546   9.074   6.542
10934WAT     H233045   7.385   9.075   6.517
10935WAT      O33046   3.601   9.545   2.691
10935WAT     H133047   3.660   9.522   2.768
10935WAT     H233048   3.569   9.639   2.700
10936WAT      O33049   4.882   7.898   1.197
10936WAT     H133050   4.798   7.939   1.235
10936WAT     H233051   4.884   7.912   1.098
10937WAT      O33052   7.947   6.578   1.920
10937WAT     H133053   7.974   6.483   1.902
10937WAT     H233054   7.958   6.598   2.017
10938WAT      O33055   8.013   6.332   9.586
10938WAT     H133056   8.012   6.398   9.511
10938WAT     H233057   8.050   6.245   9.552
10939WAT      O33058   9.792   6.763   9.013
10939WAT     H133059   9.740   6.814   9.082
10939WAT     H233060   9.745   6.677   8.993
10940WAT      O33061   8.049   5.920   9.169
10940WAT     H133062   8.143   5.940   9.195
10940WAT     H233063   8.028   5.824   9.190
10941WAT      O33064   0.826   6.415   6.710
10941WAT     H133065   0.769   6.407   6.628
10941WAT     H233066   0.836   6.512   6.733
10942WAT      O33067   2.626   0.842   1.284
10942WAT     H133068   2.702   0.882   1.336
10942WAT     H233069   2.613   0.747   1.313
10943WAT      O33070   5.381   9.291   6.161
10943WAT     H133071   5.301   9.278   6.220
10943WAT     H233072   5.441   9.212   6.169
10944WAT      O33073   4.410   0.974   4.967
10944WAT     H133074   4.407   0.967   5.067
10944WAT     H233075   4.505   0.982   4.937
10945WAT      O33076   8.064   9.166   7.435
10945WAT     H133077   8.093   9.243   7.492
10945WAT     H233078   8.077   9.080   7.484
10946WAT      O33079   8.521   1.996   1.701
10946WAT     H133080   8.549   1.956   1.613
10946WAT     H233081   8.454   2.069   1.685
10947WAT      O33082   0.959   8.635   7.339
10947WAT     H133083   0.883   8.675   7.390
10947WAT     H233084   0.949   8.659   7.242
10948WAT      O33085   8.309   8.717   6.144
10948WAT     H133086   8.249   8.669   6.209
10948WAT     H233087   8.404   8.703   6.170
10949WAT      O33088   4.201   3.485   9.269
10949WAT     H133089   4.226   3.511   9.175
10949WAT     H233090   4.105   3.507   9.285
10950WAT      O33091   5.849   8.144   2.396
10950WAT     H133092   5.749   8.133   2.390
10950WAT     H233093   5.871   8.242   2.396
10951WAT      O33094   8.868   4.647   7.197
10951WAT     H133095   8.908   4.578   7.137
10951WAT     H233096   8.818   4.602   7.272
10952WAT      O33097   0.507   0.187   4.366
10952WAT     H133098   0.596   0.143   4.361
10952WAT     H233099   0.481   0.201   4.461
10953WAT      O33100   5.631   1.994   1.363
10953WAT     H133101   5.619   1.896   1.343
10953WAT     H233102   5.708   2.029   1.310
10954WAT      O33103   0.950   6.689   0.294
10954WAT     H133104   1.036   6.643   0.274
10954WAT     H233105   0.968   6.773   0.345
10955WAT      O33106   8.087   9.629   4.068
10955WAT     H133107   8.005   9.576   4.093
10955WAT     H233108   8.059   9.721   4.039
10956WAT      O33109   5.441   2.182   1.426
10956WAT     H133110   5.511   2.112   1.409
10956WAT     H233111   5.407   2.174   1.520
10957WAT      O33112   7.932   4.526   5.918
10957WAT     H133113   7.849   4.582   5.920
10957WAT     H233114   7.912   4.436   5.957
10958WAT      O33115   0.523   2.879   1.809
10958WAT     H133116   0.608   2.871   1.757
10958WAT     H233117   0.491   2.788   1.834
10959WAT      O33118   4.737   5.767   1.978
10959WAT     H133119   4.712   5.802   1.888
10959WAT     H233120   4.697   5.676   1.992
10960WAT      O33121   5.618   1.898   7.406
10960WAT     H133122   5.709   1.874   7.439
10960WAT     H233123   5.561   1.925   7.483
10961WAT      O33124   1.856   8.737   9.634
10961WAT     H133125   1.798   8.799   9.582
10961WAT     H233126   1.799   8.675   9.688
10962WAT      O33127   6.734   3.821   0.118
10962WAT     H133128   6.770   3.729   0.107
10962WAT     H233129   6.798   3.887   0.078
10963WAT      O33130   6.956   3.938   0.286
10963WAT     H133131   6.955   3.970   0.380
10963WAT     H233132   6.870   3.963   0.241
10964WAT      O33133   6.765   8.431   0.408
10964WAT     H133134   6.724   8.341   0.400
10964WAT     H233135   6.863   8.425   0.392
10965WAT      O33136   3.690   3.396   4.966
10965WAT     H133137   3.672   3.428   5.059
10965WAT     H233138   3.777   3.346   4.964
10966WAT      O33139   5.697   9.583   1.537
10966WAT     H133140   5.786   9.581   1.583
10966WAT     H233141   5.652   9.671   1.556
10967WAT      O33142   0.494   9.137   8.595
10967WAT     H133143   0.504   9.039   8.609
10967WAT     H233144   0.398   9.160   8.584
10968WAT      O33145   6.168   4.127   1.839
10968WAT     H133146   6.105   4.051   1.855
10968WAT     H233147   6.124   4.213   1.867
10969WAT      O33148   5.778   5.511   9.583
10969WAT     H133149   5.815   5.563   9.506
10969WAT     H233150   5.741   5.575   9.651
10970WAT      O33151   2.320   0.595   1.508
10970WAT     H133152   2.415   0.590   1.539
10970WAT     H233153   2.303   0.524   1.441
10971WAT      O33154   7.630   3.743   2.365
10971WAT     H133155   7.644   3.661   2.420
10971WAT     H233156   7.629   3.823   2.424
10972WAT      O33157   5.581   2.153   8.174
10972WAT     H133158   5.509   2.112   8.118
10972WAT     H233159   5.665   2.160   8.119
10973WAT      O33160   4.024   8.666   7.057
10973WAT     H133161   4.051   8.586   7.111
10973WAT     H233162   3.941   8.644   7.005
10974WAT      O33163   4.195   3.058   7.703
10974WAT     H133164   4.098   3.041   7.687
10974WAT     H233165   4.207   3.146   7.749
10975WAT      O33166   9.567   3.968   2.306
10975WAT     H133167   9.489   4.006   2.355
10975WAT     H233168   9.535   3.920   2.224
10976WAT      O33169   5.544   1.029   5.726
10976WAT     H133170   5.457   0.994   5.762
10976WAT     H233171   5.530   1.120   5.687
10977WAT      O33172   6.865   4.400   3.314
10977WAT     H133173   6.947   4.346   3.332
10977WAT     H233174   6.807   4.352   3.248
10978WAT      O33175   4.061   9.304   6.788
10978WAT     H133176   4.147   9.323   6.834
10978WAT     H233177   4.042   9.376   6.720
10979WAT      O33178   0.170   7.171   2.817
10979WAT     H133179   0.096   7.166   2.750
10979WAT     H233180   0.246   7.113   2.787
10980WAT      O33181   4.321   9.249   5.794
10980WAT     H133182   4.357   9.302   5.717
10980WAT     H233183   4.246   9.300   5.837
10981WAT      O33184   9.715   2.979   6.027
10981WAT     H133185   9.677   3.040   6.097
10981WAT     H233186   9.650   2.970   5.952
10982WAT      O33187   7.579   4.723   5.601
10982WAT     H133188   7.487   4.717   5.639
10982WAT     H233189   7.607   4.633   5.567
10983WAT      O33190   1.015   8.011   2.309
10983WAT     H133191   0.978   8.078   2.244
10983WAT     H233192   1.059   8.059   2.385
10984WAT      O33193   8.280   9.775   2.754
10984WAT     H133194   8.364   9.782   2.700
10984WAT     H233195   8.297   9.718   2.835
10985WAT      O33196   8.645   1.780   5.500
10985WAT     H133197   8.676   1.701   5.551
10985WAT     H233198   8.637   1.859   5.561
10986WAT      O33199   9.456   2.196   4.369
10986WAT     H133200   9.452   2.289   4.332
10986WAT     H233201   9.377   2.144   4.337
10987WAT      O33202   2.878   6.574   6.421
10987WAT     H133203   2.965   6.609   6.457
10987WAT     H233204   2.882   6.474   6.418
10988WAT      O33205   1.982   0.169   8.859
10988WAT     H133206   1.997   0.134   8.767
10988WAT     H233207   2.069   0.169   8.908
10989WAT      O33208   5.188   9.088   6.903
10989WAT     H133209   5.243   9.044   6.974
10989WAT     H233210   5.094   9.054   6.908
10990WAT      O33211   7.222   3.674   2.227
10990WAT     H133212   7.137   3.655   2.276
10990WAT     H233213   7.299   3.636   2.279
10991WAT      O33214   2.089   0.912   0.386
10991WAT     H133215   2.180   0.896   0.346
10991WAT     H233216   2.049   0.824   0.412
10992WAT      O33217   4.233   4.657   3.278
10992WAT     H133218   4.263   4.658   3.373
10992WAT     H233219   4.244   4.564   3.241
10993WAT      O33220   2.511   6.228   0.333
10993WAT     H133221   2.578   6.257   0.402
10993WAT     H233222   2.419   6.245   0.368
10994WAT      O33223   2.219   0.055   2.513
10994WAT     H133224   2.319   0.049   2.506
10994WAT     H233225   2.181   0.079   2.424
10995WAT      O33226   6.799   2.716   9.056
10995WAT     H133227   6.815   2.751   9.148
10995WAT     H233228   6.829   2.621   9.051
10996WAT      O33229   7.424   3.015   3.592
10996WAT     H133230   7.523   3.028   3.585
10996WAT     H233231   7.387   3.078   3.660
10997WAT      O33232   9.048   5.238   8.086
10997WAT     H133233   9.122   5.175   8.062
10997WAT     H233234   8.969   5.221   8.027
10998WAT      O33235   2.737   3.636   2.474
10998WAT     H133236   2.689   3.620   2.560
10998WAT     H233237   2.824   3.680   2.491
10999WAT      O33238   5.297   4.266   9.675
10999WAT     H133239   5.200   4.245   9.665
10999WAT     H233240   5.315   4.359   9.643
11000WAT      O33241   6.679   0.108   4.052
11000WAT     H133242   6.614   0.042   4.089
11000WAT     H233243   6.772   0.073   4.061
11001WAT      O33244   4.499   4.866   2.717
11001WAT     H133245   4.418   4.924   2.705
11001WAT     H233246   4.478   4.773   2.688
11002WAT      O33247   8.156   5.279   3.099
11002WAT     H133248   8.234   5.246   3.046
11002WAT     H233249   8.188   5.337   3.174
11003WAT      O33250   7.692   8.046   7.100
11003WAT     H133251   7.700   8.110   7.176
11003WAT     H233252   7.768   8.060   7.037
11004WAT      O33253   2.301   7.327   0.927
11004WAT     H133254   2.391   7.352   0.892
11004WAT     H233255   2.231   7.386   0.887
11005WAT      O33256   0.002   3.441   1.497
11005WAT     H133257   0.065   3.393   1.558
11005WAT     H233258  -0.077   3.382   1.477
11006WAT      O33259   9.544   7.203   3.662
11006WAT     H133260   9.595   7.141   3.602
11006WAT     H233261   9.506   7.278   3.608
11007WAT      O33262   2.111   8.570   7.003
11007WAT     H133263   2.098   8.477   6.970
11007WAT     H233264   2.062   8.582   7.090
11008WAT      O33265   5.754   1.662   8.681
11008WAT     H133266   5.736   1.658   8.779
11008WAT     H233267   5.720   1.578   8.638
11009WAT      O33268   4.114   4.784   9.218
11009WAT     H133269   4.140   4.806   9.312
11009WAT     H233270   4.063   4.698   9.217
11010WAT      O33271   9.118   8.713   5.071
11010WAT     H133272   9.161   8.625   5.090
11010WAT     H233273   9.019   8.700   5.059
11011WAT      O33274   4.710   9.046   4.545
11011WAT     H133275   4.681   9.038   4.450
11011WAT     H233276   4.737   9.141   4.563
11012WAT      O33277   2.724   1.960   4.122
11012WAT     H133278   2.693   2.020   4.049
11012WAT     H233279   2.804   2.000   4.167
11013WAT      O33280   7.251   0.862   4.347
11013WAT     H133281   7.338   0.862   4.298
11013WAT     H233282   7.266   0.837   4.443
11014WAT      O33283   0.794   0.559   7.256
11014WAT     H133284   0.808   0.533   7.160
11014WAT     H233285   0.700   0.539   7.282
11015WAT      O33286   3.210   7.058   9.630
11015WAT     H133287   3.233   6.988   9.563
11015WAT     H233288   3.115   7.049   9.657
11016WAT      O33289   7.752   4.861   8.342
11016WAT     H133290   7.730   4.764   8.343
11016WAT     H233291   7.808   4.883   8.421
11017WAT      O33292   2.069   5.024   0.283
11017WAT     H133293   2.077   4.944   0.223
11017WAT     H233294   2.008   5.002   0.359
11018WAT      O33295   7.497   9.328   0.575
11018WAT     H133296   7.452   9.301   0.489
11018WAT     H233297   7.428   9.344   0.645
11019WAT      O33298   1.575   4.759   0.136
11019WAT     H133299   1.656   4.811   0.109
11019WAT     H233300   1.514   4.749   0.057
11020WAT      O33301   6.065   6.731   5.917
11020WAT     H133302   6.118   6.705   5.998
11020WAT     H233303   5.977   6.770   5.947
11021WAT      O33304   6.954   4.731   2.387
11021WAT     H133305   6.887   4.744   2.460
11021WAT     H233306   6.938   4.643   2.342
11022WAT      O33307   4.403   1.810   6.990
11022WAT     H133308   4.477   1.802   7.057
11022WAT     H233309   4.441   1.822   6.899
11023WAT      O33310   2.963   3.746   0.974
11023WAT     H133311   3.022   3.725   1.053
11023WAT     H233312   2.941   3.843   0.973
11024WAT      O33313   2.899   8.719   8.455
11024WAT     H133314   2.853   8.646   8.506
11024WAT     H233315   2.982   8.746   8.503
11025WAT      O33316   1.276   2.060   6.187
11025WAT     H133317   1.319   2.148   6.206
11025WAT     H233318   1.331   2.010   6.120
11026WAT      O33319   9.876   2.406   0.166
11026WAT     H133320   9.804   2.338   0.154
11026WAT     H233321   9.926   2.388   0.250
11027WAT      O33322   9.077   7.597   4.324
11027WAT     H133323   9.103   7.553   4.238
11027WAT     H233324   9.112   7.691   4.325
11028WAT      O33325   8.402   3.156   3.806
11028WAT     H133326   8.333   3.227   3.811
11028WAT     H233327   8.493   3.196   3.818
11029WAT      O33328   5.153   8.899   1.143
11029WAT     H133329   5.076   8.866   1.087
11029WAT     H233330   5.214   8.954   1.086
11030WAT      O33331   3.138   8.880   0.516
11030WAT     H133332   3.048   8.880   0.558
11030WAT     H233333   3.206   8.850   0.584
11031WAT      O33334   0.081   2.465   8.356
11031WAT     H133335   0.011   2.475   8.427
11031WAT     H233336   0.068   2.378   8.309
11032WAT      O33337   3.849   0.913   7.796
11032WAT     H133338   3.801   0.888   7.712
11032WAT     H233339   3.862   0.832   7.853
11033WAT      O33340   9.431   8.197   0.700
11033WAT     H133341   9.383   8.190   0.613
11033WAT     H233342   9.528   8.215   0.683
11034WAT      O33343   5.764   0.405   3.271
11034WAT     H133344   5.842   0.412   3.209
11034WAT     H233345   5.711   0.323   3.248
11035WAT      O33346   6.228   0.672   5.264
11035WAT     H133347   6.174   0.756   5.266
11035WAT     H233348   6.325   0.694   5.257
11036WAT      O33349   2.343   5.244   1.192
11036WAT     H133350   2.305   5.210   1.279
11036WAT     H233351   2.283   5.315   1.155
11037WAT      O33352   5.976   7.024   6.515
11037WAT     H133353   5.892   7.054   6.469
11037WAT     H233354   5.954   6.949   6.578
11038WAT      O33355   0.759   4.410   0.339
11038WAT     H133356   0.718   4.332   0.387
11038WAT     H233357   0.711   4.423   0.251
11039WAT      O33358   8.149   4.904   3.720
11039WAT     H133359   8.112   4.901   3.627
11039WAT     H233360   8.088   4.856   3.783
11040WAT      O33361   0.820   3.105   8.622
11040WAT     H133362   0.780   3.041   8.557
11040WAT     H233363   0.869   3.177   8.573
11041WAT      O33364   7.551   2.834   2.921
11041WAT     H133365   7.613   2.895   2.873
11041WAT     H233366   7.460   2.839   2.880
11042WAT      O33367   2.143   6.382   1.366
11042WAT     H133368   2.102   6.326   1.438
11042WAT     H233369   2.116   6.477   1.378
11043WAT      O33370   0.032   3.508   6.316
11043WAT     H133371   0.101   3.580   6.312
11043WAT     H233372   0.027   3.472   6.409
11044WAT      O33373   9.003   3.220   8.228
11044WAT     H133374   9.007   3.154   8.153
11044WAT     H233375   8.989   3.312   8.191
11045WAT      O33376   6.950   1.672   7.863
11045WAT     H133377   6.986   1.735   7.931
11045WAT     H233378   6.946   1.717   7.774
11046WAT      O33379   7.388   2.436   1.268
11046WAT     H133380   7.336   2.511   1.308
11046WAT     H233381   7.339   2.350   1.281
11047WAT      O33382   0.882   6.823   3.365
11047WAT     H133383   0.861   6.735   3.322
11047WAT     H233384   0.870   6.897   3.300
11048WAT      O33385   8.497   7.114   2.575
11048WAT     H133386   8.514   7.172   2.655
11048WAT     H233387   8.527   7.162   2.492
11049WAT      O33388   9.840   1.786   3.475
11049WAT     H133389   9.818   1.878   3.443
11049WAT     H233390   9.862   1.728   3.396
11050WAT      O33391   8.070   0.843   7.789
11050WAT     H133392   8.078   0.792   7.703
11050WAT     H233393   8.082   0.940   7.770
11051WAT      O33394   8.509   1.398   1.961
11051WAT     H133395   8.596   1.365   1.925
11051WAT     H233396   8.439   1.326   1.949
11052WAT      O33397   2.251   0.131   3.982
11052WAT     H133398   2.156   0.158   3.995
11052WAT     H233399   2.291   0.105   4.069
11053WAT      O33400   4.728   5.015   6.059
11053WAT     H133401   4.674   4.946   6.108
11053WAT     H233402   4.813   5.033   6.108
11054WAT      O33403   3.032   2.945   3.856
11054WAT     H133404   3.088   2.872   3.895
11054WAT     H233405   2.937   2.932   3.884
11055WAT      O33406   8.022   0.046   1.339
11055WAT     H133407   7.994  -0.050   1.336
11055WAT     H233408   8.031   0.076   1.434
11056WAT      O33409   8.212   4.549   3.162
11056WAT     H133410   8.165   4.534   3.250
11056WAT     H233411   8.308   4.525   3.171
11057WAT      O33412   7.344   1.312   0.053
11057WAT     H133413   7.250   1.336   0.078
11057WAT     H233414   7.362   1.340  -0.041
11058WAT      O33415   0.266   6.293   8.404
11058WAT     H133416   0.285   6.248   8.491
11058WAT     H233417   0.266   6.392   8.416
11059WAT      O33418   3.199   2.628   1.268
11059WAT     H133419   3.147   2.616   1.352
11059WAT     H233420   3.154   2.696   1.210
11060WAT      O33421   1.865   5.342   2.706
11060WAT     H133422   1.934   5.376   2.770
11060WAT     H233423   1.864   5.399   2.624
11061WAT      O33424   8.782   2.124   1.755
11061WAT     H133425   8.831   2.108   1.669
11061WAT     H233426   8.686   2.100   1.743
11062WAT      O33427   7.827   9.366   8.046
11062WAT     H133428   7.787   9.278   8.070
11062WAT     H233429   7.766   9.416   7.985
11063WAT      O33430   5.791   7.604   8.129
11063WAT     H133431   5.736   7.656   8.195
11063WAT     H233432   5.866   7.661   8.097
11064WAT      O33433   8.813   8.013   8.946
11064WAT     H133434   8.717   8.036   8.959
11064WAT     H233435   8.837   8.021   8.850
11065WAT      O33436   9.228   5.884   1.182
11065WAT     H133437   9.215   5.879   1.281
11065WAT     H233438   9.252   5.793   1.147
11066WAT      O33439   9.260   7.416   3.820
11066WAT     H133440   9.345   7.371   3.791
11066WAT     H233441   9.247   7.500   3.768
11067WAT      O33442   9.740   0.619   5.973
11067WAT     H133443   9.680   0.539   5.976
11067WAT     H233444   9.688   0.701   5.999
11068WAT      O33445   7.119   4.876   3.676
11068WAT     H133446   7.057   4.806   3.712
11068WAT     H233447   7.097   4.894   3.581
11069WAT      O33448   3.581   2.833   7.761
11069WAT     H133449   3.664   2.786   7.791
11069WAT     H233450   3.523   2.852   7.840
11070WAT      O33451   1.128   8.500   5.534
11070WAT     H133452   1.218   8.473   5.567
11070WAT     H233453   1.137   8.581   5.476
11071WAT      O33454   2.454   6.937   7.301
11071WAT     H133455   2.501   7.016   7.265
11071WAT     H233456   2.356   6.942   7.278
11072WAT      O33457   8.656   0.216   8.000
11072WAT     H133458   8.745   0.207   7.956
11072WAT     H233459   8.661   0.179   8.093
11073WAT      O33460   4.362   3.350   7.113
11073WAT     H133461   4.441   3.293   7.137
11073WAT     H233462   4.304   3.361   7.193
11074WAT      O33463   9.626   1.734   7.638
11074WAT     H133464   9.660   1.643   7.614
11074WAT     H233465   9.558   1.726   7.710
11075WAT      O33466   8.684   3.171   3.030
11075WAT     H133467   8.736   3.246   3.070
11075WAT     H233468   8.625   3.206   2.958
11076WAT      O33469   7.980   4.816   7.623
11076WAT     H133470   7.966   4.759   7.542
11076WAT     H233471   8.055   4.778   7.677
11077WAT      O33472   6.098   2.541   8.933
11077WAT     H133473   6.048   2.486   8.865
11077WAT     H233474   6.191   2.558   8.900
11078WAT      O33475   1.020   3.245   4.337
11078WAT     H133476   0.958   3.168   4.358
11078WAT     H233477   1.009   3.316   4.405
11079WAT      O33478   3.200   5.283   0.126
11079WAT     H133479   3.107   5.320   0.121
11079WAT     H233480   3.266   5.357   0.116
11080WAT      O33481   7.992   4.930   3.492
11080WAT     H133482   7.907   4.964   3.534
11080WAT     H233483   8.028   4.998   3.430
11081WAT      O33484   7.708   8.014   3.510
11081WAT     H133485   7.753   7.944   3.455
11081WAT     H233486   7.686   7.977   3.601
11082WAT      O33487   4.746   7.030   7.294
11082WAT     H133488   4.661   6.999   7.251
11082WAT     H233489   4.733   7.034   7.393
11083WAT      O33490   6.278   6.102   5.194
11083WAT     H133491   6.249   6.118   5.100
11083WAT     H233492   6.251   6.181   5.250
11084WAT      O33493   5.946   0.135   6.099
11084WAT     H133494   6.005   0.186   6.037
11084WAT     H233495   5.859   0.115   6.055
11085WAT      O33496   7.940   8.804   1.654
11085WAT     H133497   7.929   8.882   1.592
11085WAT     H233498   7.899   8.723   1.613
11086WAT      O33499   5.990   6.718   8.256
11086WAT     H133500   6.070   6.748   8.309
11086WAT     H233501   5.920   6.789   8.258
11087WAT      O33502   1.917   1.008   0.684
11087WAT     H133503   1.899   1.067   0.606
11087WAT     H233504   1.878   0.918   0.668
11088WAT      O33505   6.404   3.566   6.674
11088WAT     H133506   6.434   3.578   6.769
11088WAT     H233507   6.358   3.478   6.664
11089WAT      O33508   9.525   4.089   2.689
11089WAT     H133509   9.498   3.993   2.688
11089WAT     H233510   9.625   4.095   2.688
11090WAT      O33511   3.529   3.909   2.277
11090WAT     H133512   3.594   3.892   2.352
11090WAT     H233513   3.566   3.981   2.217
11091WAT      O33514   4.978   9.744   0.665
11091WAT     H133515   5.055   9.800   0.636
11091WAT     H233516   4.947   9.687   0.589
11092WAT      O33517   1.762   2.402   8.417
11092WAT     H133518   1.770   2.435   8.511
11092WAT     H233519   1.802   2.311   8.411
11093WAT      O33520   2.995   4.525   1.055
11093WAT     H133521   2.940   4.607   1.039
11093WAT     H233522   2.990   4.499   1.152
11094WAT      O33523   6.460   2.180   0.018
11094WAT     H133524   6.472   2.228   0.105
11094WAT     H233525   6.403   2.099   0.033
11095WAT      O33526   1.556   7.094   4.159
11095WAT     H133527   1.575   7.047   4.246
11095WAT     H233528   1.627   7.161   4.142
11096WAT      O33529   6.236   6.982   5.200
11096WAT     H133530   6.332   6.976   5.225
11096WAT     H233531   6.210   7.078   5.189
11097WAT      O33532   0.730   6.097   8.922
11097WAT     H133533   0.790   6.083   9.000
11097WAT     H233534   0.708   6.194   8.913
11098WAT      O33535   8.389   1.338   8.321
11098WAT     H133536   8.307   1.282   8.330
11098WAT     H233537   8.404   1.389   8.406
11099WAT      O33538   6.946   8.546   9.572
11099WAT     H133539   7.012   8.569   9.500
11099WAT     H233540   6.976   8.587   9.658
11100WAT      O33541   3.029   5.302   1.750
11100WAT     H133542   2.940   5.347   1.746
11100WAT     H233543   3.063   5.286   1.657
11101WAT      O33544   1.228   2.901   2.671
11101WAT     H133545   1.135   2.866   2.664
11101WAT     H233546   1.242   2.972   2.601
11102WAT      O33547   6.709   6.652   9.611
11102WAT     H133548   6.705   6.708   9.528
11102WAT     H233549   6.803   6.649   9.644
11103WAT      O33550   6.278   7.369   6.731
11103WAT     H133551   6.215   7.328   6.666
11103WAT     H233552   6.370   7.330   6.720
11104WAT      O33553   5.081   5.987   3.221
11104WAT     H133554   5.035   6.017   3.305
11104WAT     H233555   5.115   6.067   3.171
11105WAT      O33556   7.748   2.165   8.145
11105WAT     H133557   7.792   2.198   8.062
11105WAT     H233558   7.715   2.244   8.198
11106WAT      O33559   4.439   3.924   7.645
11106WAT     H133560   4.463   3.988   7.572
11106WAT     H233561   4.366   3.863   7.613
11107WAT      O33562   0.655   7.974   0.924
11107WAT     H133563   0.568   8.018   0.899
11107WAT     H233564   0.730   8.018   0.875
11108WAT      O33565   9.349   5.573   0.221
11108WAT     H133566   9.331   5.670   0.204
11108WAT     H233567   9.265   5.521   0.207
11109WAT      O33568   7.497   5.522   8.749
11109WAT     H133569   7.539   5.444   8.796
11109WAT     H233570   7.562   5.560   8.683
11110WAT      O33571   0.391   7.746   0.550
11110WAT     H133572   0.484   7.777   0.571
11110WAT     H233573   0.385   7.647   0.564
11111WAT      O33574   0.667   9.337   0.377
11111WAT     H133575   0.645   9.240   0.390
11111WAT     H233576   0.764   9.347   0.356
11112WAT      O33577   0.659   4.812   4.210
11112WAT     H133578   0.743   4.849   4.251
11112WAT     H233579   0.664   4.818   4.111
11113WAT      O33580   8.307   8.509   2.713
11113WAT     H133581   8.299   8.583   2.646
11113WAT     H233582   8.232   8.514   2.778
11114WAT      O33583   2.650   0.717   7.606
11114WAT     H133584   2.674   0.653   7.532
11114WAT     H233585   2.553   0.710   7.626
11115WAT      O33586   5.943   5.361   0.771
11115WAT     H133587   5.968   5.308   0.852
11115WAT     H233588   5.951   5.303   0.690
11116WAT      O33589   1.554   6.522   8.276
11116WAT     H133590   1.612   6.545   8.198
11116WAT     H233591   1.558   6.596   8.343
11117WAT      O33592   4.922   4.440   9.691
11117WAT     H133593   4.987   4.475   9.759
11117WAT     H233594   4.931   4.341   9.684
11118WAT      O33595   2.493   1.432   1.598
11118WAT     H133596   2.522   1.459   1.507
11118WAT     H233597   2.414   1.371   1.591
11119WAT      O33598   0.124   1.735   2.715
11119WAT     H133599   0.107   1.742   2.814
11119WAT     H233600   0.042   1.763   2.665
11120WAT      O33601   8.441   8.243   3.020
11120WAT     H133602   8.494   8.292   2.950
11120WAT     H233603   8.490   8.160   3.045
11121WAT      O33604   7.383   6.816   2.640
11121WAT     H133605   7.295   6.813   2.687
11121WAT     H233606   7.377   6.878   2.562
11122WAT      O33607   8.890   6.802   9.480
11122WAT     H133608   8.842   6.750   9.550
11122WAT     H233609   8.872   6.899   9.493
11123WAT      O33610   4.968   5.014   7.094
11123WAT     H133611   4.972   5.012   7.194
11123WAT     H233612   5.056   4.984   7.057
11124WAT      O33613   4.516   7.586   9.745
11124WAT     H133614   4.421   7.556   9.748
11124WAT     H233615   4.519   7.686   9.734
11125WAT      O33616   6.074   4.841   7.209
11125WAT     H133617   6.058   4.853   7.307
11125WAT     H233618   5.991   4.807   7.166
11126WAT      O33619   9.572   2.802   1.100
11126WAT     H133620   9.625   2.801   1.015
11126WAT     H233621   9.577   2.893   1.141
11127WAT      O33622   4.017   1.235   5.845
11127WAT     H133623   4.093   1.293   5.873
11127WAT     H233624   3.950   1.289   5.793
11128WAT      O33625   4.475   0.405   8.093
11128WAT     H133626   4.528   0.431   8.174
11128WAT     H233627   4.536   0.363   8.025
11129WAT      O33628   2.970   4.014   0.911
11129WAT     H133629   2.899   4.048   0.849
11129WAT     H233630   3.050   3.985   0.858
11130WAT      O33631   4.528   4.745   9.698
11130WAT     H133632   4.582   4.692   9.633
11130WAT     H233633   4.567   4.734   9.790
11131WAT      O33634   7.654   4.713   9.791
11131WAT     H133635   7.577   4.703   9.855
11131WAT     H233636   7.619   4.734   9.700
11132WAT      O33637   6.536   8.096   2.795
11132WAT     H133638   6.592   8.176   2.813
11132WAT     H233639   6.565   8.054   2.709
11133WAT      O33640   0.087   8.796   9.197
11133WAT     H133641   0.035   8.809   9.281
11133WAT     H233642   0.028   8.756   9.127
11134WAT      O33643   6.867   7.774   7.374
11134WAT     H133644   6.796   7.715   7.414
11134WAT     H233645   6.825   7.836   7.307
11135WAT      O33646   7.679   2.965   4.929
11135WAT     H133647   7.588   2.928   4.906
11135WAT     H233648   7.695   3.048   4.876
11136WAT      O33649   8.561   8.286   3.889
11136WAT     H133650   8.565   8.314   3.985
11136WAT     H233651   8.520   8.195   3.882
11137WAT      O33652   1.810   8.614   1.466
11137WAT     H133653   1.734   8.623   1.401
11137WAT     H233654   1.808   8.522   1.506
11138WAT      O33655   7.387   6.541   3.128
11138WAT     H133656   7.387   6.545   3.228
11138WAT     H233657   7.399   6.446   3.098
11139WAT      O33658   4.442   5.895   2.987
11139WAT     H133659   4.411   5.958   3.058
11139WAT     H233660   4.508   5.831   3.027
11140WAT      O33661   5.940   1.218   2.228
11140WAT     H133662   5.895   1.233   2.141
11140WAT     H233663   5.969   1.122   2.234
11141WAT      O33664   7.096   3.312   1.305
11141WAT     H133665   7.048   3.340   1.388
11141WAT     H233666   7.178   3.368   1.293
11142WAT      O33667   8.083   6.968   5.002
11142WAT     H133668   8.136   6.889   5.034
11142WAT     H233669   8.139   7.025   4.942
11143WAT      O33670   9.580   4.151   8.777
11143WAT     H133671   9.510   4.214   8.742
11143WAT     H233672   9.572   4.145   8.876
11144WAT      O33673   8.532   0.639   1.860
11144WAT     H133674   8.598   0.582   1.909
11144WAT     H233675   8.565   0.654   1.766
11145WAT      O33676   9.773   2.486   7.621
11145WAT     H133677   9.754   2.406   7.564
11145WAT     H233678   9.839   2.461   7.692
11146WAT      O33679   3.094   7.918   3.479
11146WAT     H133680   3.117   8.010   3.447
11146WAT     H233681   3.110   7.912   3.578
11147WAT      O33682   0.497   0.985   9.853
11147WAT     H133683   0.576   1.030   9.811
11147WAT     H233684   0.501   0.887   9.837
11148WAT      O33685   4.267   2.739   7.301
11148WAT     H133686   4.192   2.767   7.361
11148WAT     H233687   4.270   2.639   7.298
11149WAT      O33688   9.200   8.766   4.691
11149WAT     H133689   9.280   8.708   4.706
11149WAT     H233690   9.230   8.858   4.663
11150WAT      O33691   4.890   3.457   0.147
11150WAT     H133692   4.973   3.491   0.102
11150WAT     H233693   4.898   3.473   0.246
11151WAT      O33694   1.606   8.221   4.343
11151WAT     H133695   1.512   8.254   4.335
11151WAT     H233696   1.610   8.147   4.411
11152WAT      O33697   6.811   7.188   5.337
11152WAT     H133698   6.813   7.148   5.429
11152WAT     H233699   6.726   7.239   5.325
11153WAT      O33700   9.327   1.151   4.887
11153WAT     H133701   9.323   1.209   4.805
11153WAT     H233702   9.234   1.137   4.922
11154WAT      O33703   7.205   6.070   0.220
11154WAT     H133704   7.255   6.114   0.295
11154WAT     H233705   7.264   6.004   0.175
11155WAT      O33706   0.562   0.562   2.904
11155WAT     H133707   0.617   0.646   2.906
11155WAT     H233708   0.542   0.533   2.997
11156WAT      O33709   3.262   8.854   1.042
11156WAT     H133710   3.202   8.854   0.961
11156WAT     H233711   3.320   8.935   1.039
11157WAT      O33712   1.200   0.908   8.418
11157WAT     H133713   1.127   0.840   8.425
11157WAT     H233714   1.197   0.968   8.498
11158WAT      O33715   1.311   1.753   8.484
11158WAT     H133716   1.328   1.735   8.388
11158WAT     H233717   1.396   1.786   8.527
11159WAT      O33718   2.963   8.442   3.548
11159WAT     H133719   3.032   8.470   3.614
11159WAT     H233720   2.942   8.518   3.486
11160WAT      O33721   0.523   0.050   9.569
11160WAT     H133722   0.520   0.145   9.600
11160WAT     H233723   0.548   0.047   9.472
11161WAT      O33724   3.313   1.016   4.260
11161WAT     H133725   3.251   1.052   4.330
11161WAT     H233726   3.349   0.928   4.290
11162WAT      O33727   1.344   1.158   2.543
11162WAT     H133728   1.395   1.132   2.625
11162WAT     H233729   1.363   1.253   2.521
11163WAT      O33730   3.005   8.258   1.988
11163WAT     H133731   2.990   8.272   2.086
11163WAT     H233732   3.005   8.160   1.968
11164WAT      O33733   8.050   3.078   2.407
11164WAT     H133734   8.143   3.041   2.409
11164WAT     H233735   7.999   3.034   2.333
11165WAT      O33736   8.873   4.854   8.445
11165WAT     H133737   8.834   4.825   8.358
11165WAT     H233738   8.853   4.786   8.515
11166WAT      O33739   8.885   6.032   2.327
11166WAT     H133740   8.821   5.991   2.262
11166WAT     H233741   8.845   6.032   2.419
11167WAT      O33742   0.510   8.455   6.705
11167WAT     H133743   0.438   8.504   6.753
11167WAT     H233744   0.488   8.451   6.607
11168WAT      O33745   4.318   0.675   9.351
11168WAT     H133746   4.404   0.718   9.381
11168WAT     H233747   4.330   0.576   9.345
11169WAT      O33748   4.229   1.086   5.400
11169WAT     H133749   4.156   1.117   5.339
11169WAT     H233750   4.193   1.074   5.492
11170WAT      O33751   8.272   9.601   1.388
11170WAT     H133752   8.173   9.619   1.384
11170WAT     H233753   8.294   9.557   1.475
11171WAT      O33754   2.282   2.014   6.751
11171WAT     H133755   2.283   2.025   6.850
11171WAT     H233756   2.332   1.930   6.727
11172WAT      O33757   7.901   9.175   3.448
11172WAT     H133758   7.907   9.240   3.373
11172WAT     H233759   7.963   9.098   3.431
11173WAT      O33760   4.865   8.193   6.409
11173WAT     H133761   4.908   8.181   6.320
11173WAT     H233762   4.900   8.276   6.452
11174WAT      O33763   0.627   0.778   2.004
11174WAT     H133764   0.719   0.740   2.015
11174WAT     H233765   0.568   0.741   2.076
11175WAT      O33766   6.296   3.115   6.779
11175WAT     H133767   6.377   3.174   6.780
11175WAT     H233768   6.241   3.133   6.861
11176WAT      O33769   2.965   6.472   2.330
11176WAT     H133770   2.880   6.499   2.375
11176WAT     H233771   3.005   6.551   2.284
11177WAT      O33772   7.770   4.922   4.931
11177WAT     H133773   7.870   4.928   4.927
11177WAT     H233774   7.731   4.951   4.843
11178WAT      O33775   6.671   4.378   2.332
11178WAT     H133776   6.699   4.443   2.403
11178WAT     H233777   6.645   4.291   2.375
11179WAT      O33778   5.184   7.373   9.198
11179WAT     H133779   5.143   7.433   9.131
11179WAT     H233780   5.144   7.391   9.288
11180WAT      O33781   2.584   8.784   7.690
11180WAT     H133782   2.506   8.806   7.748
11180WAT     H233783   2.555   8.776   7.595
11181WAT      O33784   9.197   6.343   1.878
11181WAT     H133785   9.198   6.433   1.833
11181WAT     H233786   9.174   6.355   1.974
11182WAT      O33787   7.959   7.488   5.579
11182WAT     H133788   8.023   7.413   5.597
11182WAT     H233789   8.003   7.557   5.522
11183WAT      O33790   3.403   5.499   0.162
11183WAT     H133791   3.385   5.595   0.184
11183WAT     H233792   3.489   5.491   0.111
11184WAT      O33793   3.537   9.525   0.289
11184WAT     H133794   3.558   9.585   0.211
11184WAT     H233795   3.526   9.581   0.371
11185WAT      O33796   4.986   1.236   3.424
11185WAT     H133797   4.981   1.299   3.347
11185WAT     H233798   5.003   1.143   3.390
11186WAT      O33799   9.490   5.805   4.321
11186WAT     H133800   9.563   5.758   4.270
11186WAT     H233801   9.475   5.757   4.408
11187WAT      O33802   2.358   8.832   9.698
11187WAT     H133803   2.354   8.732   9.707
11187WAT     H233804   2.433   8.857   9.638
11188WAT      O33805   3.534   7.906   3.144
11188WAT     H133806   3.633   7.917   3.154
11188WAT     H233807   3.513   7.877   3.050
11189WAT      O33808   4.453   8.810   0.865
11189WAT     H133809   4.366   8.838   0.824
11189WAT     H233810   4.503   8.753   0.800
11190WAT      O33811   4.656   1.363   5.672
11190WAT     H133812   4.597   1.324   5.743
11190WAT     H233813   4.711   1.437   5.711
11191WAT      O33814   7.329   9.478   2.666
11191WAT     H133815   7.421   9.443   2.682
11191WAT     H233816   7.305   9.542   2.739
11192WAT      O33817   0.234   2.659   8.670
11192WAT     H133818   0.220   2.683   8.574
11192WAT     H233819   0.250   2.742   8.723
11193WAT      O33820   4.076   0.451   4.881
11193WAT     H133821   4.120   0.361   4.883
11193WAT     H233822   3.998   0.449   4.818
11194WAT      O33823   5.204   2.567   0.828
11194WAT     H133824   5.266   2.579   0.906
11194WAT     H233825   5.112   2.595   0.853
11195WAT      O33826   6.538   7.511   8.014
11195WAT     H133827   6.590   7.566   7.949
11195WAT     H233828   6.557   7.414   7.998
11196WAT      O33829   6.380   4.328   0.143
11196WAT     H133830   6.306   4.393   0.124
11196WAT     H233831   6.367   4.246   0.088
11197WAT      O33832   3.092   7.877   9.534
11197WAT     H133833   3.136   7.896   9.622
11197WAT     H233834   3.084   7.778   9.522
11198WAT      O33835   8.866   9.201   8.452
11198WAT     H133836   8.811   9.140   8.396
11198WAT     H233837   8.823   9.213   8.541
11199WAT      O33838   0.704   3.468   6.563
11199WAT     H133839   0.704   3.478   6.463
11199WAT     H233840   0.748   3.382   6.589
11200WAT      O33841   5.188   5.217   3.923
11200WAT     H133842   5.113   5.191   3.861
11200WAT     H233843   5.215   5.138   3.978
11201WAT      O33844   0.766   5.419   3.011
11201WAT     H133845   0.733   5.513   3.023
11201WAT     H233846   0.765   5.371   3.099
11202WAT      O33847   4.172   1.892   9.294
11202WAT     H133848   4.133   1.802   9.276
11202WAT     H233849   4.272   1.885   9.297
11203WAT      O33850   1.756   8.282   4.736
11203WAT     H133851   1.783   8.308   4.643
11203WAT     H233852   1.813   8.206   4.767
11204WAT      O33853   3.427   1.957   0.812
11204WAT     H133854   3.473   2.043   0.789
11204WAT     H233855   3.386   1.965   0.903
11205WAT      O33856   5.482   4.961   0.970
11205WAT     H133857   5.410   5.030   0.976
11205WAT     H233858   5.490   4.914   1.059
11206WAT      O33859   3.964   6.432   0.006
11206WAT     H133860   3.926   6.523  -0.008
11206WAT     H233861   3.955   6.378  -0.078
11207WAT      O33862   7.186   2.356   1.564
11207WAT     H133863   7.108   2.369   1.503
11207WAT     H233864   7.218   2.262   1.557
11208WAT      O33865   7.354   0.832   1.667
11208WAT     H133866   7.418   0.886   1.722
11208WAT     H233867   7.377   0.735   1.675
11209WAT      O33868   9.073   2.938   5.245
11209WAT     H133869   9.080   2.849   5.200
11209WAT     H233870   9.093   2.928   5.343
11210WAT      O33871   2.812   1.688   9.877
11210WAT     H133872   2.848   1.696   9.970
11210WAT     H233873   2.865   1.619   9.827
11211WAT      O33874   8.481   6.718   7.042
11211WAT     H133875   8.508   6.731   6.947
11211WAT     H233876   8.382   6.725   7.050
11212WAT      O33877   3.000   1.001   5.877
11212WAT     H133878   3.063   0.994   5.799
11212WAT     H233879   2.926   0.934   5.867
11213WAT      O33880   0.641   5.176   9.167
11213WAT     H133881   0.612   5.094   9.117
11213WAT     H233882   0.655   5.153   9.263
11214WAT      O33883   3.091   0.137   9.625
11214WAT     H133884   3.048   0.209   9.680
11214WAT     H233885   3.070   0.047   9.665
11215WAT      O33886   2.407   0.542   4.885
11215WAT     H133887   2.446   0.464   4.934
11215WAT     H233888   2.308   0.532   4.878
11216WAT      O33889   9.739   0.595   5.572
11216WAT     H133890   9.682   0.663   5.618
11216WAT     H233891   9.782   0.637   5.492
11217WAT      O33892   4.039   0.082   9.291
11217WAT     H133893   4.002   0.173   9.274
11217WAT     H233894   4.090   0.081   9.376
11218WAT      O33895   1.664   2.955   7.053
11218WAT     H133896   1.663   2.903   6.968
11218WAT     H233897   1.594   3.027   7.049
11219WAT      O33898   1.743   5.810   2.285
11219WAT     H133899   1.664   5.748   2.279
11219WAT     H233900   1.778   5.811   2.379
11220WAT      O33901   3.037   6.740   7.968
11220WAT     H133902   3.014   6.790   8.051
11220WAT     H233903   2.960   6.680   7.944
11221WAT      O33904   2.627   9.241   7.680
11221WAT     H133905   2.545   9.264   7.627
11221WAT     H233906   2.660   9.324   7.727
11222WAT      O33907   3.902   0.165   6.009
11222WAT     H133908   3.939   0.077   6.040
11222WAT     H233909   3.969   0.210   5.951
11223WAT      O33910   6.671   7.112   0.312
11223WAT     H133911   6.633   7.084   0.400
11223WAT     H233912   6.730   7.191   0.325
11224WAT      O33913   4.199   8.594   0.738
11224WAT     H133914   4.265   8.667   0.722
11224WAT     H233915   4.244   8.505   0.731
11225WAT      O33916   5.734   0.138   2.457
11225WAT     H133917   5.673   0.123   2.534
11225WAT     H233918   5.828   0.120   2.485
11226WAT      O33919   9.644   0.173   6.511
11226WAT     H133920   9.647   0.199   6.414
11226WAT     H233921   9.727   0.122   6.534
11227WAT      O33922   6.688   6.909   5.411
11227WAT     H133923   6.768   6.928   5.468
11227WAT     H233924   6.695   6.817   5.373
11228WAT      O33925   9.113   9.006   8.401
11228WAT     H133926   9.097   8.937   8.330
11228WAT     H233927   9.035   9.067   8.406
11229WAT      O33928   4.503   9.249   9.119
11229WAT     H133929   4.553   9.267   9.204
11229WAT     H233930   4.563   9.203   9.054
11230WAT      O33931   3.838   2.171   7.044
11230WAT     H133932   3.751   2.216   7.063
11230WAT     H233933   3.891   2.226   6.979
11231WAT      O33934   6.339   0.304   0.927
11231WAT     H133935   6.272   0.251   0.979
11231WAT     H233936   6.298   0.331   0.839
11232WAT      O33937   1.236   8.664   7.384
11232WAT     H133938   1.253   8.733   7.455
11232WAT     H233939   1.143   8.675   7.349
11233WAT      O33940   4.555   7.892   0.264
11233WAT     H133941   4.594   7.807   0.227
11233WAT     H233942   4.471   7.871   0.313
11234WAT      O33943   8.149   6.732   4.416
11234WAT     H133944   8.161   6.648   4.469
11234WAT     H233945   8.139   6.709   4.319
11235WAT      O33946   6.496   7.420   9.547
11235WAT     H133947   6.490   7.515   9.577
11235WAT     H233948   6.430   7.405   9.473
11236WAT      O33949   0.587   1.179   7.267
11236WAT     H133950   0.598   1.129   7.353
11236WAT     H233951   0.676   1.186   7.222
11237WAT      O33952   3.435   4.359   5.591
11237WAT     H133953   3.370   4.319   5.527
11237WAT     H233954   3.473   4.443   5.552
11238WAT      O33955   5.953   4.731   0.685
11238WAT     H133956   5.898   4.702   0.763
11238WAT     H233957   5.949   4.831   0.677
11239WAT      O33958   4.369   5.549   8.784
11239WAT     H133959   4.392   5.645   8.768
11239WAT     H233960   4.359   5.533   8.882
11240WAT      O33961   1.817   0.789   1.092
11240WAT     H133962   1.741   0.855   1.088
11240WAT     H233963   1.819   0.736   1.007
11241WAT      O33964   0.227   4.778   1.141
11241WAT     H133965   0.303   4.826   1.098
11241WAT     H233966   0.202   4.699   1.085
11242WAT      O33967   5.746   1.445   5.716
11242WAT     H133968   5.784   1.361   5.677
11242WAT     H233969   5.817   1.495   5.765
11243WAT      O33970   3.742   1.466   3.952
11243WAT     H133971   3.732   1.457   3.853
11243WAT     H233972   3.825   1.516   3.973
11244WAT      O33973   8.618   8.937   0.927
11244WAT     H133974   8.593   8.883   1.007
11244WAT     H233975   8.703   8.986   0.945
11245WAT      O33976   7.084   0.108   5.694
11245WAT     H133977   7.141   0.111   5.776
11245WAT     H233978   7.094   0.019   5.649
11246WAT      O33979   8.817   6.585   7.861
11246WAT     H133980   8.766   6.662   7.899
11246WAT     H233981   8.782   6.499   7.899
11247WAT      O33982   0.143   5.382   0.508
11247WAT     H133983   0.200   5.460   0.479
11247WAT     H233984   0.154   5.307   0.443
11248WAT      O33985   3.810   8.287   2.554
11248WAT     H133986   3.818   8.237   2.468
11248WAT     H233987   3.816   8.385   2.536
11249WAT      O33988   7.459   9.116   4.798
11249WAT     H133989   7.496   9.152   4.712
11249WAT     H233990   7.522   9.048   4.835
11250WAT      O33991   4.094   4.272   5.481
11250WAT     H133992   4.148   4.198   5.441
11250WAT     H233993   4.117   4.282   5.578
11251WAT      O33994   8.635   8.478   1.153
11251WAT     H133995   8.709   8.434   1.204
11251WAT     H233996   8.646   8.460   1.056
11252WAT      O33997   6.531   1.656   0.951
11252WAT     H133998   6.448   1.600   0.950
11252WAT     H233999   6.530   1.720   0.874
11253WAT      O34000   7.019   3.870   7.280
11253WAT     H134001   7.114   3.890   7.304
11253WAT     H234002   7.011   3.864   7.180
11254WAT      O34003   4.928   1.366   4.947
11254WAT     H134004   4.937   1.442   4.883
11254WAT     H234005   4.833   1.334   4.949
11255WAT      O34006   6.496   7.940   3.393
11255WAT     H134007   6.523   8.015   3.452
11255WAT     H234008   6.453   7.868   3.447
11256WAT      O34009   2.229   7.419   3.410
11256WAT     H134010   2.171   7.493   3.374
11256WAT     H234011   2.274   7.450   3.494
11257WAT      O34012   6.042   6.277   6.935
11257WAT     H134013   5.972   6.347   6.923
11257WAT     H234014   6.105   6.305   7.007
11258WAT      O34015   2.500   1.155   6.463
11258WAT     H134016   2.460   1.088   6.400
11258WAT     H234017   2.599   1.149   6.460
11259WAT      O34018   5.607   6.161   0.648
11259WAT     H134019   5.563   6.124   0.567
11259WAT     H234020   5.539   6.202   0.708
11260WAT      O34021   3.478   4.203   5.014
11260WAT     H134022   3.383   4.235   5.015
11260WAT     H234023   3.479   4.106   4.993
11261WAT      O34024   4.967   6.418   1.534
11261WAT     H134025   4.889   6.409   1.595
11261WAT     H234026   4.995   6.514   1.530
11262WAT      O34027   5.535   0.506   3.793
11262WAT     H134028   5.454   0.447   3.790
11262WAT     H234029   5.571   0.507   3.886
11263WAT      O34030   5.852   3.487   1.981
11263WAT     H134031   5.940   3.448   1.956
11263WAT     H234032   5.784   3.414   1.989
11264WAT      O34033   2.448   7.390   8.265
11264WAT     H134034   2.477   7.306   8.221
11264WAT     H234035   2.504   7.466   8.232
11265WAT      O34036   1.878   1.655   2.938
11265WAT     H134037   1.954   1.672   3.001
11265WAT     H234038   1.912   1.653   2.844
11266WAT      O34039   3.823   3.411   8.644
11266WAT     H134040   3.781   3.420   8.554
11266WAT     H234041   3.755   3.377   8.709
11267WAT      O34042   4.119   6.423   8.750
11267WAT     H134043   4.101   6.522   8.755
11267WAT     H234044   4.161   6.401   8.662
11268WAT      O34045   8.262   1.701   3.849
11268WAT     H134046   8.319   1.775   3.813
11268WAT     H234047   8.319   1.633   3.894
11269WAT      O34048   1.888   5.647   2.080
11269WAT     H134049   1.982   5.666   2.053
11269WAT     H234050   1.860   5.711   2.152
11270WAT      O34051   0.243   6.325   0.359
11270WAT     H134052   0.222   6.236   0.399
11270WAT     H234053   0.195   6.397   0.411
11271WAT      O34054   2.355   2.208   5.749
11271WAT     H134055   2.395   2.294   5.781
11271WAT     H234056   2.427   2.152   5.709
11272WAT      O34057   0.003   6.610   6.670
11272WAT     H134058   0.025   6.701   6.706
11272WAT     H234059   0.041   6.540   6.730
11273WAT      O34060   9.214   8.188   1.685
11273WAT     H134061   9.150   8.250   1.730
11273WAT     H234062   9.188   8.178   1.589
11274WAT      O34063   6.265   1.569   0.381
11274WAT     H134064   6.314   1.508   0.319
11274WAT     H234065   6.228   1.646   0.329
11275WAT      O34066   6.668   3.099   2.705
11275WAT     H134067   6.607   3.020   2.713
11275WAT     H234068   6.748   3.073   2.652
11276WAT      O34069   3.823   9.160   1.961
11276WAT     H134070   3.911   9.203   1.981
11276WAT     H234071   3.749   9.212   2.005
11277WAT      O34072   0.818   3.579   2.647
11277WAT     H134073   0.874   3.643   2.595
11277WAT     H234074   0.861   3.489   2.648
11278WAT      O34075   6.049   6.132   8.183
11278WAT     H134076   5.987   6.088   8.248
11278WAT     H234077   6.000   6.151   8.098
11279WAT      O34078   9.615   7.524   8.385
11279WAT     H134079   9.583   7.563   8.298
11279WAT     H234080   9.677   7.589   8.430
11280WAT      O34081   1.771   3.156   8.756
11280WAT     H134082   1.768   3.248   8.717
11280WAT     H234083   1.862   3.138   8.793
11281WAT      O34084   4.891   3.716   5.704
11281WAT     H134085   4.851   3.659   5.776
11281WAT     H234086   4.892   3.665   5.618
11282WAT      O34087   1.430   3.359   7.035
11282WAT     H134088   1.455   3.423   6.963
11282WAT     H234089   1.504   3.353   7.101
11283WAT      O34090   9.122   4.327   2.237
11283WAT     H134091   9.195   4.331   2.305
11283WAT     H234092   9.153   4.276   2.157
11284WAT      O34093   4.147   6.525   3.621
11284WAT     H134094   4.132   6.427   3.631
11284WAT     H234095   4.067   6.575   3.656
11285WAT      O34096   8.206   0.663   6.178
11285WAT     H134097   8.280   0.596   6.180
11285WAT     H234098   8.126   0.627   6.227
11286WAT      O34099   2.715   5.158   7.764
11286WAT     H134100   2.629   5.115   7.736
11286WAT     H234101   2.791   5.112   7.719
11287WAT      O34102   1.150   9.208   0.909
11287WAT     H134103   1.171   9.141   0.980
11287WAT     H234104   1.067   9.258   0.934
11288WAT      O34105   8.216   6.751   7.072
11288WAT     H134106   8.190   6.754   7.169
11288WAT     H234107   8.213   6.843   7.034
11289WAT      O34108   5.788   5.336   4.257
11289WAT     H134109   5.732   5.254   4.252
11289WAT     H234110   5.749   5.399   4.324
11290WAT      O34111   7.050   7.043   0.516
11290WAT     H134112   7.111   7.111   0.475
11290WAT     H234113   6.966   7.088   0.546
11291WAT      O34114   4.549   6.411   1.489
11291WAT     H134115   4.604   6.439   1.410
11291WAT     H234116   4.527   6.491   1.545
11292WAT      O34117   1.332   1.912   7.922
11292WAT     H134118   1.331   1.935   8.019
11292WAT     H234119   1.409   1.851   7.903
11293WAT      O34120   6.585   3.400   9.449
11293WAT     H134121   6.672   3.448   9.440
11293WAT     H234122   6.593   3.309   9.411
11294WAT      O34123   4.938   4.704   7.171
11294WAT     H134124   5.027   4.710   7.126
11294WAT     H234125   4.929   4.777   7.239
11295WAT      O34126   6.616   5.623   3.057
11295WAT     H134127   6.686   5.677   3.104
11295WAT     H234128   6.556   5.684   3.006
11296WAT      O34129   1.310   7.109   4.406
11296WAT     H134130   1.397   7.068   4.378
11296WAT     H234131   1.249   7.115   4.327
11297WAT      O34132   7.829   1.552   6.486
11297WAT     H134133   7.806   1.517   6.577
11297WAT     H234134   7.922   1.588   6.486
11298WAT      O34135   2.446   8.803   1.551
11298WAT     H134136   2.362   8.805   1.497
11298WAT     H234137   2.494   8.716   1.537
11299WAT      O34138   9.202   0.597   0.547
11299WAT     H134139   9.286   0.584   0.493
11299WAT     H234140   9.127   0.621   0.486
11300WAT      O34141   5.092   9.450   0.557
11300WAT     H134142   5.151   9.521   0.518
11300WAT     H234143   4.997   9.470   0.533
11301WAT      O34144   4.714   4.049   3.251
11301WAT     H134145   4.744   3.957   3.278
11301WAT     H234146   4.750   4.071   3.160
11302WAT      O34147   3.451   1.828   9.472
11302WAT     H134148   3.381   1.766   9.437
11302WAT     H234149   3.442   1.917   9.427
11303WAT      O34150   9.587   0.827   6.013
11303WAT     H134151   9.506   0.820   5.955
11303WAT     H234152   9.653   0.889   5.970
11304WAT      O34153   0.581   8.012   1.838
11304WAT     H134154   0.579   8.034   1.935
11304WAT     H234155   0.555   7.916   1.825
11305WAT      O34156   0.210   1.247   5.443
11305WAT     H134157   0.302   1.208   5.449
11305WAT     H234158   0.212   1.329   5.385
11306WAT      O34159   1.110   2.272   4.462
11306WAT     H134160   1.196   2.302   4.503
11306WAT     H234161   1.123   2.183   4.417
11307WAT      O34162   9.854   9.463   0.819
11307WAT     H134163   9.902   9.414   0.747
11307WAT     H234164   9.758   9.436   0.819
11308WAT      O34165   8.914   0.382   8.971
11308WAT     H134166   8.834   0.394   9.030
11308WAT     H234167   8.890   0.407   8.877
11309WAT      O34168   0.584   9.483   8.989
11309WAT     H134169   0.564   9.386   8.999
11309WAT     H234170   0.500   9.536   8.997
11310WAT      O34171   9.826   6.627   2.930
11310WAT     H134172   9.918   6.622   2.891
11310WAT     H234173   9.789   6.719   2.916
11311WAT      O34174   1.575   1.936   1.804
11311WAT     H134175   1.607   1.847   1.835
11311WAT     H234176   1.631   1.967   1.727
11312WAT      O34177   0.692   8.720   9.313
11312WAT     H134178   0.748   8.660   9.257
11312WAT     H234179   0.748   8.795   9.348
11313WAT      O34180   9.658   3.140   0.289
11313WAT     H134181   9.583   3.120   0.226
11313WAT     H234182   9.744   3.142   0.238
11314WAT      O34183   3.159   9.076   7.393
11314WAT     H134184   3.130   9.144   7.325
11314WAT     H234185   3.147   8.984   7.354
11315WAT      O34186   5.610   6.228   9.204
11315WAT     H134187   5.551   6.230   9.123
11315WAT     H234188   5.594   6.311   9.258
11316WAT      O34189   9.066   2.973   9.886
11316WAT     H134190   9.143   2.958   9.825
11316WAT     H234191   9.026   2.885   9.912
11317WAT      O34192   2.632   8.234   3.003
11317WAT     H134193   2.653   8.232   2.906
11317WAT     H234194   2.535   8.213   3.018
11318WAT      O34195   0.125   8.234   3.162
11318WAT     H134196   0.074   8.194   3.238
11318WAT     H234197   0.087   8.201   3.075
11319WAT      O34198   7.610   2.521   1.796
11319WAT     H134199   7.552   2.499   1.718
11319WAT     H234200   7.706   2.523   1.767
11320WAT      O34201   3.670   7.051   1.155
11320WAT     H134202   3.613   7.057   1.073
11320WAT     H234203   3.691   6.956   1.175
11321WAT      O34204   3.148   7.870   6.018
11321WAT     H134205   3.168   7.950   6.074
11321WAT     H234206   3.220   7.860   5.949
11322WAT      O34207   1.176   6.347   1.647
11322WAT     H134208   1.109   6.398   1.701
11322WAT     H234209   1.201   6.263   1.695
11323WAT      O34210   6.047   8.369   8.188
11323WAT     H134211   6.075   8.455   8.146
11323WAT     H234212   6.048   8.379   8.288
11324WAT      O34213   0.744   0.470   7.953
11324WAT     H134214   0.826   0.444   7.903
11324WAT     H234215   0.734   0.570   7.951
11325WAT      O34216   0.910   5.186   1.662
11325WAT     H134217   0.921   5.162   1.565
11325WAT     H234218   0.815   5.212   1.678
11326WAT      O34219   8.857   8.286   5.471
11326WAT     H134220   8.899   8.225   5.404
11326WAT     H234221   8.787   8.235   5.522
11327WAT      O34222   1.449   9.385   3.846
11327WAT     H134223   1.470   9.289   3.865
11327WAT     H234224   1.412   9.394   3.754
11328WAT      O34225   3.163   7.653   3.303
11328WAT     H134226   3.114   7.619   3.383
11328WAT     H234227   3.099   7.671   3.229
11329WAT      O34228   8.185   0.008   3.490
11329WAT     H134229   8.279  -0.026   3.495
11329WAT     H234230   8.122  -0.068   3.502
11330WAT      O34231   4.702   3.823   4.526
11330WAT     H134232   4.633   3.891   4.548
11330WAT     H234233   4.733   3.778   4.609
11331WAT      O34234   8.679   6.385   2.427
11331WAT     H134235   8.702   6.419   2.518
11331WAT     H234236   8.763   6.365   2.377
11332WAT      O34237   0.178   5.419   6.186
11332WAT     H134238   0.082   5.439   6.164
11332WAT     H234239   0.237   5.476   6.129
11333WAT      O34240   9.378   5.641   4.600
11333WAT     H134241   9.386   5.562   4.539
11333WAT     H234242   9.467   5.659   4.643
11334WAT      O34243   0.467   7.285   1.557
11334WAT     H134244   0.457   7.293   1.656
11334WAT     H234245   0.562   7.266   1.534
11335WAT      O34246   0.372   4.544   6.305
11335WAT     H134247   0.343   4.474   6.239
11335WAT     H234248   0.333   4.632   6.279
11336WAT      O34249   8.840   5.223   2.876
11336WAT     H134250   8.849   5.290   2.802
11336WAT     H234251   8.903   5.147   2.860
11337WAT      O34252   3.179   8.483   3.956
11337WAT     H134253   3.106   8.417   3.973
11337WAT     H234254   3.268   8.436   3.963
11338WAT      O34255   4.421   0.345   1.478
11338WAT     H134256   4.340   0.289   1.460
11338WAT     H234257   4.419   0.378   1.572
11339WAT      O34258   6.713   0.747   3.834
11339WAT     H134259   6.671   0.828   3.876
11339WAT     H234260   6.796   0.723   3.884
11340WAT      O34261   9.037   1.066   1.509
11340WAT     H134262   9.097   1.033   1.582
11340WAT     H234263   9.032   0.998   1.437
11341WAT      O34264   2.353   9.706   3.337
11341WAT     H134265   2.371   9.668   3.427
11341WAT     H234266   2.263   9.748   3.335
11342WAT      O34267   1.158   5.481   3.904
11342WAT     H134268   1.162   5.581   3.902
11342WAT     H234269   1.068   5.450   3.874
11343WAT      O34270   4.047   1.608   5.922
11343WAT     H134271   4.132   1.617   5.871
11343WAT     H234272   3.984   1.682   5.898
11344WAT      O34273   6.266   2.840   3.240
11344WAT     H134274   6.272   2.935   3.209
11344WAT     H234275   6.214   2.836   3.326
11345WAT      O34276   3.753   2.115   4.456
11345WAT     H134277   3.658   2.087   4.470
11345WAT     H234278   3.766   2.144   4.361
11346WAT      O34279   5.875   5.899   5.925
11346WAT     H134280   5.786   5.916   5.967
11346WAT     H234281   5.883   5.953   5.841
11347WAT      O34282   1.207   6.470   6.295
11347WAT     H134283   1.185   6.433   6.204
11347WAT     H234284   1.122   6.482   6.347
11348WAT      O34285   2.390   5.593   8.340
11348WAT     H134286   2.295   5.601   8.307
11348WAT     H234287   2.418   5.680   8.380
11349WAT      O34288   0.211   7.452   9.489
11349WAT     H134289   0.283   7.389   9.460
11349WAT     H234290   0.124   7.403   9.492
11350WAT      O34291   8.878   3.138   8.459
11350WAT     H134292   8.881   3.039   8.442
11350WAT     H234293   8.913   3.187   8.379
11351WAT      O34294   2.888   7.338   5.763
11351WAT     H134295   2.813   7.345   5.828
11351WAT     H234296   2.975   7.329   5.812
11352WAT      O34297   4.483   6.381   8.583
11352WAT     H134298   4.403   6.395   8.524
11352WAT     H234299   4.453   6.339   8.669
11353WAT      O34300   6.648   6.795   4.001
11353WAT     H134301   6.601   6.717   4.042
11353WAT     H234302   6.599   6.879   4.023
11354WAT      O34303   9.515   9.137   6.803
11354WAT     H134304   9.615   9.134   6.808
11354WAT     H234305   9.484   9.103   6.715
11355WAT      O34306   2.707   4.193   0.472
11355WAT     H134307   2.711   4.211   0.374
11355WAT     H234308   2.641   4.255   0.515
11356WAT      O34309   3.970   4.793   5.056
11356WAT     H134310   3.935   4.788   5.150
11356WAT     H234311   4.055   4.846   5.055
11357WAT      O34312   5.856   3.037   6.830
11357WAT     H134313   5.799   2.959   6.804
11357WAT     H234314   5.802   3.121   6.825
11358WAT      O34315   3.900   7.557   6.827
11358WAT     H134316   3.856   7.620   6.891
11358WAT     H234317   3.889   7.463   6.861
11359WAT      O34318   6.791   0.836   0.012
11359WAT     H134319   6.746   0.749   0.030
11359WAT     H234320   6.812   0.882   0.098
11360WAT      O34321   7.186   1.180   9.247
11360WAT     H134322   7.240   1.130   9.315
11360WAT     H234323   7.213   1.276   9.246
11361WAT      O34324   6.834   5.194   7.932
11361WAT     H134325   6.822   5.245   7.847
11361WAT     H234326   6.895   5.244   7.993
11362WAT      O34327   2.605   5.722   0.234
11362WAT     H134328   2.622   5.636   0.282
11362WAT     H234329   2.665   5.793   0.272
11363WAT      O34330   1.707   9.440   2.980
11363WAT     H134331   1.670   9.407   2.893
11363WAT     H234332   1.678   9.534   2.995
11364WAT      O34333   9.790   5.331   1.001
11364WAT     H134334   9.818   5.424   0.977
11364WAT     H234335   9.697   5.333   1.039
11365WAT      O34336   4.707   6.832   9.740
11365WAT     H134337   4.797   6.810   9.777
11365WAT     H234338   4.683   6.767   9.668
11366WAT      O34339   2.652   3.837   2.884
11366WAT     H134340   2.750   3.854   2.884
11366WAT     H234341   2.631   3.762   2.821
11367WAT      O34342   6.751   7.806   1.194
11367WAT     H134343   6.753   7.893   1.243
11367WAT     H234344   6.750   7.823   1.096
11368WAT      O34345   4.963   5.746   7.302
11368WAT     H134346   5.002   5.669   7.252
11368WAT     H234347   4.975   5.830   7.249
11369WAT      O34348   1.794   8.520   5.482
11369WAT     H134349   1.821   8.430   5.448
11369WAT     H234350   1.794   8.586   5.407
11370WAT      O34351   2.546   0.528   3.007
11370WAT     H134352   2.574   0.580   2.926
11370WAT     H234353   2.522   0.435   2.980
11371WAT      O34354   8.747   0.190   2.920
11371WAT     H134355   8.759   0.128   2.997
11371WAT     H234356   8.713   0.140   2.841
11372WAT      O34357   8.947   4.519   6.985
11372WAT     H134358   8.855   4.540   6.952
11372WAT     H234359   9.011   4.523   6.908
11373WAT      O34360   2.896   0.802   4.520
11373WAT     H134361   2.930   0.807   4.427
11373WAT     H234362   2.835   0.724   4.529
11374WAT      O34363   7.467   1.128   8.675
11374WAT     H134364   7.372   1.154   8.659
11374WAT     H234365   7.519   1.208   8.705
11375WAT      O34366   1.846   5.123   6.694
11375WAT     H134367   1.829   5.220   6.711
11375WAT     H234368   1.893   5.112   6.607
11376WAT      O34369   0.068   4.682   3.745
11376WAT     H134370   0.067   4.681   3.845
11376WAT     H234371   0.024   4.766   3.712
11377WAT      O34372   6.901   1.507   4.312
11377WAT     H134373   6.993   1.470   4.328
11377WAT     H234374   6.902   1.606   4.325
11378WAT      O34375   9.458   3.373   8.813
11378WAT     H134376   9.463   3.273   8.814
11378WAT     H234377   9.526   3.411   8.876
11379WAT      O34378   5.449   6.760   6.494
11379WAT     H134379   5.436   6.668   6.530
11379WAT     H234380   5.371   6.786   6.437
11380WAT      O34381   5.958   3.100   8.033
11380WAT     H134382   5.923   3.154   8.109
11380WAT     H234383   6.054   3.078   8.050
11381WAT      O34384   1.573   1.655   7.010
11381WAT     H134385   1.479   1.674   7.039
11381WAT     H234386   1.596   1.712   6.931
11382WAT      O34387   7.409   1.196   6.156
11382WAT     H134388   7.311   1.174   6.154
11382WAT     H234389   7.450   1.156   6.238
11383WAT      O34390   7.087   7.326   2.281
11383WAT     H134391   7.044   7.379   2.355
11383WAT     H234392   7.030   7.247   2.259
11384WAT      O34393   8.017   5.418   9.391
11384WAT     H134394   8.089   5.406   9.460
11384WAT     H234395   7.992   5.515   9.387
11385WAT      O34396   2.475   8.609   4.434
11385WAT     H134397   2.397   8.546   4.430
11385WAT     H234398   2.554   8.567   4.388
11386WAT      O34399   7.820   2.069   1.546
11386WAT     H134400   7.854   2.115   1.464
11386WAT     H234401   7.730   2.106   1.570
11387WAT      O34402   2.307   0.450   0.698
11387WAT     H134403   2.231   0.446   0.763
11387WAT     H234404   2.272   0.445   0.605
11388WAT      O34405   9.620   7.798   8.642
11388WAT     H134406   9.633   7.887   8.685
11388WAT     H234407   9.592   7.732   8.712
11389WAT      O34408   7.718   5.774   8.155
11389WAT     H134409   7.790   5.714   8.191
11389WAT     H234410   7.649   5.788   8.226
11390WAT      O34411   5.149   2.973   0.267
11390WAT     H134412   5.144   2.877   0.238
11390WAT     H234413   5.071   2.994   0.326
11391WAT      O34414   1.229   6.609   4.821
11391WAT     H134415   1.188   6.521   4.847
11391WAT     H234416   1.269   6.652   4.902
11392WAT      O34417   5.705   2.778   3.241
11392WAT     H134418   5.636   2.705   3.243
11392WAT     H234419   5.737   2.791   3.147
11393WAT      O34420   0.259   2.944   1.262
11393WAT     H134421   0.259   3.009   1.186
11393WAT     H234422   0.174   2.890   1.259
11394WAT      O34423   8.517   6.348   4.193
11394WAT     H134424   8.481   6.396   4.272
11394WAT     H234425   8.525   6.250   4.214
11395WAT      O34426   3.675   5.995   2.676
11395WAT     H134427   3.632   5.994   2.767
11395WAT     H234428   3.699   5.902   2.649
11396WAT      O34429   6.550   4.427   9.817
11396WAT     H134430   6.495   4.377   9.885
11396WAT     H234431   6.540   4.525   9.832
11397WAT      O34432   1.634   3.773   5.225
11397WAT     H134433   1.713   3.835   5.220
11397WAT     H234434   1.624   3.739   5.318
11398WAT      O34435   1.119   8.370   4.552
11398WAT     H134436   1.068   8.405   4.630
11398WAT     H234437   1.094   8.422   4.470
11399WAT      O34438   3.838   3.949   3.718
11399WAT     H134439   3.935   3.926   3.712
11399WAT     H234440   3.827   4.047   3.730
11400WAT      O34441   1.043   2.447   7.998
11400WAT     H134442   0.972   2.514   8.023
11400WAT     H234443   1.129   2.494   7.982
11401WAT      O34444   4.295   5.256   5.629
11401WAT     H134445   4.306   5.309   5.713
11401WAT     H234446   4.226   5.185   5.644
11402WAT      O34447   4.974   2.926   3.405
11402WAT     H134448   4.963   3.015   3.449
11402WAT     H234449   4.972   2.938   3.306
11403WAT      O34450   9.589   6.389   1.644
11403WAT     H134451   9.625   6.466   1.591
11403WAT     H234452   9.523   6.339   1.588
11404WAT      O34453   9.670   0.819   9.450
11404WAT     H134454   9.648   0.856   9.359
11404WAT     H234455   9.585   0.791   9.495
11405WAT      O34456   0.937   5.337   5.400
11405WAT     H134457   0.872   5.395   5.449
11405WAT     H234458   1.027   5.382   5.398
11406WAT      O34459   6.748   2.883   7.333
11406WAT     H134460   6.812   2.839   7.270
11406WAT     H234461   6.656   2.848   7.317
11407WAT      O34462   2.300   4.151   6.516
11407WAT     H134463   2.389   4.145   6.471
11407WAT     H234464   2.232   4.186   6.450
11408WAT      O34465   3.150   0.337   7.437
11408WAT     H134466   3.198   0.291   7.362
11408WAT     H234467   3.160   0.436   7.427
11409WAT      O34468   6.235   5.133   3.355
11409WAT     H134469   6.197   5.164   3.267
11409WAT     H234470   6.277   5.043   3.344
11410WAT      O34471   2.614   8.172   9.446
11410WAT     H134472   2.698   8.187   9.395
11410WAT     H234473   2.567   8.090   9.411
11411WAT      O34474   1.754   4.062   0.444
11411WAT     H134475   1.775   3.995   0.373
11411WAT     H234476   1.656   4.058   0.466
11412WAT      O34477   0.642   4.720   5.506
11412WAT     H134478   0.719   4.782   5.521
11412WAT     H234479   0.672   4.626   5.518
11413WAT      O34480   2.184   4.332   6.325
11413WAT     H134481   2.143   4.360   6.411
11413WAT     H234482   2.245   4.404   6.291
11414WAT      O34483   5.060   6.899   2.834
11414WAT     H134484   4.975   6.886   2.785
11414WAT     H234485   5.079   6.997   2.844
11415WAT      O34486   9.680   0.122   5.843
11415WAT     H134487   9.778   0.138   5.826
11415WAT     H234488   9.666   0.027   5.872
11416WAT      O34489   5.516   7.680   3.298
11416WAT     H134490   5.476   7.729   3.221
11416WAT     H234491   5.526   7.741   3.376
11417WAT      O34492   3.017   0.730   9.879
11417WAT     H134493   3.050   0.656   9.938
11417WAT     H234494   2.978   0.692   9.796
11418WAT      O34495   0.136   0.131   4.899
11418WAT     H134496   0.183   0.199   4.956
11418WAT     H234497   0.069   0.081   4.954
11419WAT      O34498   8.734   9.669   0.460
11419WAT     H134499   8.652   9.675   0.517
11419WAT     H234500   8.814   9.664   0.519
11420WAT      O34501   5.655   1.974   3.684
11420WAT     H134502   5.555   1.969   3.679
11420WAT     H234503   5.692   1.970   3.591
11421WAT      O34504   8.464   7.478   4.386
11421WAT     H134505   8.370   7.479   4.419
11421WAT     H234506   8.519   7.542   4.440
11422WAT      O34507   5.073   9.725   3.530
11422WAT     H134508   5.067   9.818   3.568
11422WAT     H234509   5.078   9.730   3.430
11423WAT      O34510   6.959   7.274   5.624
11423WAT     H134511   6.971   7.369   5.595
11423WAT     H234512   7.048   7.235   5.648
11424WAT      O34513   6.374   2.106   2.331
11424WAT     H134514   6.302   2.054   2.284
11424WAT     H234515   6.458   2.101   2.277
11425WAT      O34516   6.872   2.455   9.032
11425WAT     H134517   6.966   2.470   9.063
11425WAT     H234518   6.836   2.372   9.074
11426WAT      O34519   1.139   6.548   5.353
11426WAT     H134520   1.132   6.643   5.321
11426WAT     H234521   1.057   6.523   5.404
11427WAT      O34522   2.846   9.620   2.963
11427WAT     H134523   2.791   9.613   2.880
11427WAT     H234524   2.905   9.700   2.958
11428WAT      O34525   7.503   2.877   3.287
11428WAT     H134526   7.465   2.787   3.270
11428WAT     H234527   7.552   2.878   3.375
11429WAT      O34528   2.448   4.302   0.556
11429WAT     H134529   2.405   4.225   0.603
11429WAT     H234530   2.378   4.353   0.506
11430WAT      O34531   8.160   6.037   3.877
11430WAT     H134532   8.173   6.135   3.862
11430WAT     H234533   8.063   6.017   3.886
11431WAT      O34534   1.339   9.090   6.189
11431WAT     H134535   1.384   9.001   6.185
11431WAT     H234536   1.240   9.077   6.192
11432WAT      O34537   8.155   3.892   0.783
11432WAT     H134538   8.095   3.890   0.863
11432WAT     H234539   8.210   3.808   0.780
11433WAT      O34540   8.687   1.052   6.828
11433WAT     H134541   8.605   1.046   6.886
11433WAT     H234542   8.766   1.072   6.885
11434WAT      O34543   7.610   2.556   8.072
11434WAT     H134544   7.707   2.576   8.081
11434WAT     H234545   7.559   2.640   8.054
11435WAT      O34546   7.503   0.582   0.725
11435WAT     H134547   7.449   0.500   0.704
11435WAT     H234548   7.452   0.664   0.698
11436WAT      O34549   7.475   5.929   1.220
11436WAT     H134550   7.516   5.965   1.136
11436WAT     H234551   7.410   5.857   1.197
11437WAT      O34552   7.497   3.147   2.043
11437WAT     H134553   7.533   3.058   2.016
11437WAT     H234554   7.430   3.178   1.975
11438WAT      O34555   1.821   2.463   6.474
11438WAT     H134556   1.772   2.408   6.407
11438WAT     H234557   1.844   2.552   6.433
11439WAT      O34558   8.964   7.695   4.044
11439WAT     H134559   9.046   7.645   4.071
11439WAT     H234560   8.975   7.792   4.068
11440WAT      O34561   5.188   5.139   6.255
11440WAT     H134562   5.163   5.219   6.311
11440WAT     H234563   5.264   5.162   6.195
11441WAT      O34564   2.111   7.545   9.641
11441WAT     H134565   2.023   7.592   9.632
11441WAT     H234566   2.096   7.446   9.644
11442WAT      O34567   5.518   1.858   6.522
11442WAT     H134568   5.473   1.908   6.447
11442WAT     H234569   5.503   1.907   6.608
11443WAT      O34570   7.126   3.686   1.343
11443WAT     H134571   7.106   3.716   1.436
11443WAT     H234572   7.056   3.723   1.281
11444WAT      O34573   9.750   4.194   0.251
11444WAT     H134574   9.710   4.164   0.164
11444WAT     H234575   9.849   4.207   0.239
11445WAT      O34576   8.649   1.710   3.046
11445WAT     H134577   8.639   1.618   3.085
11445WAT     H234578   8.646   1.778   3.120
11446WAT      O34579   3.399   7.645   5.488
11446WAT     H134580   3.316   7.620   5.539
11446WAT     H234581   3.441   7.725   5.530
11447WAT      O34582   8.608   8.670   3.084
11447WAT     H134583   8.665   8.736   3.132
11447WAT     H234584   8.638   8.663   2.989
11448WAT      O34585   0.788   6.789   2.443
11448WAT     H134586   0.740   6.724   2.500
11448WAT     H234587   0.740   6.877   2.444
11449WAT      O34588   1.953   5.919   3.044
11449WAT     H134589   1.880   5.874   2.992
11449WAT     H234590   2.014   5.967   2.981
11450WAT      O34591   7.842   7.733   9.729
11450WAT     H134592   7.838   7.637   9.703
11450WAT     H234593   7.913   7.779   9.676
11451WAT      O34594   3.938   3.150   4.423
11451WAT     H134595   3.860   3.195   4.467
11451WAT     H234596   3.975   3.080   4.484
11452WAT      O34597   7.728   5.697   0.986
11452WAT     H134598   7.826   5.701   1.001
11452WAT     H234599   7.694   5.606   1.008
11453WAT      O34600   8.087   4.830   3.149
11453WAT     H134601   7.995   4.844   3.184
11453WAT     H234602   8.114   4.735   3.162
11454WAT      O34603   5.038   0.808   7.499
11454WAT     H134604   5.011   0.724   7.452
11454WAT     H234605   4.957   0.856   7.532
11455WAT      O34606   2.770   1.647   8.937
11455WAT     H134607   2.758   1.607   9.028
11455WAT     H234608   2.776   1.747   8.946
11456WAT      O34609   4.090   5.175   2.676
11456WAT     H134610   4.102   5.240   2.752
11456WAT     H234611   4.037   5.218   2.604
11457WAT      O34612   2.740   2.630   3.936
11457WAT     H134613   2.784   2.548   3.900
11457WAT     H234614   2.746   2.630   4.036
11458WAT      O34615   9.760   7.095   0.802
11458WAT     H134616   9.725   7.174   0.752
11458WAT     H234617   9.729   7.011   0.758
11459WAT      O34618   9.839   2.670   9.662
11459WAT     H134619   9.863   2.661   9.759
11459WAT     H234620   9.757   2.616   9.642
11460WAT      O34621   8.832   2.795   2.542
11460WAT     H134622   8.892   2.743   2.481
11460WAT     H234623   8.837   2.757   2.635
11461WAT      O34624   9.271   8.613   0.531
11461WAT     H134625   9.208   8.691   0.525
11461WAT     H234626   9.271   8.564   0.444
11462WAT      O34627   1.903   8.026   2.571
11462WAT     H134628   1.835   7.998   2.503
11462WAT     H234629   1.885   8.120   2.600
11463WAT      O34630   2.690   5.678   8.943
11463WAT     H134631   2.773   5.727   8.969
11463WAT     H234632   2.699   5.645   8.849
11464WAT      O34633   0.755   5.422   4.019
11464WAT     H134634   0.727   5.354   4.086
11464WAT     H234635   0.749   5.513   4.059
11465WAT      O34636   9.625   0.862   4.096
11465WAT     H134637   9.628   0.797   4.172
11465WAT     H234638   9.607   0.813   4.011
11466WAT      O34639   5.216   7.614   4.016
11466WAT     H134640   5.245   7.519   4.023
11466WAT     H234641   5.117   7.620   4.026
11467WAT      O34642   1.626   1.186   2.985
11467WAT     H134643   1.538   1.234   2.987
11467WAT     H234644   1.651   1.160   3.079
11468WAT      O34645   8.351   3.804   3.580
11468WAT     H134646   8.394   3.751   3.507
11468WAT     H234647   8.408   3.884   3.602
11469WAT      O34648   5.769   0.767   2.543
11469WAT     H134649   5.800   0.693   2.484
11469WAT     H234650   5.673   0.786   2.525
11470WAT      O34651   6.364   2.706   5.091
11470WAT     H134652   6.323   2.616   5.083
11470WAT     H234653   6.428   2.707   5.168
11471WAT      O34654   0.695   8.139   0.524
11471WAT     H134655   0.634   8.100   0.455
11471WAT     H234656   0.670   8.235   0.540
11472WAT      O34657   7.935   8.779   0.632
11472WAT     H134658   8.002   8.835   0.680
11472WAT     H234659   7.851   8.831   0.620
11473WAT      O34660   4.686   4.237   0.362
11473WAT     H134661   4.756   4.225   0.432
11473WAT     H234662   4.635   4.152   0.351
11474WAT      O34663   6.951   7.995   4.445
11474WAT     H134664   6.935   8.056   4.523
11474WAT     H234665   7.047   8.000   4.417
11475WAT      O34666   7.304   2.341   5.469
11475WAT     H134667   7.317   2.382   5.559
11475WAT     H234668   7.212   2.363   5.435
11476WAT      O34669   8.161   1.021   9.679
11476WAT     H134670   8.098   0.969   9.736
11476WAT     H234671   8.223   1.074   9.738
11477WAT      O34672   5.660   6.604   7.825
11477WAT     H134673   5.612   6.591   7.912
11477WAT     H234674   5.713   6.688   7.828
11478WAT      O34675   2.583   9.661   5.829
11478WAT     H134676   2.488   9.665   5.797
11478WAT     H234677   2.588   9.689   5.925
11479WAT      O34678   6.490   9.042   8.876
11479WAT     H134679   6.571   8.991   8.905
11479WAT     H234680   6.496   9.136   8.908
11480WAT      O34681   1.655   8.798   8.527
11480WAT     H134682   1.609   8.836   8.447
11480WAT     H234683   1.699   8.712   8.503
11481WAT      O34684   1.179   6.151   8.020
11481WAT     H134685   1.089   6.138   8.060
11481WAT     H234686   1.180   6.234   7.964
11482WAT      O34687   9.237   1.501   9.874
11482WAT     H134688   9.246   1.452   9.787
11482WAT     H234689   9.324   1.543   9.898
11483WAT      O34690   2.074   8.762   1.831
11483WAT     H134691   2.138   8.693   1.799
11483WAT     H234692   2.068   8.836   1.764
11484WAT      O34693   0.272   7.344   7.384
11484WAT     H134694   0.205   7.392   7.327
11484WAT     H234695   0.226   7.272   7.435
11485WAT      O34696   7.879   0.665   6.264
11485WAT     H134697   7.843   0.580   6.302
11485WAT     H234698   7.917   0.721   6.338
11486WAT      O34699   2.959   4.743   0.416
11486WAT     H134700   2.975   4.823   0.358
11486WAT     H234701   2.956   4.661   0.359
11487WAT      O34702   8.766   1.594   0.308
11487WAT     H134703   8.852   1.573   0.261
11487WAT     H234704   8.718   1.666   0.258
11488WAT      O34705   6.942   9.333   1.919
11488WAT     H134706   6.883   9.410   1.942
11488WAT     H234707   6.904   9.249   1.957
11489WAT      O34708   7.665   0.616   0.397
11489WAT     H134709   7.605   0.586   0.471
11489WAT     H234710   7.722   0.691   0.430
11490WAT      O34711   0.745   5.068   5.727
11490WAT     H134712   0.825   5.099   5.676
11490WAT     H234713   0.677   5.140   5.729
11491WAT      O34714   3.668   6.123   4.089
11491WAT     H134715   3.720   6.070   4.022
11491WAT     H234716   3.578   6.145   4.051
11492WAT      O34717   0.988   5.712   6.718
11492WAT     H134718   0.912   5.757   6.765
11492WAT     H234719   1.058   5.780   6.696
11493WAT      O34720   7.956   6.779   6.195
11493WAT     H134721   8.018   6.723   6.249
11493WAT     H234722   7.979   6.771   6.098
11494WAT      O34723   1.981   1.012   4.758
11494WAT     H134724   1.946   0.933   4.708
11494WAT     H234725   1.921   1.090   4.742
11495WAT      O34726   5.480   0.933   2.307
11495WAT     H134727   5.408   1.002   2.311
11495WAT     H234728   5.495   0.896   2.398
11496WAT      O34729   7.010   5.652   3.947
11496WAT     H134730   7.084   5.705   3.989
11496WAT     H234731   6.928   5.709   3.941
11497WAT      O34732   5.532   8.916   8.659
11497WAT     H134733   5.605   8.939   8.724
11497WAT     H234734   5.492   8.828   8.683
11498WAT      O34735   9.011   4.861   1.209
11498WAT     H134736   9.100   4.850   1.254
11498WAT     H234737   8.995   4.784   1.148
11499WAT      O34738   9.388   7.743   1.296
11499WAT     H134739   9.295   7.710   1.279
11499WAT     H234740   9.419   7.710   1.385
11500WAT      O34741   5.012   6.018   7.307
11500WAT     H134742   5.104   6.053   7.287
11500WAT     H234743   4.969   6.076   7.376
11501WAT      O34744   9.881   5.030   9.153
11501WAT     H134745   9.827   5.079   9.085
11501WAT     H234746   9.854   5.060   9.245
11502WAT      O34747   4.964   2.195   0.086
11502WAT     H134748   5.045   2.187   0.028
11502WAT     H234749   4.882   2.194   0.029
11503WAT      O34750   7.054   3.988   6.622
11503WAT     H134751   6.999   3.993   6.539
11503WAT     H234752   7.124   4.059   6.621
11504WAT      O34753   1.322   1.016   4.873
11504WAT     H134754   1.279   0.984   4.957
11504WAT     H234755   1.255   1.018   4.799
11505WAT      O34756   1.013   5.836   2.314
11505WAT     H134757   0.962   5.914   2.349
11505WAT     H234758   0.963   5.796   2.236
11506WAT      O34759   5.867   1.561   7.506
11506WAT     H134760   5.893   1.466   7.493
11506WAT     H234761   5.856   1.580   7.604
11507WAT      O34762   2.696   7.752   2.166
11507WAT     H134763   2.640   7.791   2.238
11507WAT     H234764   2.758   7.822   2.130
11508WAT      O34765   3.415   5.635   2.703
11508WAT     H134766   3.366   5.707   2.653
11508WAT     H234767   3.421   5.554   2.646
11509WAT      O34768   8.909   9.432   8.266
11509WAT     H134769   8.877   9.526   8.282
11509WAT     H234770   8.863   9.370   8.329
11510WAT      O34771   4.618   6.272   8.932
11510WAT     H134772   4.608   6.327   9.015
11510WAT     H234773   4.632   6.176   8.956
11511WAT      O34774   3.425   6.203   1.225
11511WAT     H134775   3.478   6.206   1.309
11511WAT     H234776   3.327   6.205   1.246
11512WAT      O34777   4.075   6.739   5.249
11512WAT     H134778   4.143   6.700   5.311
11512WAT     H234779   4.120   6.795   5.180
11513WAT      O34780   0.779   2.811   4.584
11513WAT     H134781   0.854   2.745   4.583
11513WAT     H234782   0.719   2.790   4.661
11514WAT      O34783   2.803   7.196   2.931
11514WAT     H134784   2.793   7.291   2.901
11514WAT     H234785   2.714   7.151   2.925
11515WAT      O34786   9.720   5.277   9.783
11515WAT     H134787   9.659   5.337   9.835
11515WAT     H234788   9.704   5.182   9.808
11516WAT      O34789   7.646   0.204   6.820
11516WAT     H134790   7.709   0.273   6.784
11516WAT     H234791   7.687   0.160   6.900
11517WAT      O34792   0.647   3.022   9.501
11517WAT     H134793   0.710   3.088   9.461
11517WAT     H234794   0.696   2.961   9.564
11518WAT      O34795   6.870   8.304   6.363
11518WAT     H134796   6.871   8.286   6.461
11518WAT     H234797   6.776   8.321   6.333
11519WAT      O34798   7.969   4.848   7.193
11519WAT     H134799   7.891   4.910   7.199
11519WAT     H234800   7.969   4.802   7.104
11520WAT      O34801   9.088   7.657   3.276
11520WAT     H134802   9.119   7.745   3.240
11520WAT     H234803   9.041   7.671   3.363
11521WAT      O34804   0.095   4.285   2.136
11521WAT     H134805   0.068   4.380   2.128
11521WAT     H234806   0.033   4.237   2.198
11522WAT      O34807   3.504   5.418   2.001
11522WAT     H134808   3.415   5.400   1.959
11522WAT     H234809   3.519   5.516   2.008
11523WAT      O34810   8.861   2.350   4.098
11523WAT     H134811   8.810   2.368   4.182
11523WAT     H234812   8.871   2.436   4.047
11524WAT      O34813   8.809   6.047   0.503
11524WAT     H134814   8.879   6.065   0.572
11524WAT     H234815   8.842   6.076   0.413
11525WAT      O34816   0.309   6.541   9.606
11525WAT     H134817   0.289   6.540   9.704
11525WAT     H234818   0.225   6.525   9.555
11526WAT      O34819   4.307   3.644   7.955
11526WAT     H134820   4.407   3.639   7.952
11526WAT     H234821   4.278   3.668   8.047
11527WAT      O34822   3.903   7.073   5.808
11527WAT     H134823   3.845   7.154   5.803
11527WAT     H234824   3.993   7.099   5.843
11528WAT      O34825   6.963   6.880   7.830
11528WAT     H134826   6.981   6.787   7.863
11528WAT     H234827   7.002   6.945   7.895
11529WAT      O34828   4.859   3.481   5.097
11529WAT     H134829   4.948   3.513   5.129
11529WAT     H234830   4.872   3.419   5.020
11530WAT      O34831   4.956   7.970   6.623
11530WAT     H134832   5.009   8.043   6.580
11530WAT     H234833   5.017   7.908   6.671
11531WAT      O34834   9.431   3.362   7.587
11531WAT     H134835   9.506   3.429   7.583
11531WAT     H234836   9.371   3.374   7.508
11532WAT      O34837   1.598   2.585   2.759
11532WAT     H134838   1.602   2.683   2.779
11532WAT     H234839   1.503   2.558   2.746
11533WAT      O34840   8.661   5.265   0.044
11533WAT     H134841   8.711   5.330  -0.014
11533WAT     H234842   8.702   5.175   0.036
11534WAT      O34843   6.356   3.996   6.464
11534WAT     H134844   6.395   3.909   6.492
11534WAT     H234845   6.409   4.071   6.503
11535WAT      O34846   7.566   7.709   1.081
11535WAT     H134847   7.636   7.658   1.032
11535WAT     H234848   7.607   7.757   1.158
11536WAT      O34849   3.593   9.398   5.098
11536WAT     H134850   3.563   9.334   5.169
11536WAT     H234851   3.678   9.365   5.057
11537WAT      O34852   1.944   1.433   5.154
11537WAT     H134853   1.881   1.443   5.076
11537WAT     H234854   1.908   1.365   5.217
11538WAT      O34855   7.441   9.613   8.498
11538WAT     H134856   7.541   9.620   8.504
11538WAT     H234857   7.401   9.705   8.498
11539WAT      O34858   2.570   6.573   5.583
11539WAT     H134859   2.510   6.633   5.531
11539WAT     H234860   2.539   6.478   5.571
11540WAT      O34861   6.061   8.979   4.107
11540WAT     H134862   6.159   9.000   4.112
11540WAT     H234863   6.048   8.891   4.063
11541WAT      O34864   4.727   3.072   3.765
11541WAT     H134865   4.762   3.161   3.794
11541WAT     H234866   4.697   3.077   3.670
11542WAT      O34867   1.182   5.598   5.915
11542WAT     H134868   1.206   5.677   5.972
11542WAT     H234869   1.214   5.514   5.960
11543WAT      O34870   7.512   3.798   1.230
11543WAT     H134871   7.510   3.766   1.135
11543WAT     H234872   7.505   3.719   1.291
11544WAT      O34873   2.231   1.965   2.420
11544WAT     H134874   2.214   1.989   2.516
11544WAT     H234875   2.321   1.924   2.411
11545WAT      O34876   6.829   8.929   9.514
11545WAT     H134877   6.785   8.845   9.545
11545WAT     H234878   6.784   9.008   9.556
11546WAT      O34879   8.287   7.324   8.942
11546WAT     H134880   8.329   7.364   8.861
11546WAT     H234881   8.269   7.396   9.009
11547WAT      O34882   2.676   8.766   2.393
11547WAT     H134883   2.596   8.806   2.349
11547WAT     H234884   2.734   8.839   2.430
11548WAT      O34885   2.431   6.543   8.199
11548WAT     H134886   2.525   6.576   8.208
11548WAT     H234887   2.377   6.574   8.277
11549WAT      O34888   1.486   4.443   5.200
11549WAT     H134889   1.406   4.401   5.243
11549WAT     H234890   1.494   4.538   5.232
11550WAT      O34891   5.169   1.960   0.513
11550WAT     H134892   5.145   1.951   0.416
11550WAT     H234893   5.203   1.872   0.547
11551WAT      O34894   0.070   6.166   3.712
11551WAT     H134895   0.142   6.108   3.752
11551WAT     H234896   0.109   6.223   3.640
11552WAT      O34897   2.487   8.083   4.358
11552WAT     H134898   2.441   8.107   4.272
11552WAT     H234899   2.488   8.162   4.418
11553WAT      O34900   2.200   5.349   8.787
11553WAT     H134901   2.103   5.370   8.802
11553WAT     H234902   2.207   5.261   8.739
11554WAT      O34903   4.021   9.349   1.421
11554WAT     H134904   4.063   9.259   1.409
11554WAT     H234905   4.004   9.365   1.518
11555WAT      O34906   6.427   2.130   0.330
11555WAT     H134907   6.339   2.136   0.282
11555WAT     H234908   6.415   2.160   0.424
11556WAT      O34909   1.538   6.311   0.997
11556WAT     H134910   1.520   6.269   0.908
11556WAT     H234911   1.629   6.352   0.998
11557WAT      O34912   6.909   1.322   6.833
11557WAT     H134913   6.887   1.301   6.928
11557WAT     H234914   6.832   1.294   6.775
11558WAT      O34915   3.131   7.349   9.411
11558WAT     H134916   3.052   7.294   9.438
11558WAT     H234917   3.215   7.302   9.437
11559WAT      O34918   3.618   3.291   9.866
11559WAT     H134919   3.584   3.351   9.939
11559WAT     H234920   3.566   3.308   9.782
11560WAT      O34921   2.140   5.132   2.618
11560WAT     H134922   2.230   5.171   2.640
11560WAT     H234923   2.088   5.119   2.702
11561WAT      O34924   7.660   5.969   4.188
11561WAT     H134925   7.718   6.001   4.113
11561WAT     H234926   7.626   6.048   4.239
11562WAT      O34927   9.887   3.034   6.716
11562WAT     H134928   9.830   2.954   6.732
11562WAT     H234929   9.849   3.112   6.765
11563WAT      O34930   4.999   3.694   1.879
11563WAT     H134931   5.033   3.694   1.785
11563WAT     H234932   5.069   3.655   1.939
11564WAT      O34933   7.537   7.882   6.931
11564WAT     H134934   7.591   7.800   6.914
11564WAT     H234935   7.587   7.943   6.993
11565WAT      O34936   5.438   0.135   4.489
11565WAT     H134937   5.387   0.101   4.410
11565WAT     H234938   5.387   0.114   4.573
11566WAT      O34939   5.440   1.594   2.476
11566WAT     H134940   5.344   1.592   2.505
11566WAT     H234941   5.468   1.689   2.460
11567WAT      O34942   3.948   1.490   1.968
11567WAT     H134943   3.866   1.522   2.016
11567WAT     H234944   4.015   1.456   2.034
11568WAT      O34945   6.896   6.523   6.782
11568WAT     H134946   6.843   6.487   6.858
11568WAT     H234947   6.834   6.559   6.712
11569WAT      O34948   2.892   1.404   0.015
11569WAT     H134949   2.899   1.434   0.110
11569WAT     H234950   2.951   1.461  -0.042
11570WAT      O34951   9.519   9.604   3.973
11570WAT     H134952   9.456   9.641   4.041
11570WAT     H234953   9.470   9.587   3.887
11571WAT      O34954   4.915   1.414   3.229
11571WAT     H134955   4.992   1.477   3.215
11571WAT     H234956   4.845   1.431   3.160
11572WAT      O34957   5.624   0.177   5.548
11572WAT     H134958   5.666   0.267   5.563
11572WAT     H234959   5.676   0.127   5.479
11573WAT      O34960   5.391   6.096   2.092
11573WAT     H134961   5.373   6.107   1.994
11573WAT     H234962   5.389   6.186   2.137
11574WAT      O34963   7.871   0.452   4.082
11574WAT     H134964   7.912   0.542   4.068
11574WAT     H234965   7.938   0.391   4.125
11575WAT      O34966   9.134   5.876   1.992
11575WAT     H134967   9.063   5.849   2.056
11575WAT     H234968   9.224   5.855   2.029
11576WAT      O34969   0.232   4.796   5.523
11576WAT     H134970   0.315   4.832   5.481
11576WAT     H234971   0.156   4.860   5.508
11577WAT      O34972   2.656   7.683   7.126
11577WAT     H134973   2.717   7.675   7.205
11577WAT     H234974   2.569   7.638   7.146
11578WAT      O34975   1.827   2.359   5.435
11578WAT     H134976   1.821   2.438   5.497
11578WAT     H234977   1.735   2.325   5.416
11579WAT      O34978   4.294   3.225   9.041
11579WAT     H134979   4.328   3.201   8.950
11579WAT     H234980   4.253   3.145   9.084
11580WAT      O34981   9.701   3.893   1.467
11580WAT     H134982   9.682   3.961   1.397
11580WAT     H234983   9.788   3.913   1.511
11581WAT      O34984   5.518   4.532   1.985
11581WAT     H134985   5.516   4.437   2.018
11581WAT     H234986   5.563   4.590   2.053
11582WAT      O34987   3.825   8.577   6.906
11582WAT     H134988   3.744   8.538   6.950
11582WAT     H234989   3.823   8.555   6.808
11583WAT      O34990   3.428   1.684   9.730
11583WAT     H134991   3.393   1.745   9.801
11583WAT     H234992   3.458   1.738   9.651
11584WAT      O34993   6.495   6.356   5.602
11584WAT     H134994   6.473   6.259   5.614
11584WAT     H234995   6.587   6.374   5.636
11585WAT      O34996   9.742   4.729   5.479
11585WAT     H134997   9.806   4.653   5.480
11585WAT     H234998   9.671   4.713   5.410
11586WAT      O34999   6.520   0.575   8.069
11586WAT     H135000   6.539   0.608   8.162
11586WAT     H235001   6.425   0.545   8.064
11587WAT      O35002   3.314   4.765   8.392
11587WAT     H135003   3.249   4.838   8.374
11587WAT     H235004   3.315   4.743   8.489
11588WAT      O35005   8.026   5.613   5.599
11588WAT     H135006   8.104   5.667   5.568
11588WAT     H235007   8.000   5.641   5.691
11589WAT      O35008   0.110   5.376   8.957
11589WAT     H135009   0.185   5.316   8.983
11589WAT     H235010   0.030   5.320   8.933
11590WAT      O35011   7.662   6.307   3.853
11590WAT     H135012   7.571   6.329   3.886
11590WAT     H235013   7.712   6.391   3.832
11591WAT      O35014   5.985   0.518   3.537
11591WAT     H135015   5.988   0.605   3.587
11591WAT     H235016   5.894   0.477   3.548
11592WAT      O35017   6.970   2.090   5.277
11592WAT     H135018   7.020   2.167   5.237
11592WAT     H235019   6.894   2.066   5.217
11593WAT      O35020   5.366   0.537   6.285
11593WAT     H135021   5.388   0.442   6.266
11593WAT     H235022   5.432   0.597   6.240
11594WAT      O35023   7.173   0.949   1.259
11594WAT     H135024   7.169   0.928   1.357
11594WAT     H235025   7.254   0.906   1.220
11595WAT      O35026   6.452   3.811   9.406
11595WAT     H135027   6.366   3.850   9.441
11595WAT     H235028   6.435   3.719   9.371
11596WAT      O35029   3.252   8.484   3.668
11596WAT     H135030   3.286   8.394   3.643
11596WAT     H235031   3.247   8.492   3.768
11597WAT      O35032   1.882   9.634   4.267
11597WAT     H135033   1.839   9.643   4.357
11597WAT     H235034   1.843   9.555   4.219
11598WAT      O35035   5.536   1.759   6.028
11598WAT     H135036   5.460   1.733   6.087
11598WAT     H235037   5.621   1.722   6.066
11599WAT      O35038   7.971   2.760   5.188
11599WAT     H135039   8.007   2.741   5.097
11599WAT     H235040   7.917   2.844   5.187
11600WAT      O35041   6.367   9.227   0.585
11600WAT     H135042   6.369   9.127   0.581
11600WAT     H235043   6.440   9.260   0.644
11601WAT      O35044   2.986   6.285   0.828
11601WAT     H135045   2.958   6.216   0.761
11601WAT     H235046   3.054   6.246   0.890
11602WAT      O35047   1.224   4.417   7.104
11602WAT     H135048   1.178   4.330   7.085
11602WAT     H235049   1.322   4.402   7.118
11603WAT      O35050   5.387   6.147   0.161
11603WAT     H135051   5.300   6.177   0.200
11603WAT     H235052   5.445   6.227   0.145
11604WAT      O35053   0.672   2.544   7.266
11604WAT     H135054   0.625   2.549   7.179
11604WAT     H235055   0.615   2.495   7.332
11605WAT      O35056   9.882   7.366   7.358
11605WAT     H135057   9.908   7.271   7.374
11605WAT     H235058   9.787   7.370   7.327
11606WAT      O35059   3.889   7.557   7.511
11606WAT     H135060   3.946   7.602   7.442
11606WAT     H235061   3.907   7.598   7.600
11607WAT      O35062   8.675   1.880   1.066
11607WAT     H135063   8.660   1.822   0.986
11607WAT     H235064   8.627   1.842   1.145
11608WAT      O35065   1.707   0.211   8.323
11608WAT     H135066   1.786   0.237   8.268
11608WAT     H235067   1.630   0.272   8.301
11609WAT      O35068   4.760   4.112   5.386
11609WAT     H135069   4.785   4.202   5.421
11609WAT     H235070   4.837   4.049   5.394
11610WAT      O35071   3.198   5.917   6.432
11610WAT     H135072   3.290   5.934   6.396
11610WAT     H235073   3.134   5.979   6.389
11611WAT      O35074   3.708   0.686   4.459
11611WAT     H135075   3.761   0.692   4.543
11611WAT     H235076   3.624   0.635   4.476
11612WAT      O35077   3.514   5.467   2.478
11612WAT     H135078   3.548   5.383   2.436
11612WAT     H235079   3.576   5.542   2.457
11613WAT      O35080   9.553   9.212   1.539
11613WAT     H135081   9.555   9.201   1.638
11613WAT     H235082   9.625   9.155   1.498
11614WAT      O35083   0.269   2.253   7.745
11614WAT     H135084   0.237   2.342   7.715
11614WAT     H235085   0.356   2.232   7.702
11615WAT      O35086   0.318   9.392   4.308
11615WAT     H135087   0.253   9.329   4.350
11615WAT     H235088   0.313   9.383   4.208
11616WAT      O35089   8.886   5.598   3.991
11616WAT     H135090   8.854   5.600   3.897
11616WAT     H235091   8.820   5.646   4.049
11617WAT      O35092   1.719   3.766   6.725
11617WAT     H135093   1.660   3.840   6.692
11617WAT     H235094   1.766   3.795   6.808
11618WAT      O35095   8.408   6.229   8.632
11618WAT     H135096   8.361   6.213   8.545
11618WAT     H235097   8.341   6.222   8.707
11619WAT      O35098   0.687   4.143   3.962
11619WAT     H135099   0.769   4.196   3.938
11619WAT     H235100   0.703   4.096   4.049
11620WAT      O35101   3.356   5.048   1.980
11620WAT     H135102   3.341   5.089   2.070
11620WAT     H235103   3.347   4.949   1.987
11621WAT      O35104   3.310   3.211   1.144
11621WAT     H135105   3.234   3.179   1.088
11621WAT     H235106   3.381   3.141   1.147
11622WAT      O35107   7.116   5.833   8.713
11622WAT     H135108   7.159   5.779   8.785
11622WAT     H235109   7.086   5.921   8.751
11623WAT      O35110   8.207   8.239   8.561
11623WAT     H135111   8.166   8.264   8.473
11623WAT     H235112   8.158   8.286   8.634
11624WAT      O35113   8.914   2.564   9.769
11624WAT     H135114   8.943   2.614   9.850
11624WAT     H235115   8.857   2.623   9.711
11625WAT      O35116   9.134   1.406   4.317
11625WAT     H135117   9.168   1.498   4.337
11625WAT     H235118   9.183   1.369   4.238
11626WAT      O35119   8.138   6.922   0.051
11626WAT     H135120   8.232   6.932   0.085
11626WAT     H235121   8.089   7.008   0.063
11627WAT      O35122   1.566   0.650   0.918
11627WAT     H135123   1.526   0.609   1.000
11627WAT     H235124   1.531   0.743   0.907
11628WAT      O35125   3.572   9.746   6.401
11628WAT     H135126   3.480   9.709   6.409
11628WAT     H235127   3.611   9.722   6.312
11629WAT      O35128   9.050   4.318   7.850
11629WAT     H135129   9.147   4.320   7.876
11629WAT     H235130   9.028   4.399   7.796
11630WAT      O35131   5.504   0.042   8.347
11630WAT     H135132   5.523  -0.052   8.375
11630WAT     H235133   5.579   0.102   8.377
11631WAT      O35134   8.304   0.517   6.942
11631WAT     H135135   8.354   0.515   6.855
11631WAT     H235136   8.209   0.493   6.925
11632WAT      O35137   4.436   0.695   1.493
11632WAT     H135138   4.463   0.635   1.568
11632WAT     H235139   4.350   0.740   1.516
11633WAT      O35140   2.328   2.446   5.046
11633WAT     H135141   2.281   2.432   4.959
11633WAT     H235142   2.426   2.460   5.029
11634WAT      O35143   4.463   1.025   4.067
11634WAT     H135144   4.453   0.944   4.124
11634WAT     H235145   4.529   1.005   3.993
11635WAT      O35146   0.686   0.981   2.237
11635WAT     H135147   0.734   0.956   2.322
11635WAT     H235148   0.695   0.906   2.171
11636WAT      O35149   4.476   9.680   0.298
11636WAT     H135150   4.515   9.704   0.387
11636WAT     H235151   4.488   9.757   0.235
11637WAT      O35152   4.341   4.382   0.086
11637WAT     H135153   4.316   4.317   0.015
11637WAT     H235154   4.437   4.407   0.078
11638WAT      O35155   7.035   3.214   2.852
11638WAT     H135156   7.087   3.251   2.929
11638WAT     H235157   7.040   3.277   2.774
11639WAT      O35158   3.229   5.527   4.772
11639WAT     H135159   3.231   5.595   4.699
11639WAT     H235160   3.303   5.461   4.758
11640WAT      O35161   0.022   2.697   0.510
11640WAT     H135162   0.084   2.713   0.587
11640WAT     H235163   0.035   2.604   0.475
11641WAT      O35164   8.801   5.371   6.630
11641WAT     H135165   8.834   5.327   6.547
11641WAT     H235166   8.798   5.470   6.617
11642WAT      O35167   4.130   3.997   7.278
11642WAT     H135168   4.174   3.907   7.271
11642WAT     H235169   4.178   4.062   7.219
11643WAT      O35170   9.296   5.158   6.208
11643WAT     H135171   9.384   5.154   6.256
11643WAT     H235172   9.228   5.201   6.267
11644WAT      O35173   2.522   2.109   9.717
11644WAT     H135174   2.544   2.167   9.795
11644WAT     H235175   2.552   2.015   9.736
11645WAT      O35176   5.017   3.694   3.490
11645WAT     H135177   4.993   3.734   3.402
11645WAT     H235178   4.936   3.686   3.547
11646WAT      O35179   0.978   9.325   0.340
11646WAT     H135180   0.929   9.398   0.292
11646WAT     H235181   1.057   9.363   0.387
11647WAT      O35182   5.454   2.279   5.160
11647WAT     H135183   5.406   2.270   5.073
11647WAT     H235184   5.400   2.236   5.232
11648WAT      O35185   4.217   6.881   1.169
11648WAT     H135186   4.181   6.854   1.080
11648WAT     H235187   4.241   6.799   1.222
11649WAT      O35188   4.968   4.241   1.679
11649WAT     H135189   4.986   4.143   1.671
11649WAT     H235190   5.035   4.283   1.740
11650WAT      O35191   0.964   7.417   8.566
11650WAT     H135192   1.003   7.328   8.590
11650WAT     H235193   1.004   7.487   8.625
11651WAT      O35194   3.872   6.338   7.981
11651WAT     H135195   3.917   6.374   7.899
11651WAT     H235196   3.786   6.387   7.996
11652WAT      O35197   5.787   6.178   4.555
11652WAT     H135198   5.842   6.204   4.475
11652WAT     H235199   5.691   6.196   4.537
11653WAT      O35200   4.748   3.799   1.410
11653WAT     H135201   4.786   3.717   1.453
11653WAT     H235202   4.738   3.871   1.479
11654WAT      O35203   7.806   9.353   9.490
11654WAT     H135204   7.852   9.369   9.403
11654WAT     H235205   7.785   9.441   9.533
11655WAT      O35206   5.863   9.221   0.558
11655WAT     H135207   5.932   9.283   0.596
11655WAT     H235208   5.772   9.256   0.580
11656WAT      O35209   2.889   2.990   1.330
11656WAT     H135210   2.982   2.997   1.292
11656WAT     H235211   2.842   2.913   1.288
11657WAT      O35212   2.052   4.801   0.129
11657WAT     H135213   1.973   4.852   0.096
11657WAT     H235214   2.047   4.707   0.095
11658WAT      O35215   6.102   6.302   5.339
11658WAT     H135216   6.031   6.233   5.332
11658WAT     H235217   6.069   6.389   5.301
11659WAT      O35218   3.871   9.436   6.928
11659WAT     H135219   3.926   9.509   6.968
11659WAT     H235220   3.930   9.368   6.885
11660WAT      O35221   9.579   9.807   7.749
11660WAT     H135222   9.602   9.861   7.668
11660WAT     H235223   9.480   9.808   7.763
11661WAT      O35224   0.348   7.527   4.405
11661WAT     H135225   0.258   7.537   4.449
11661WAT     H235226   0.344   7.452   4.339
11662WAT      O35227   0.957   6.065   3.147
11662WAT     H135228   1.032   6.093   3.087
11662WAT     H235229   0.877   6.044   3.092
11663WAT      O35230   7.674   4.429   5.794
11663WAT     H135231   7.634   4.365   5.729
11663WAT     H235232   7.773   4.418   5.796
11664WAT      O35233   8.264   6.071   3.466
11664WAT     H135234   8.209   6.129   3.406
11664WAT     H235235   8.210   5.992   3.495
11665WAT      O35236   1.062   0.128   1.038
11665WAT     H135237   1.116   0.115   0.954
11665WAT     H235238   1.055   0.041   1.086
11666WAT      O35239   0.643   7.579   7.149
11666WAT     H135240   0.648   7.484   7.118
11666WAT     H235241   0.733   7.622   7.138
11667WAT      O35242   7.516   7.293   1.338
11667WAT     H135243   7.441   7.273   1.275
11667WAT     H235244   7.480   7.305   1.431
11668WAT      O35245   4.298   0.605   6.510
11668WAT     H135246   4.270   0.527   6.567
11668WAT     H235247   4.397   0.614   6.512
11669WAT      O35248   0.912   2.396   5.295
11669WAT     H135249   0.918   2.396   5.395
11669WAT     H235250   0.935   2.488   5.262
11670WAT      O35251   3.674   1.999   6.832
11670WAT     H135252   3.739   2.005   6.908
11670WAT     H235253   3.684   1.910   6.787
11671WAT      O35254   8.422   2.090   7.752
11671WAT     H135255   8.516   2.078   7.782
11671WAT     H235256   8.377   2.158   7.809
11672WAT      O35257   1.885   6.878   4.076
11672WAT     H135258   1.838   6.949   4.022
11672WAT     H235259   1.932   6.815   4.014
11673WAT      O35260   7.344   8.760   8.047
11673WAT     H135261   7.332   8.792   8.141
11673WAT     H235262   7.358   8.661   8.046
11674WAT      O35263   9.213   6.877   9.441
11674WAT     H135264   9.159   6.794   9.457
11674WAT     H235265   9.235   6.920   9.528
11675WAT      O35266   0.394   4.947   6.419
11675WAT     H135267   0.329   5.023   6.427
11675WAT     H235268   0.387   4.889   6.500
11676WAT      O35269   3.911   9.222   2.720
11676WAT     H135270   3.920   9.122   2.714
11676WAT     H235271   3.846   9.253   2.652
11677WAT      O35272   3.249   3.242   6.349
11677WAT     H135273   3.169   3.198   6.309
11677WAT     H235274   3.287   3.307   6.284
11678WAT      O35275   3.280   8.533   0.512
11678WAT     H135276   3.276   8.434   0.503
11678WAT     H235277   3.363   8.568   0.470
11679WAT      O35278   2.461   1.186   2.113
11679WAT     H135279   2.413   1.157   2.196
11679WAT     H235280   2.559   1.175   2.126
11680WAT      O35281   6.180   0.581   6.814
11680WAT     H135282   6.116   0.505   6.828
11680WAT     H235283   6.132   0.668   6.824
11681WAT      O35284   2.487   9.551   9.029
11681WAT     H135285   2.507   9.496   9.110
11681WAT     H235286   2.452   9.492   8.957
11682WAT      O35287   0.098   0.648   7.068
11682WAT     H135288   0.051   0.675   7.152
11682WAT     H235289   0.100   0.725   7.004
11683WAT      O35290   0.219   8.740   4.596
11683WAT     H135291   0.219   8.755   4.497
11683WAT     H235292   0.125   8.743   4.630
11684WAT      O35293   5.151   3.871   7.740
11684WAT     H135294   5.225   3.868   7.674
11684WAT     H235295   5.069   3.830   7.701
11685WAT      O35296   7.114   6.355   6.770
11685WAT     H135297   7.117   6.313   6.679
11685WAT     H235298   7.037   6.418   6.775
11686WAT      O35299   4.088   8.862   6.877
11686WAT     H135300   4.171   8.869   6.821
11686WAT     H235301   4.095   8.783   6.937
11687WAT      O35302   0.541   3.641   3.280
11687WAT     H135303   0.459   3.698   3.284
11687WAT     H235304   0.539   3.586   3.197
11688WAT      O35305   0.707   1.648   8.871
11688WAT     H135306   0.806   1.642   8.876
11688WAT     H235307   0.671   1.666   8.963
11689WAT      O35308   4.305   1.229   1.678
11689WAT     H135309   4.379   1.184   1.629
11689WAT     H235310   4.272   1.307   1.624
11690WAT      O35311   6.238   2.837   1.334
11690WAT     H135312   6.295   2.761   1.367
11690WAT     H235313   6.270   2.923   1.374
11691WAT      O35314   2.203   0.536   8.992
11691WAT     H135315   2.111   0.533   9.031
11691WAT     H235316   2.233   0.631   8.983
11692WAT      O35317   6.151   7.225   8.484
11692WAT     H135318   6.082   7.295   8.503
11692WAT     H235319   6.130   7.143   8.536
11693WAT      O35320   5.311   7.393   1.618
11693WAT     H135321   5.392   7.342   1.649
11693WAT     H235322   5.337   7.454   1.544
11694WAT      O35323   8.215   3.172   9.615
11694WAT     H135324   8.175   3.114   9.685
11694WAT     H235325   8.210   3.126   9.526
11695WAT      O35326   6.540   7.590   2.577
11695WAT     H135327   6.450   7.628   2.600
11695WAT     H235328   6.610   7.634   2.632
11696WAT      O35329   8.633   8.596   9.312
11696WAT     H135330   8.681   8.509   9.312
11696WAT     H235331   8.684   8.663   9.259
11697WAT      O35332   6.414   2.570   2.621
11697WAT     H135333   6.482   2.612   2.561
11697WAT     H235334   6.327   2.618   2.612
11698WAT      O35335   0.588   9.668   1.615
11698WAT     H135336   0.534   9.695   1.535
11698WAT     H235337   0.657   9.601   1.586
11699WAT      O35338   3.872   3.436   7.074
11699WAT     H135339   3.917   3.513   7.119
11699WAT     H235340   3.912   3.421   6.984
11700WAT      O35341   8.127   4.689   1.268
11700WAT     H135342   8.084   4.779   1.269
11700WAT     H235343   8.205   4.688   1.331
11701WAT      O35344   4.555   4.797   4.990
11701WAT     H135345   4.476   4.739   4.971
11701WAT     H235346   4.585   4.842   4.906
11702WAT      O35347   7.780   4.282   4.356
11702WAT     H135348   7.692   4.240   4.381
11702WAT     H235349   7.764   4.372   4.316
11703WAT      O35350   4.203   4.531   0.294
11703WAT     H135351   4.144   4.598   0.249
11703WAT     H235352   4.216   4.452   0.235
11704WAT      O35353   2.469   9.734   2.372
11704WAT     H135354   2.534   9.666   2.340
11704WAT     H235355   2.499   9.772   2.460
11705WAT      O35356   7.342   5.534   4.978
11705WAT     H135357   7.253   5.573   5.001
11705WAT     H235358   7.408   5.558   5.049
11706WAT      O35359   3.818   2.977   6.063
11706WAT     H135360   3.885   3.049   6.084
11706WAT     H235361   3.800   2.923   6.144
11707WAT      O35362   8.911   7.188   8.418
11707WAT     H135363   8.824   7.176   8.466
11707WAT     H235364   8.903   7.261   8.351
11708WAT      O35365   7.032   1.397   2.572
11708WAT     H135366   7.126   1.369   2.590
11708WAT     H235367   6.977   1.383   2.654
11709WAT      O35368   7.824   2.583   9.179
11709WAT     H135369   7.748   2.570   9.116
11709WAT     H235370   7.816   2.520   9.256
11710WAT      O35371   0.262   1.621   9.616
11710WAT     H135372   0.277   1.704   9.562
11710WAT     H235373   0.177   1.578   9.586
11711WAT      O35374   6.574   7.880   6.845
11711WAT     H135375   6.612   7.876   6.753
11711WAT     H235376   6.538   7.790   6.871
11712WAT      O35377   4.046   6.325   4.554
11712WAT     H135378   3.961   6.323   4.503
11712WAT     H235379   4.033   6.378   4.638
11713WAT      O35380   4.287   1.639   9.678
11713WAT     H135381   4.297   1.576   9.600
11713WAT     H235382   4.252   1.727   9.645
11714WAT      O35383   2.648   4.269   6.176
11714WAT     H135384   2.706   4.339   6.219
11714WAT     H235385   2.580   4.314   6.118
11715WAT      O35386   7.703   6.829   0.233
11715WAT     H135387   7.714   6.902   0.166
11715WAT     H235388   7.791   6.809   0.277
11716WAT      O35389   1.025   8.169   2.018
11716WAT     H135390   1.046   8.133   1.927
11716WAT     H235391   0.938   8.132   2.049
11717WAT      O35392   2.386   0.180   4.751
11717WAT     H135393   2.343   0.186   4.841
11717WAT     H235394   2.382   0.086   4.719
11718WAT      O35395   6.614   4.100   6.486
11718WAT     H135396   6.620   4.130   6.391
11718WAT     H235397   6.658   4.011   6.496
11719WAT      O35398   0.537   3.005   4.365
11719WAT     H135399   0.496   3.005   4.274
11719WAT     H235400   0.507   2.923   4.415
11720WAT      O35401   8.681   9.097   7.338
11720WAT     H135402   8.705   9.183   7.292
11720WAT     H235403   8.587   9.072   7.316
11721WAT      O35404   5.794   6.176   7.661
11721WAT     H135405   5.786   6.210   7.568
11721WAT     H235406   5.750   6.086   7.668
11722WAT      O35407   9.384   5.511   3.233
11722WAT     H135408   9.434   5.444   3.288
11722WAT     H235409   9.399   5.603   3.270
11723WAT      O35410   2.563   5.801   3.575
11723WAT     H135411   2.618   5.736   3.522
11723WAT     H235412   2.616   5.885   3.590
11724WAT      O35413   8.595   1.619   9.532
11724WAT     H135414   8.658   1.652   9.601
11724WAT     H235415   8.578   1.521   9.546
11725WAT      O35416   9.135   2.464   5.627
11725WAT     H135417   9.151   2.375   5.671
11725WAT     H235418   9.087   2.450   5.541
11726WAT      O35419   1.795   0.750   3.178
11726WAT     H135420   1.713   0.759   3.122
11726WAT     H235421   1.808   0.833   3.232
11727WAT      O35422   8.616   8.615   4.110
11727WAT     H135423   8.632   8.517   4.119
11727WAT     H235424   8.703   8.662   4.094
11728WAT      O35425   8.519   9.474   9.020
11728WAT     H135426   8.603   9.507   9.061
11728WAT     H235427   8.457   9.550   9.002
11729WAT      O35428   9.218   7.929   9.876
11729WAT     H135429   9.211   7.976   9.788
11729WAT     H235430   9.129   7.933   9.923
11730WAT      O35431   6.915   0.307   1.271
11730WAT     H135432   6.987   0.357   1.225
11730WAT     H235433   6.891   0.225   1.219
11731WAT      O35434   4.147   7.676   0.758
11731WAT     H135435   4.156   7.765   0.802
11731WAT     H235436   4.210   7.611   0.801
11732WAT      O35437   2.716   0.426   5.533
11732WAT     H135438   2.742   0.519   5.507
11732WAT     H235439   2.793   0.364   5.515
11733WAT      O35440   6.171   6.295   8.556
11733WAT     H135441   6.083   6.277   8.512
11733WAT     H235442   6.244   6.288   8.488
11734WAT      O35443   5.943   8.416   6.619
11734WAT     H135444   6.016   8.470   6.662
11734WAT     H235445   5.871   8.398   6.685
11735WAT      O35446   3.912   8.191   3.156
11735WAT     H135447   3.866   8.234   3.079
11735WAT     H235448   4.005   8.227   3.165
11736WAT      O35449   8.776   5.672   6.620
11736WAT     H135450   8.747   5.638   6.709
11736WAT     H235451   8.700   5.720   6.576
11737WAT      O35452   3.660   4.508   2.690
11737WAT     H135453   3.717   4.590   2.687
11737WAT     H235454   3.717   4.429   2.713
11738WAT      O35455   3.593   1.816   2.660
11738WAT     H135456   3.652   1.881   2.707
11738WAT     H235457   3.596   1.728   2.707
11739WAT      O35458   7.139   1.556   1.407
11739WAT     H135459   7.149   1.496   1.487
11739WAT     H235460   7.173   1.648   1.430
11740WAT      O35461   2.756   8.130   5.231
11740WAT     H135462   2.826   8.166   5.170
11740WAT     H235463   2.666   8.143   5.190
11741WAT      O35464   2.069   5.120   2.014
11741WAT     H135465   2.110   5.038   1.972
11741WAT     H235466   2.122   5.147   2.094
11742WAT      O35467   6.261   2.117   3.453
11742WAT     H135468   6.338   2.133   3.515
11742WAT     H235469   6.217   2.204   3.432
11743WAT      O35470   0.022   2.259   3.164
11743WAT     H135471   0.005   2.238   3.068
11743WAT     H235472  -0.023   2.344   3.189
11744WAT      O35473   1.362   2.814   2.876
11744WAT     H135474   1.317   2.853   2.956
11744WAT     H235475   1.321   2.852   2.793
11745WAT      O35476   3.793   3.540   4.610
11745WAT     H135477   3.750   3.614   4.558
11745WAT     H235478   3.772   3.452   4.567
11746WAT      O35479   1.783   9.437   8.934
11746WAT     H135480   1.849   9.501   8.972
11746WAT     H235481   1.776   9.356   8.993
11747WAT      O35482   4.981   2.233   8.571
11747WAT     H135483   4.943   2.144   8.597
11747WAT     H235484   4.962   2.249   8.474
11748WAT      O35485   6.838   2.735   1.328
11748WAT     H135486   6.936   2.751   1.344
11748WAT     H235487   6.799   2.812   1.278
11749WAT      O35488   2.328   8.281   8.917
11749WAT     H135489   2.393   8.319   8.851
11749WAT     H235490   2.362   8.293   9.010
11750WAT      O35491   1.560   4.772   2.255
11750WAT     H135492   1.560   4.705   2.180
11750WAT     H235493   1.516   4.732   2.335
11751WAT      O35494   7.992   5.813   5.322
11751WAT     H135495   7.919   5.747   5.338
11751WAT     H235496   7.993   5.880   5.397
11752WAT      O35497   2.086   5.182   2.325
11752WAT     H135498   2.105   5.091   2.288
11752WAT     H235499   2.121   5.188   2.419
11753WAT      O35500   1.505   4.397   7.605
11753WAT     H135501   1.492   4.484   7.653
11753WAT     H235502   1.602   4.373   7.606
11754WAT      O35503   7.944   5.623   8.229
11754WAT     H135504   7.926   5.542   8.174
11754WAT     H235505   8.023   5.672   8.191
11755WAT      O35506   9.723   5.424   9.551
11755WAT     H135507   9.631   5.407   9.515
11755WAT     H235508   9.739   5.367   9.631
11756WAT      O35509   3.989   5.164   8.414
11756WAT     H135510   4.024   5.084   8.365
11756WAT     H235511   3.894   5.149   8.442
11757WAT      O35512   6.255   6.193   1.182
11757WAT     H135513   6.328   6.202   1.114
11757WAT     H235514   6.196   6.116   1.157
11758WAT      O35515   0.751   6.794   4.056
11758WAT     H135516   0.691   6.720   4.025
11758WAT     H235517   0.773   6.854   3.979
11759WAT      O35518   3.321   3.968   7.544
11759WAT     H135519   3.383   3.936   7.473
11759WAT     H235520   3.331   3.911   7.626
11760WAT      O35521   9.438   5.256   0.829
11760WAT     H135522   9.478   5.266   0.920
11760WAT     H235523   9.369   5.183   0.830
11761WAT      O35524   3.309   3.961   4.238
11761WAT     H135525   3.338   4.034   4.176
11761WAT     H235526   3.384   3.898   4.253
11762WAT      O35527   2.833   8.615   4.026
11762WAT     H135528   2.756   8.676   4.044
11762WAT     H235529   2.897   8.659   3.964
11763WAT      O35530   5.860   7.431   6.881
11763WAT     H135531   5.857   7.332   6.870
11763WAT     H235532   5.932   7.455   6.947
11764WAT      O35533   1.998   1.804   5.956
11764WAT     H135534   2.078   1.858   5.931
11764WAT     H235535   2.002   1.715   5.911
11765WAT      O35536   3.176   4.820   5.843
11765WAT     H135537   3.091   4.799   5.795
11765WAT     H235538   3.253   4.774   5.797
11766WAT      O35539   5.619   8.776   1.303
11766WAT     H135540   5.657   8.715   1.373
11766WAT     H235541   5.682   8.780   1.225
11767WAT      O35542   6.016   2.255   5.774
11767WAT     H135543   6.038   2.265   5.871
11767WAT     H235544   5.976   2.166   5.757
11768WAT      O35545   5.096   4.921   3.873
11768WAT     H135546   5.134   4.884   3.788
11768WAT     H235547   5.166   4.921   3.944
11769WAT      O35548   3.509   7.642   1.827
11769WAT     H135549   3.531   7.661   1.922
11769WAT     H235550   3.504   7.728   1.776
11770WAT      O35551   0.162   3.239   3.842
11770WAT     H135552   0.201   3.176   3.775
11770WAT     H235553   0.235   3.279   3.898
11771WAT      O35554   3.412   4.870   8.085
11771WAT     H135555   3.331   4.915   8.122
11771WAT     H235556   3.493   4.903   8.133
11772WAT      O35557   5.151   4.363   1.844
11772WAT     H135558   5.176   4.459   1.858
11772WAT     H235559   5.185   4.307   1.919
11773WAT      O35560   9.477   3.230   8.132
11773WAT     H135561   9.444   3.249   8.225
11773WAT     H235562   9.437   3.145   8.099
11774WAT      O35563   6.469   1.605   3.434
11774WAT     H135564   6.509   1.695   3.450
11774WAT     H235565   6.542   1.539   3.416
11775WAT      O35566   1.074   4.848   7.354
11775WAT     H135567   0.980   4.867   7.381
11775WAT     H235568   1.099   4.756   7.384
11776WAT      O35569   2.142   0.953   5.217
11776WAT     H135570   2.142   0.853   5.206
11776WAT     H235571   2.120   0.996   5.130
11777WAT      O35572   6.199   8.224   5.677
11777WAT     H135573   6.134   8.277   5.731
11777WAT     H235574   6.227   8.143   5.729
11778WAT      O35575   1.348   3.402   8.357
11778WAT     H135576   1.316   3.400   8.262
11778WAT     H235577   1.277   3.440   8.416
11779WAT      O35578   2.097   8.134   7.600
11779WAT     H135579   2.138   8.189   7.673
11779WAT     H235580   2.084   8.191   7.519
11780WAT      O35581   5.483   2.943   8.631
11780WAT     H135582   5.560   2.912   8.574
11780WAT     H235583   5.397   2.931   8.581
11781WAT      O35584   5.829   0.393   5.577
11781WAT     H135585   5.889   0.313   5.578
11781WAT     H235586   5.839   0.441   5.490
11782WAT      O35587   1.754   4.931   4.263
11782WAT     H135588   1.714   4.985   4.190
11782WAT     H235589   1.682   4.893   4.320
11783WAT      O35590   6.928   7.025   2.872
11783WAT     H135591   7.002   6.965   2.901
11783WAT     H235592   6.959   7.084   2.798
11784WAT      O35593   5.167   2.544   2.564
11784WAT     H135594   5.117   2.489   2.497
11784WAT     H235595   5.215   2.618   2.518
11785WAT      O35596   8.467   6.849   5.551
11785WAT     H135597   8.485   6.933   5.501
11785WAT     H235598   8.471   6.771   5.489
11786WAT      O35599   5.877   8.786   2.771
11786WAT     H135600   5.928   8.724   2.831
11786WAT     H235601   5.900   8.767   2.676
11787WAT      O35602   3.948   7.581   9.308
11787WAT     H135603   3.871   7.542   9.257
11787WAT     H235604   4.030   7.581   9.250
11788WAT      O35605   8.788   8.695   1.484
11788WAT     H135606   8.704   8.653   1.517
11788WAT     H235607   8.766   8.768   1.419
11789WAT      O35608   8.483   9.226   9.110
11789WAT     H135609   8.547   9.201   9.183
11789WAT     H235610   8.501   9.320   9.081
11790WAT      O35611   3.711   7.656   5.884
11790WAT     H135612   3.624   7.609   5.876
11790WAT     H235613   3.728   7.710   5.801
11791WAT      O35614   4.328   6.394   5.508
11791WAT     H135615   4.323   6.442   5.595
11791WAT     H235616   4.242   6.348   5.490
11792WAT      O35617   6.322   6.664   3.629
11792WAT     H135618   6.416   6.651   3.596
11792WAT     H235619   6.258   6.639   3.557
11793WAT      O35620   4.853   2.451   1.927
11793WAT     H135621   4.756   2.471   1.909
11793WAT     H235622   4.863   2.354   1.948
11794WAT      O35623   9.363   4.316   8.734
11794WAT     H135624   9.355   4.380   8.658
11794WAT     H235625   9.282   4.323   8.793
11795WAT      O35626   4.555   4.881   8.746
11795WAT     H135627   4.483   4.836   8.798
11795WAT     H235628   4.517   4.959   8.696
11796WAT      O35629   5.243   5.195   4.750
11796WAT     H135630   5.255   5.105   4.709
11796WAT     H235631   5.240   5.187   4.849
11797WAT      O35632   0.540   2.544   4.645
11797WAT     H135633   0.600   2.583   4.715
11797WAT     H235634   0.497   2.461   4.681
11798WAT      O35635   5.662   1.943   0.052
11798WAT     H135636   5.689   1.962   0.146
11798WAT     H235637   5.637   2.029   0.007
11799WAT      O35638   6.920   7.667   5.167
11799WAT     H135639   6.970   7.624   5.092
11799WAT     H235640   6.871   7.748   5.132
11800WAT      O35641   6.836   2.428   8.445
11800WAT     H135642   6.900   2.439   8.521
11800WAT     H235643   6.794   2.516   8.423
11801WAT      O35644   3.099   2.969   2.226
11801WAT     H135645   3.103   2.870   2.212
11801WAT     H235646   3.035   2.990   2.300
11802WAT      O35647   2.402   4.847   5.058
11802WAT     H135648   2.497   4.830   5.085
11802WAT     H235649   2.395   4.937   5.016
11803WAT      O35650   4.405   6.928   1.586
11803WAT     H135651   4.342   7.005   1.576
11803WAT     H235652   4.474   6.933   1.514
11804WAT      O35653   4.363   3.198   6.204
11804WAT     H135654   4.306   3.203   6.286
11804WAT     H235655   4.437   3.265   6.210
11805WAT      O35656   1.723   7.741   1.154
11805WAT     H135657   1.823   7.741   1.150
11805WAT     H235658   1.687   7.821   1.107
11806WAT      O35659   3.327   3.209   4.086
11806WAT     H135660   3.257   3.232   4.018
11806WAT     H235661   3.410   3.178   4.040
11807WAT      O35662   8.119   5.140   6.288
11807WAT     H135663   8.211   5.126   6.251
11807WAT     H235664   8.056   5.157   6.212
11808WAT      O35665   1.801   1.213   8.589
11808WAT     H135666   1.853   1.264   8.658
11808WAT     H235667   1.829   1.117   8.591
11809WAT      O35668   6.329   3.940   2.134
11809WAT     H135669   6.415   3.915   2.178
11809WAT     H235670   6.289   3.859   2.091
11810WAT      O35671   0.993   7.839   7.718
11810WAT     H135672   1.028   7.821   7.810
11810WAT     H235673   1.068   7.837   7.653
11811WAT      O35674   5.851   3.244   7.127
11811WAT     H135675   5.807   3.164   7.169
11811WAT     H235676   5.925   3.276   7.187
11812WAT      O35677   7.674   3.142   8.299
11812WAT     H135678   7.620   3.118   8.380
11812WAT     H235679   7.674   3.241   8.287
11813WAT      O35680   4.107   3.507   0.613
11813WAT     H135681   4.145   3.430   0.563
11813WAT     H235682   4.179   3.574   0.632
11814WAT      O35683   8.518   4.111   6.760
11814WAT     H135684   8.423   4.136   6.775
11814WAT     H235685   8.533   4.091   6.663
11815WAT      O35686   7.237   1.475   9.241
11815WAT     H135687   7.152   1.473   9.188
11815WAT     H235688   7.290   1.556   9.217
11816WAT      O35689   9.562   3.622   3.529
11816WAT     H135690   9.586   3.532   3.494
11816WAT     H235691   9.565   3.620   3.629
11817WAT      O35692   7.619   2.632   7.523
11817WAT     H135693   7.598   2.704   7.589
11817WAT     H235694   7.586   2.544   7.558
11818WAT      O35695   8.324   8.562   8.415
11818WAT     H135696   8.353   8.581   8.509
11818WAT     H235697   8.227   8.583   8.405
11819WAT      O35698   7.893   7.339   4.398
11819WAT     H135699   7.900   7.437   4.414
11819WAT     H235700   7.831   7.322   4.321
11820WAT      O35701   8.768   0.791   2.687
11820WAT     H135702   8.852   0.743   2.662
11820WAT     H235703   8.780   0.889   2.673
11821WAT      O35704   1.135   1.244   7.597
11821WAT     H135705   1.041   1.256   7.628
11821WAT     H235706   1.148   1.151   7.563
11822WAT      O35707   5.290   5.876   1.511
11822WAT     H135708   5.375   5.847   1.466
11822WAT     H235709   5.299   5.867   1.610
11823WAT      O35710   1.068   2.646   6.752
11823WAT     H135711   1.074   2.547   6.739
11823WAT     H235712   1.074   2.692   6.664
11824WAT      O35713   2.635   2.626   5.805
11824WAT     H135714   2.647   2.550   5.741
11824WAT     H235715   2.714   2.687   5.799
11825WAT      O35716   4.296   2.969   3.952
11825WAT     H135717   4.336   3.060   3.942
11825WAT     H235718   4.339   2.921   4.028
11826WAT      O35719   5.003   1.670   9.242
11826WAT     H135720   4.905   1.667   9.260
11826WAT     H235721   5.020   1.716   9.155
11827WAT      O35722   6.342   8.472   0.992
11827WAT     H135723   6.264   8.442   0.937
11827WAT     H235724   6.415   8.503   0.931
11828WAT      O35725   6.471   7.267   5.049
11828WAT     H135726   6.495   7.342   4.988
11828WAT     H235727   6.499   7.180   5.008
11829WAT      O35728   9.829   4.079   0.681
11829WAT     H135729   9.906   4.021   0.654
11829WAT     H235730   9.780   4.109   0.599
11830WAT      O35731   0.047   1.174   6.068
11830WAT     H135732  -0.034   1.190   6.012
11830WAT     H235733   0.033   1.212   6.159
11831WAT      O35734   8.090   2.187   1.414
11831WAT     H135735   8.183   2.204   1.448
11831WAT     H235736   8.036   2.271   1.423
11832WAT      O35737   9.164   6.787   2.654
11832WAT     H135738   9.079   6.792   2.706
11832WAT     H235739   9.232   6.735   2.706
11833WAT      O35740   4.613   7.748   5.796
11833WAT     H135741   4.709   7.754   5.825
11833WAT     H235742   4.583   7.653   5.802
11834WAT      O35743   1.716   4.276   9.597
11834WAT     H135744   1.774   4.329   9.535
11834WAT     H235745   1.717   4.180   9.569
11835WAT      O35746   0.611   2.803   6.245
11835WAT     H135747   0.619   2.744   6.325
11835WAT     H235748   0.574   2.892   6.272
11836WAT      O35749   7.237   0.742   6.237
11836WAT     H135750   7.333   0.764   6.253
11836WAT     H235751   7.191   0.730   6.325
11837WAT      O35752   3.417   6.641   0.930
11837WAT     H135753   3.353   6.685   0.867
11837WAT     H235754   3.433   6.699   1.009
11838WAT      O35755   5.412   8.132   7.123
11838WAT     H135756   5.376   8.172   7.207
11838WAT     H235757   5.415   8.202   7.051
11839WAT      O35758   7.861   2.975   1.929
11839WAT     H135759   7.878   3.066   1.892
11839WAT     H235760   7.927   2.911   1.890
11840WAT      O35761   5.652   6.563   1.622
11840WAT     H135762   5.723   6.494   1.609
11840WAT     H235763   5.682   6.650   1.583
11841WAT      O35764   4.464   2.973   6.505
11841WAT     H135765   4.395   3.045   6.494
11841WAT     H235766   4.502   2.978   6.598
11842WAT      O35767   8.605   9.084   0.351
11842WAT     H135768   8.662   9.094   0.269
11842WAT     H235769   8.648   9.132   0.427
11843WAT      O35770   7.665   5.216   5.567
11843WAT     H135771   7.709   5.267   5.492
11843WAT     H235772   7.639   5.280   5.640
11844WAT      O35773   6.992   2.908   3.311
11844WAT     H135774   6.998   2.874   3.405
11844WAT     H235775   7.078   2.953   3.286
11845WAT      O35776   5.706   3.534   7.809
11845WAT     H135777   5.803   3.533   7.784
11845WAT     H235778   5.697   3.530   7.908
11846WAT      O35779   9.415   3.837   2.995
11846WAT     H135780   9.397   3.805   3.088
11846WAT     H235781   9.330   3.835   2.942
11847WAT      O35782   3.484   4.944   6.202
11847WAT     H135783   3.478   5.012   6.275
11847WAT     H235784   3.408   4.956   6.138
11848WAT      O35785   7.208   2.314   3.564
11848WAT     H135786   7.298   2.283   3.536
11848WAT     H235787   7.177   2.262   3.644
11849WAT      O35788   2.611   9.418   2.868
11849WAT     H135789   2.616   9.479   2.947
11849WAT     H235790   2.608   9.323   2.900
11850WAT      O35791   5.725   5.985   2.997
11850WAT     H135792   5.722   6.085   2.992
11850WAT     H235793   5.638   5.951   3.033
11851WAT      O35794   8.350   4.773   1.427
11851WAT     H135795   8.318   4.728   1.511
11851WAT     H235796   8.290   4.849   1.404
11852WAT      O35797   3.831   4.752   1.145
11852WAT     H135798   3.830   4.685   1.220
11852WAT     H235799   3.865   4.839   1.179
11853WAT      O35800   1.467   4.451   9.868
11853WAT     H135801   1.426   4.536   9.833
11853WAT     H235802   1.550   4.474   9.919
11854WAT      O35803   4.677   8.090   4.997
11854WAT     H135804   4.757   8.031   5.004
11854WAT     H235805   4.632   8.076   4.910
11855WAT      O35806   7.974   4.489   1.026
11855WAT     H135807   7.886   4.451   1.056
11855WAT     H235808   7.962   4.585   1.001
11856WAT      O35809   6.539   3.884   9.816
11856WAT     H135810   6.618   3.852   9.868
11856WAT     H235811   6.466   3.815   9.821
11857WAT      O35812   0.765   8.368   2.496
11857WAT     H135813   0.852   8.417   2.491
11857WAT     H235814   0.767   8.305   2.574
11858WAT      O35815   3.695   7.732   7.115
11858WAT     H135816   3.680   7.634   7.102
11858WAT     H235817   3.699   7.752   7.213
11859WAT      O35818   2.075   1.467   2.296
11859WAT     H135819   2.062   1.376   2.337
11859WAT     H235820   2.155   1.465   2.236
11860WAT      O35821   7.285   1.511   0.556
11860WAT     H135822   7.287   1.597   0.505
11860WAT     H235823   7.342   1.443   0.509
11861WAT      O35824   7.699   9.155   3.129
11861WAT     H135825   7.755   9.237   3.143
11861WAT     H235826   7.681   9.111   3.217
11862WAT      O35827   4.998   0.300   4.947
11862WAT     H135828   4.988   0.283   4.849
11862WAT     H235829   5.039   0.220   4.990
11863WAT      O35830   1.577   5.655   7.889
11863WAT     H135831   1.485   5.689   7.906
11863WAT     H235832   1.573   5.572   7.834
11864WAT      O35833   9.199   8.025   5.783
11864WAT     H135834   9.202   8.097   5.852
11864WAT     H235835   9.177   8.064   5.694
11865WAT      O35836   5.890   0.069   9.659
11865WAT     H135837   5.894   0.048   9.561
11865WAT     H235838   5.977   0.110   9.688
11866WAT      O35839   6.756   9.686   3.703
11866WAT     H135840   6.762   9.623   3.626
11866WAT     H235841   6.745   9.779   3.669
11867WAT      O35842   2.481   3.421   4.012
11867WAT     H135843   2.572   3.396   3.979
11867WAT     H235844   2.484   3.512   4.052
11868WAT      O35845   8.195   2.212   6.584
11868WAT     H135846   8.271   2.273   6.604
11868WAT     H235847   8.158   2.175   6.669
11869WAT      O35848   0.087   0.548   0.811
11869WAT     H135849   0.089   0.501   0.723
11869WAT     H235850   0.113   0.485   0.884
11870WAT      O35851   0.931   3.057   3.964
11870WAT     H135852   0.921   3.137   4.024
11870WAT     H235853   0.883   3.073   3.878
11871WAT      O35854   7.782   5.986   0.473
11871WAT     H135855   7.823   5.980   0.564
11871WAT     H235856   7.751   5.895   0.444
11872WAT      O35857   2.174   0.782   8.126
11872WAT     H135858   2.190   0.877   8.101
11872WAT     H235859   2.261   0.739   8.151
11873WAT      O35860   4.089   0.484   6.761
11873WAT     H135861   4.108   0.415   6.691
11873WAT     H235862   4.005   0.534   6.737
11874WAT      O35863   1.260   9.129   1.178
11874WAT     H135864   1.281   9.213   1.228
11874WAT     H235865   1.329   9.115   1.106
11875WAT      O35866   5.328   9.304   8.149
11875WAT     H135867   5.288   9.259   8.069
11875WAT     H235868   5.417   9.263   8.169
11876WAT      O35869   5.789   6.849   7.808
11876WAT     H135870   5.790   6.945   7.779
11876WAT     H235871   5.860   6.834   7.876
11877WAT      O35872   8.666   5.666   0.314
11877WAT     H135873   8.715   5.741   0.269
11877WAT     H235874   8.575   5.657   0.273
11878WAT      O35875   9.808   1.534   1.551
11878WAT     H135876   9.905   1.523   1.575
11878WAT     H235877   9.800   1.588   1.467
11879WAT      O35878   3.963   3.719   6.286
11879WAT     H135879   3.952   3.622   6.266
11879WAT     H235880   3.941   3.772   6.204
11880WAT      O35881   7.147   5.870   8.285
11880WAT     H135882   7.211   5.861   8.208
11880WAT     H235883   7.108   5.780   8.307
11881WAT      O35884   5.502   7.962   0.350
11881WAT     H135885   5.521   8.032   0.281
11881WAT     H235886   5.463   8.005   0.432
11882WAT      O35887   2.815   8.200   8.499
11882WAT     H135888   2.911   8.193   8.471
11882WAT     H235889   2.762   8.126   8.458
11883WAT      O35890   5.643   7.487   7.202
11883WAT     H135891   5.565   7.425   7.209
11883WAT     H235892   5.629   7.550   7.125
11884WAT      O35893   0.839   3.531   3.194
11884WAT     H135894   0.773   3.472   3.147
11884WAT     H235895   0.803   3.625   3.198
11885WAT      O35896   2.184   3.469   2.015
11885WAT     H135897   2.186   3.537   2.089
11885WAT     H235898   2.186   3.377   2.054
11886WAT      O35899   4.218   5.338   9.108
11886WAT     H135900   4.261   5.428   9.093
11886WAT     H235901   4.172   5.337   9.197
11887WAT      O35902   7.243   8.676   7.133
11887WAT     H135903   7.206   8.748   7.074
11887WAT     H235904   7.330   8.644   7.095
11888WAT      O35905   1.912   0.209   2.975
11888WAT     H135906   1.826   0.182   2.933
11888WAT     H235907   1.966   0.263   2.910
11889WAT      O35908   7.890   6.062   7.543
11889WAT     H135909   7.876   5.964   7.529
11889WAT     H235910   7.929   6.102   7.461
11890WAT      O35911   1.937   6.414   9.588
11890WAT     H135912   1.926   6.482   9.661
11890WAT     H235913   1.854   6.409   9.533
11891WAT      O35914   4.105   4.797   6.334
11891WAT     H135915   4.124   4.895   6.343
11891WAT     H235916   4.134   4.750   6.417
11892WAT      O35917   5.246   0.069   9.108
11892WAT     H135918   5.196   0.020   9.179
11892WAT     H235919   5.183   0.095   9.035
11893WAT      O35920   4.023   5.067   9.706
11893WAT     H135921   4.075   5.151   9.694
11893WAT     H235922   4.077   5.001   9.758
11894WAT      O35923   1.238   5.515   2.526
11894WAT     H135924   1.139   5.531   2.529
11894WAT     H235925   1.265   5.459   2.604
11895WAT      O35926   1.447   3.842   2.589
11895WAT     H135927   1.504   3.886   2.659
11895WAT     H235928   1.363   3.895   2.577
11896WAT      O35929   9.341   7.500   5.553
11896WAT     H135930   9.278   7.561   5.504
11896WAT     H235931   9.426   7.550   5.572
11897WAT      O35932   3.799   6.969   8.488
11897WAT     H135933   3.733   6.902   8.456
11897WAT     H235934   3.887   6.924   8.503
11898WAT      O35935   3.069   8.511   7.963
11898WAT     H135936   3.030   8.599   7.991
11898WAT     H235937   3.067   8.449   8.042
11899WAT      O35938   2.129   8.051   2.976
11899WAT     H135939   2.046   8.023   3.025
11899WAT     H235940   2.118   8.030   2.879
11900WAT      O35941   1.624   9.833   8.129
11900WAT     H135942   1.545   9.814   8.071
11900WAT     H235943   1.597   9.899   8.200
11901WAT      O35944   4.108   8.792   9.015
11901WAT     H135945   4.082   8.804   9.111
11901WAT     H235946   4.053   8.719   8.975
11902WAT      O35947   9.188   2.918   1.574
11902WAT     H135948   9.268   2.861   1.590
11902WAT     H235949   9.206   3.011   1.608
11903WAT      O35950   7.766   2.143   6.333
11903WAT     H135951   7.842   2.180   6.280
11903WAT     H235952   7.796   2.123   6.426
11904WAT      O35953   5.988   5.213   5.173
11904WAT     H135954   5.901   5.259   5.159
11904WAT     H235955   6.028   5.190   5.085
11905WAT      O35956   5.225   0.180   6.269
11905WAT     H135957   5.306   0.144   6.223
11905WAT     H235958   5.167   0.226   6.202
11906WAT      O35959   4.864   2.234   7.669
11906WAT     H135960   4.821   2.219   7.757
11906WAT     H235961   4.800   2.282   7.608
11907WAT      O35962   7.872   1.186   6.967
11907WAT     H135963   7.958   1.135   6.969
11907WAT     H235964   7.891   1.283   6.983
11908WAT      O35965   3.714   0.212   7.109
11908WAT     H135966   3.749   0.272   7.037
11908WAT     H235967   3.689   0.123   7.069
11909WAT      O35968   0.388   9.483   5.016
11909WAT     H135969   0.348   9.569   5.046
11909WAT     H235970   0.476   9.501   4.972
11910WAT      O35971   4.640   6.789   3.923
11910WAT     H135972   4.692   6.842   3.856
11910WAT     H235973   4.672   6.694   3.922
11911WAT      O35974   3.989   7.720   7.063
11911WAT     H135975   3.985   7.620   7.063
11911WAT     H235976   3.899   7.757   7.087
11912WAT      O35977   9.863   1.445   2.924
11912WAT     H135978   9.905   1.375   2.983
11912WAT     H235979   9.896   1.535   2.950
11913WAT      O35980   2.306   2.204   9.574
11913WAT     H135981   2.376   2.162   9.631
11913WAT     H235982   2.261   2.278   9.624
11914WAT      O35983   4.607   0.765   7.341
11914WAT     H135984   4.539   0.700   7.376
11914WAT     H235985   4.583   0.791   7.247
11915WAT      O35986   1.490   1.990   2.051
11915WAT     H135987   1.521   1.972   1.958
11915WAT     H235988   1.516   2.083   2.077
11916WAT      O35989   9.398   2.744   1.600
11916WAT     H135990   9.381   2.668   1.537
11916WAT     H235991   9.410   2.708   1.693
11917WAT      O35992   6.466   3.233   8.444
11917WAT     H135993   6.476   3.201   8.538
11917WAT     H235994   6.556   3.241   8.401
11918WAT      O35995   4.327   4.413   2.119
11918WAT     H135996   4.244   4.451   2.079
11918WAT     H235997   4.357   4.469   2.196
11919WAT      O35998   6.499   2.371   4.476
11919WAT     H135999   6.465   2.408   4.563
11919WAT     H236000   6.553   2.441   4.429
11920WAT      O36001   7.611   0.372   7.184
11920WAT     H136002   7.694   0.322   7.209
11920WAT     H236003   7.532   0.324   7.222
11921WAT      O36004   1.146   7.141   8.005
11921WAT     H136005   1.109   7.219   7.956
11921WAT     H236006   1.161   7.166   8.101
11922WAT      O36007   0.934   3.076   7.236
11922WAT     H136008   0.868   3.005   7.259
11922WAT     H236009   0.888   3.165   7.231
11923WAT      O36010   6.371   7.540   9.888
11923WAT     H136011   6.419   7.601   9.825
11923WAT     H236012   6.302   7.488   9.839
11924WAT      O36013   5.907   3.479   2.859
11924WAT     H136014   5.902   3.577   2.842
11924WAT     H236015   5.969   3.461   2.935
11925WAT      O36016   5.730   0.876   3.371
11925WAT     H136017   5.792   0.847   3.444
11925WAT     H236018   5.705   0.798   3.314
11926WAT      O36019   5.076   3.449   4.585
11926WAT     H136020   5.117   3.540   4.571
11926WAT     H236021   5.086   3.396   4.501
11927WAT      O36022   5.297   5.441   4.945
11927WAT     H136023   5.267   5.346   4.936
11927WAT     H236024   5.218   5.502   4.933
11928WAT      O36025   8.862   8.818   3.213
11928WAT     H136026   8.878   8.859   3.303
11928WAT     H236027   8.915   8.868   3.144
11929WAT      O36028   4.802   7.083   7.977
11929WAT     H136029   4.787   6.994   8.020
11929WAT     H236030   4.791   7.155   8.045
11930WAT      O36031   1.978   1.164   3.192
11930WAT     H136032   1.883   1.169   3.222
11930WAT     H236033   2.014   1.256   3.180
11931WAT      O36034   9.333   0.803   9.259
11931WAT     H136035   9.407   0.795   9.191
11931WAT     H236036   9.365   0.858   9.336
11932WAT      O36037   6.408   8.632   9.149
11932WAT     H136038   6.405   8.659   9.245
11932WAT     H236039   6.470   8.554   9.139
11933WAT      O36040   0.799   2.683   8.619
11933WAT     H136041   0.735   2.607   8.604
11933WAT     H236042   0.825   2.686   8.715
11934WAT      O36043   7.369   8.332   0.825
11934WAT     H136044   7.342   8.324   0.921
11934WAT     H236045   7.294   8.372   0.773
11935WAT      O36046   4.573   6.015   2.746
11935WAT     H136047   4.513   5.975   2.815
11935WAT     H236048   4.518   6.061   2.676
11936WAT      O36049   6.840   2.762   0.397
11936WAT     H136050   6.898   2.816   0.457
11936WAT     H236051   6.746   2.763   0.432
11937WAT      O36052   5.328   2.908   9.075
11937WAT     H136053   5.286   2.841   9.014
11937WAT     H236054   5.385   2.861   9.142
11938WAT      O36055   4.931   7.337   3.822
11938WAT     H136056   5.003   7.356   3.755
11938WAT     H236057   4.972   7.319   3.911
11939WAT      O36058   6.223   6.151   2.325
11939WAT     H136059   6.272   6.229   2.286
11939WAT     H236060   6.279   6.069   2.317
11940WAT      O36061   7.031   0.680   1.210
11940WAT     H136062   7.012   0.665   1.308
11940WAT     H236063   7.087   0.762   1.200
11941WAT      O36064   5.880   0.933   2.958
11941WAT     H136065   5.860   0.992   3.035
11941WAT     H236066   5.960   0.876   2.979
11942WAT      O36067   0.011   7.992   2.565
11942WAT     H136068   0.083   8.034   2.621
11942WAT     H236069   0.023   7.893   2.564
11943WAT      O36070   6.747   8.221   9.418
11943WAT     H136071   6.680   8.161   9.463
11943WAT     H236072   6.839   8.186   9.433
11944WAT      O36073   9.851   0.996   3.922
11944WAT     H136074   9.912   1.036   3.854
11944WAT     H236075   9.769   0.962   3.877
11945WAT      O36076   7.837   1.981   2.458
11945WAT     H136077   7.847   2.064   2.403
11945WAT     H236078   7.878   1.996   2.548
11946WAT      O36079   5.770   2.504   2.693
11946WAT     H136080   5.719   2.571   2.747
11946WAT     H236081   5.801   2.548   2.608
11947WAT      O36082   2.693   4.360   8.547
11947WAT     H136083   2.644   4.369   8.460
11947WAT     H236084   2.787   4.331   8.529
11948WAT      O36085   1.244   8.926   5.737
11948WAT     H136086   1.209   9.019   5.751
11948WAT     H236087   1.170   8.860   5.750
11949WAT      O36088   2.357   1.813   4.818
11949WAT     H136089   2.424   1.886   4.802
11949WAT     H236090   2.405   1.731   4.849
11950WAT      O36091   1.942   9.529   5.285
11950WAT     H136092   1.969   9.617   5.325
11950WAT     H236093   2.014   9.497   5.223
11951WAT      O36094   9.794   3.469   5.026
11951WAT     H136095   9.851   3.460   4.945
11951WAT     H236096   9.740   3.553   5.021
11952WAT      O36097   3.299   0.949   6.139
11952WAT     H136098   3.331   0.856   6.157
11952WAT     H236099   3.376   1.004   6.105
11953WAT      O36100   3.684   0.129   5.835
11953WAT     H136101   3.731   0.148   5.749
11953WAT     H236102   3.747   0.142   5.911
11954WAT      O36103   4.249   8.575   2.231
11954WAT     H136104   4.287   8.510   2.165
11954WAT     H236105   4.244   8.533   2.321
11955WAT      O36106   3.433   6.462   6.091
11955WAT     H136107   3.473   6.374   6.066
11955WAT     H236108   3.499   6.535   6.075
11956WAT      O36109   3.307   8.787   9.366
11956WAT     H136110   3.225   8.735   9.391
11956WAT     H236111   3.280   8.881   9.342
11957WAT      O36112   2.154   2.099   7.908
11957WAT     H136113   2.066   2.098   7.860
11957WAT     H236114   2.186   2.005   7.920
11958WAT      O36115   4.732   7.458   7.720
11958WAT     H136116   4.821   7.489   7.754
11958WAT     H236117   4.746   7.396   7.643
11959WAT      O36118   2.690   3.057   5.212
11959WAT     H136119   2.606   3.106   5.233
11959WAT     H236120   2.669   2.960   5.197
11960WAT      O36121   3.441   3.552   7.044
11960WAT     H136122   3.387   3.636   7.047
11960WAT     H236123   3.520   3.565   6.984
11961WAT      O36124   9.604   8.051   6.548
11961WAT     H136125   9.702   8.068   6.556
11961WAT     H236126   9.580   7.968   6.599
11962WAT      O36127   0.242   2.557   4.174
11962WAT     H136128   0.284   2.621   4.109
11962WAT     H236129   0.290   2.469   4.169
11963WAT      O36130   4.900   5.164   3.473
11963WAT     H136131   4.889   5.246   3.418
11963WAT     H236132   4.901   5.084   3.414
11964WAT      O36133   5.545   2.965   6.804
11964WAT     H136134   5.630   2.915   6.785
11964WAT     H236135   5.550   3.056   6.762
11965WAT      O36136   4.512   6.844   3.108
11965WAT     H136137   4.481   6.938   3.093
11965WAT     H236138   4.514   6.795   3.021
11966WAT      O36139   3.490   1.400   8.512
11966WAT     H136140   3.548   1.462   8.459
11966WAT     H236141   3.400   1.441   8.524
11967WAT      O36142   6.843   4.583   6.531
11967WAT     H136143   6.802   4.612   6.444
11967WAT     H236144   6.770   4.552   6.593
11968WAT      O36145   9.349   3.753   0.130
11968WAT     H136146   9.425   3.806   0.168
11968WAT     H236147   9.263   3.781   0.174
11969WAT      O36148   9.699   1.320   9.036
11969WAT     H136149   9.651   1.237   9.008
11969WAT     H236150   9.654   1.359   9.116
11970WAT      O36151   4.040   8.640   6.381
11970WAT     H136152   3.995   8.725   6.352
11970WAT     H236153   4.027   8.570   6.311
11971WAT      O36154   3.186   8.800   2.207
11971WAT     H136155   3.209   8.719   2.153
11971WAT     H236156   3.259   8.867   2.199
11972WAT      O36157   2.117   5.160   7.761
11972WAT     H136158   2.174   5.082   7.787
11972WAT     H236159   2.075   5.142   7.672
11973WAT      O36160   5.263   8.822   9.705
11973WAT     H136161   5.343   8.882   9.710
11973WAT     H236162   5.285   8.740   9.653
11974WAT      O36163   6.943   0.099   9.619
11974WAT     H136164   6.857   0.148   9.611
11974WAT     H236165   6.935   0.030   9.692
11975WAT      O36166   9.281   5.663   1.617
11975WAT     H136167   9.328   5.587   1.573
11975WAT     H236168   9.208   5.627   1.676
11976WAT      O36169   5.378   0.030   6.576
11976WAT     H136170   5.363  -0.029   6.496
11976WAT     H236171   5.396   0.123   6.546
11977WAT      O36172   3.586   3.979   6.374
11977WAT     H136173   3.611   3.968   6.277
11977WAT     H236174   3.490   3.954   6.386
11978WAT      O36175   7.595   5.593   5.504
11978WAT     H136176   7.549   5.679   5.526
11978WAT     H236177   7.686   5.613   5.469
11979WAT      O36178   8.668   7.920   6.452
11979WAT     H136179   8.730   7.964   6.517
11979WAT     H236180   8.644   7.828   6.486
11980WAT      O36181   3.948   0.944   3.044
11980WAT     H136182   3.974   0.935   2.948
11980WAT     H236183   3.919   0.855   3.079
11981WAT      O36184   3.362   6.227   2.495
11981WAT     H136185   3.422   6.147   2.492
11981WAT     H236186   3.366   6.275   2.407
11982WAT      O36187   1.062   8.853   4.910
11982WAT     H136188   1.025   8.790   4.977
11982WAT     H236189   1.162   8.851   4.914
11983WAT      O36190   5.818   6.191   1.128
11983WAT     H136191   5.774   6.108   1.161
11983WAT     H236192   5.903   6.167   1.080
11984WAT      O36193   8.951   1.096   4.226
11984WAT     H136194   8.907   1.014   4.191
11984WAT     H236195   8.952   1.095   4.326
11985WAT      O36196   7.496   0.725   9.662
11985WAT     H136197   7.553   0.741   9.743
11985WAT     H236198   7.401   0.710   9.691
11986WAT      O36199   4.748   7.042   3.830
11986WAT     H136200   4.842   7.049   3.796
11986WAT     H236201   4.706   7.133   3.831
11987WAT      O36202   1.064   9.245   8.936
11987WAT     H136203   1.122   9.166   8.917
11987WAT     H236204   0.968   9.219   8.930
11988WAT      O36205   5.600   4.867   8.412
11988WAT     H136206   5.677   4.921   8.378
11988WAT     H236207   5.592   4.878   8.511
11989WAT      O36208   1.686   3.101   7.705
11989WAT     H136209   1.671   3.038   7.629
11989WAT     H236210   1.667   3.195   7.674
11990WAT      O36211   0.446   9.155   2.880
11990WAT     H136212   0.513   9.080   2.880
11990WAT     H236213   0.354   9.117   2.871
11991WAT      O36214   3.001   4.584   8.466
11991WAT     H136215   3.061   4.522   8.517
11991WAT     H236216   2.948   4.640   8.530
11992WAT      O36217   8.000   2.511   4.777
11992WAT     H136218   8.004   2.611   4.788
11992WAT     H236219   8.040   2.467   4.857
11993WAT      O36220   0.635   4.217   9.093
11993WAT     H136221   0.562   4.205   9.025
11993WAT     H236222   0.598   4.203   9.184
11994WAT      O36223   5.963   2.448   4.067
11994WAT     H136224   6.060   2.426   4.068
11994WAT     H236225   5.910   2.363   4.058
11995WAT      O36226   3.187   0.927   1.657
11995WAT     H136227   3.164   0.982   1.577
11995WAT     H236228   3.123   0.947   1.731
11996WAT      O36229   1.392   5.257   6.039
11996WAT     H136230   1.406   5.356   6.034
11996WAT     H236231   1.444   5.212   5.966
11997WAT      O36232   7.767   5.803   5.910
11997WAT     H136233   7.768   5.845   6.001
11997WAT     H236234   7.834   5.730   5.906
11998WAT      O36235   7.050   7.934   5.174
11998WAT     H136236   7.071   8.000   5.101
11998WAT     H236237   7.131   7.880   5.195
11999WAT      O36238   8.930   4.299   7.500
11999WAT     H136239   8.946   4.208   7.461
11999WAT     H236240   8.870   4.292   7.579
12000WAT      O36241   7.981   6.283   0.745
12000WAT     H136242   7.949   6.327   0.661
12000WAT     H236243   7.910   6.291   0.815
12001WAT      O36244   0.203   7.675   5.610
12001WAT     H136245   0.154   7.753   5.650
12001WAT     H236246   0.137   7.607   5.579
12002WAT      O36247   4.365   0.535   0.134
12002WAT     H136248   4.445   0.479   0.112
12002WAT     H236249   4.336   0.584   0.052
12003WAT      O36250   5.519   9.193   8.627
12003WAT     H136251   5.480   9.111   8.669
12003WAT     H236252   5.618   9.181   8.616
12004WAT      O36253   2.654   3.170   3.694
12004WAT     H136254   2.559   3.201   3.688
12004WAT     H236255   2.673   3.103   3.623
12005WAT      O36256   8.049   7.261   2.250
12005WAT     H136257   8.043   7.240   2.152
12005WAT     H236258   8.145   7.273   2.275
12006WAT      O36259   1.911   4.774   8.490
12006WAT     H136260   1.960   4.715   8.555
12006WAT     H236261   1.819   4.739   8.477
12007WAT      O36262   9.254   0.466   8.694
12007WAT     H136263   9.181   0.446   8.629
12007WAT     H236264   9.342   0.439   8.656
12008WAT      O36265   2.884   7.908   9.366
12008WAT     H136266   2.972   7.898   9.412
12008WAT     H236267   2.825   7.830   9.388
12009WAT      O36268   1.150   2.475   0.151
12009WAT     H136269   1.116   2.528   0.073
12009WAT     H236270   1.232   2.520   0.187
12010WAT      O36271   5.366   6.903   9.064
12010WAT     H136272   5.308   6.981   9.041
12010WAT     H236273   5.309   6.828   9.098
12011WAT      O36274   4.808   2.205   9.271
12011WAT     H136275   4.897   2.250   9.267
12011WAT     H236276   4.768   2.203   9.180
12012WAT      O36277   3.695   7.237   2.032
12012WAT     H136278   3.744   7.155   2.003
12012WAT     H236279   3.610   7.212   2.079
12013WAT      O36280   0.593   9.300   9.619
12013WAT     H136281   0.594   9.397   9.596
12013WAT     H236282   0.507   9.259   9.587
12014WAT      O36283   6.331   7.146   9.346
12014WAT     H136284   6.250   7.139   9.288
12014WAT     H236285   6.311   7.204   9.425
12015WAT      O36286   4.600   1.933   1.829
12015WAT     H136287   4.517   1.963   1.875
12015WAT     H236288   4.670   1.911   1.897
12016WAT      O36289   0.816   9.151   8.983
12016WAT     H136290   0.835   9.054   8.967
12016WAT     H236291   0.746   9.182   8.919
12017WAT      O36292   4.284   6.118   6.133
12017WAT     H136293   4.207   6.129   6.071
12017WAT     H236294   4.360   6.074   6.084
12018WAT      O36295   8.746   4.496   9.285
12018WAT     H136296   8.701   4.497   9.375
12018WAT     H236297   8.769   4.590   9.259
12019WAT      O36298   7.006   3.337   6.312
12019WAT     H136299   7.061   3.348   6.395
12019WAT     H236300   6.945   3.415   6.303
12020WAT      O36301   6.998   5.473   8.651
12020WAT     H136302   6.965   5.493   8.743
12020WAT     H236303   6.968   5.381   8.624
12021WAT      O36304   7.542   0.803   8.355
12021WAT     H136305   7.552   0.732   8.285
12021WAT     H236306   7.632   0.839   8.379
12022WAT      O36307   5.272   2.148   5.808
12022WAT     H136308   5.347   2.101   5.762
12022WAT     H236309   5.187   2.097   5.795
12023WAT      O36310   4.035   7.088   6.663
12023WAT     H136311   4.090   7.155   6.714
12023WAT     H236312   4.052   7.100   6.565
12024WAT      O36313   3.702   8.564   6.631
12024WAT     H136314   3.631   8.511   6.677
12024WAT     H236315   3.660   8.619   6.558
12025WAT      O36316   4.442   0.182   4.522
12025WAT     H136317   4.491   0.257   4.478
12025WAT     H236318   4.476   0.095   4.487
12026WAT      O36319   5.790   5.485   1.331
12026WAT     H136320   5.870   5.524   1.283
12026WAT     H236321   5.799   5.386   1.333
12027WAT      O36322   8.969   6.227   1.034
12027WAT     H136323   8.907   6.257   0.962
12027WAT     H236324   8.942   6.135   1.065
12028WAT      O36325   5.562   7.057   4.102
12028WAT     H136326   5.550   7.088   4.196
12028WAT     H236327   5.507   6.975   4.086
12029WAT      O36328   8.251   8.875   5.776
12029WAT     H136329   8.206   8.926   5.849
12029WAT     H236330   8.261   8.779   5.803
12030WAT      O36331   8.746   2.413   5.827
12030WAT     H136332   8.674   2.402   5.896
12030WAT     H236333   8.779   2.323   5.798
12031WAT      O36334   9.623   5.750   4.751
12031WAT     H136335   9.553   5.821   4.741
12031WAT     H236336   9.679   5.770   4.832
12032WAT      O36337   7.011   6.546   5.281
12032WAT     H136338   6.999   6.617   5.350
12032WAT     H236339   6.990   6.583   5.191
12033WAT      O36340   3.751   7.967   4.005
12033WAT     H136341   3.800   8.039   4.054
12033WAT     H236342   3.737   7.995   3.910
12034WAT      O36343   2.740   7.566   6.021
12034WAT     H136344   2.811   7.620   6.065
12034WAT     H236345   2.701   7.618   5.945
12035WAT      O36346   0.976   3.336   4.074
12035WAT     H136347   1.006   3.307   4.165
12035WAT     H236348   1.056   3.352   4.016
12036WAT      O36349   5.776   0.082   1.332
12036WAT     H136350   5.727   0.080   1.245
12036WAT     H236351   5.875   0.081   1.314
12037WAT      O36352   9.111   9.240   8.859
12037WAT     H136353   9.203   9.234   8.897
12037WAT     H236354   9.076   9.147   8.841
12038WAT      O36355   8.993   7.666   1.808
12038WAT     H136356   8.934   7.605   1.756
12038WAT     H236357   9.085   7.629   1.812
12039WAT      O36358   4.246   3.987   3.470
12039WAT     H136359   4.171   4.035   3.425
12039WAT     H236360   4.331   4.037   3.455
12040WAT      O36361   2.275   7.211   3.237
12040WAT     H136362   2.365   7.173   3.260
12040WAT     H236363   2.255   7.287   3.298
12041WAT      O36364   8.078   3.357   2.915
12041WAT     H136365   8.142   3.433   2.910
12041WAT     H236366   8.025   3.362   2.999
12042WAT      O36367   3.511   7.371   8.899
12042WAT     H136368   3.417   7.379   8.867
12042WAT     H236369   3.511   7.329   8.990
12043WAT      O36370   8.494   1.500   8.561
12043WAT     H136371   8.579   1.546   8.588
12043WAT     H236372   8.436   1.564   8.511
12044WAT      O36373   3.461   5.327   3.900
12044WAT     H136374   3.501   5.256   3.958
12044WAT     H236375   3.398   5.285   3.835
12045WAT      O36376   3.097   4.605   1.897
12045WAT     H136377   3.031   4.590   1.970
12045WAT     H236378   3.077   4.692   1.851
12046WAT      O36379   3.949   7.782   4.888
12046WAT     H136380   3.958   7.746   4.795
12046WAT     H236381   3.977   7.712   4.954
12047WAT      O36382   0.972   8.921   8.954
12047WAT     H136383   1.045   8.957   8.896
12047WAT     H236384   1.003   8.836   8.998
12048WAT      O36385   7.916   2.310   8.539
12048WAT     H136386   7.834   2.365   8.556
12048WAT     H236387   7.892   2.229   8.486
12049WAT      O36388   6.140   9.696   1.609
12049WAT     H136389   6.075   9.750   1.664
12049WAT     H236390   6.199   9.757   1.557
12050WAT      O36391   4.176   0.720   3.831
12050WAT     H136392   4.164   0.646   3.897
12050WAT     H236393   4.119   0.798   3.857
12051WAT      O36394   2.298   5.839   0.975
12051WAT     H136395   2.388   5.813   1.009
12051WAT     H236396   2.249   5.758   0.945
12052WAT      O36397   3.970   6.466   0.279
12052WAT     H136398   3.874   6.494   0.284
12052WAT     H236399   3.988   6.429   0.188
12053WAT      O36400   4.307   3.126   8.585
12053WAT     H136401   4.344   3.132   8.678
12053WAT     H236402   4.210   3.104   8.590
12054WAT      O36403   7.310   9.548   2.406
12054WAT     H136404   7.346   9.507   2.490
12054WAT     H236405   7.374   9.530   2.331
12055WAT      O36406   2.753   7.131   4.098
12055WAT     H136407   2.839   7.170   4.132
12055WAT     H236408   2.702   7.091   4.174
12056WAT      O36409   7.096   1.124   5.319
12056WAT     H136410   7.173   1.084   5.369
12056WAT     H236411   7.112   1.116   5.221
12057WAT      O36412   4.819   1.988   5.372
12057WAT     H136413   4.860   2.052   5.437
12057WAT     H236414   4.720   1.983   5.389
12058WAT      O36415   7.728   7.385   0.005
12058WAT     H136416   7.692   7.291   0.009
12058WAT     H236417   7.666   7.442  -0.048
12059WAT      O36418   6.852   7.191   7.774
12059WAT     H136419   6.907   7.210   7.855
12059WAT     H236420   6.912   7.166   7.698
12060WAT      O36421   3.346   0.053   9.236
12060WAT     H136422   3.251   0.025   9.252
12060WAT     H236423   3.394  -0.018   9.186
12061WAT      O36424   2.065   8.172   4.430
12061WAT     H136425   2.127   8.220   4.493
12061WAT     H236426   2.027   8.092   4.477
12062WAT      O36427   7.854   8.241   3.591
12062WAT     H136428   7.826   8.154   3.553
12062WAT     H236429   7.782   8.309   3.577
12063WAT      O36430   6.307   6.911   2.581
12063WAT     H136431   6.303   6.842   2.653
12063WAT     H236432   6.400   6.915   2.543
12064WAT      O36433   6.700   1.776   7.185
12064WAT     H136434   6.722   1.799   7.280
12064WAT     H236435   6.676   1.679   7.178
12065WAT      O36436   7.607   2.893   1.948
12065WAT     H136437   7.698   2.932   1.937
12065WAT     H236438   7.614   2.806   1.997
12066WAT      O36439   7.942   2.915   1.200
12066WAT     H136440   7.956   2.838   1.137
12066WAT     H236441   7.970   3.000   1.156
12067WAT      O36442   0.617   5.071   1.501
12067WAT     H136443   0.603   5.039   1.407
12067WAT     H236444   0.546   5.032   1.560
12068WAT      O36445   3.697   6.337   4.734
12068WAT     H136446   3.713   6.299   4.643
12068WAT     H236447   3.781   6.332   4.788
12069WAT      O36448   3.767   1.242   1.071
12069WAT     H136449   3.743   1.229   1.167
12069WAT     H236450   3.734   1.165   1.017
12070WAT      O36451   3.418   5.523   9.296
12070WAT     H136452   3.430   5.426   9.275
12070WAT     H236453   3.399   5.534   9.394
12071WAT      O36454   8.424   8.796   1.724
12071WAT     H136455   8.343   8.826   1.775
12071WAT     H236456   8.431   8.847   1.639
12072WAT      O36457   3.697   4.760   6.094
12072WAT     H136458   3.768   4.810   6.044
12072WAT     H236459   3.618   4.821   6.108
12073WAT      O36460   0.322   7.727   0.941
12073WAT     H136461   0.280   7.817   0.928
12073WAT     H236462   0.270   7.675   1.009
12074WAT      O36463   0.404   1.618   8.382
12074WAT     H136464   0.478   1.571   8.334
12074WAT     H236465   0.317   1.573   8.363
12075WAT      O36466   6.636   2.614   7.127
12075WAT     H136467   6.579   2.661   7.195
12075WAT     H236468   6.730   2.612   7.159
12076WAT      O36469   9.655   0.057   4.961
12076WAT     H136470   9.608  -0.000   4.894
12076WAT     H236471   9.693  -0.002   5.033
12077WAT      O36472   0.093   6.824   2.337
12077WAT     H136473   0.080   6.922   2.353
12077WAT     H236474   0.154   6.811   2.259
12078WAT      O36475   1.834   6.106   7.146
12078WAT     H136476   1.756   6.134   7.201
12078WAT     H236477   1.837   6.006   7.141
12079WAT      O36478   6.727   6.336   4.547
12079WAT     H136479   6.682   6.252   4.517
12079WAT     H236480   6.720   6.405   4.476
12080WAT      O36481   1.050   1.393   1.831
12080WAT     H136482   1.014   1.400   1.737
12080WAT     H236483   1.033   1.480   1.878
12081WAT      O36484   7.690   2.847   5.768
12081WAT     H136485   7.787   2.828   5.749
12081WAT     H236486   7.652   2.773   5.823
12082WAT      O36487   3.076   2.832   6.453
12082WAT     H136488   3.095   2.740   6.488
12082WAT     H236489   3.046   2.826   6.358
12083WAT      O36490   1.096   2.978   5.975
12083WAT     H136491   1.093   3.070   6.015
12083WAT     H236492   1.053   2.913   6.038
12084WAT      O36493   5.505   2.490   0.760
12084WAT     H136494   5.478   2.530   0.848
12084WAT     H236495   5.542   2.399   0.776
12085WAT      O36496   6.953   5.601   6.686
12085WAT     H136497   7.044   5.641   6.683
12085WAT     H236498   6.890   5.657   6.632
12086WAT      O36499   5.799   4.538   6.921
12086WAT     H136500   5.863   4.547   6.845
12086WAT     H236501   5.705   4.541   6.886
12087WAT      O36502   2.435   2.943   0.535
12087WAT     H136503   2.354   2.887   0.551
12087WAT     H236504   2.449   2.953   0.437
12088WAT      O36505   8.024   6.665   3.772
12088WAT     H136506   7.947   6.726   3.789
12088WAT     H236507   8.092   6.712   3.716
12089WAT      O36508   5.246   6.547   5.076
12089WAT     H136509   5.329   6.492   5.063
12089WAT     H236510   5.222   6.592   4.990
12090WAT      O36511   6.481   4.608   4.153
12090WAT     H136512   6.426   4.599   4.069
12090WAT     H236513   6.524   4.698   4.155
12091WAT      O36514   4.905   1.877   0.632
12091WAT     H136515   4.964   1.846   0.558
12091WAT     H236516   4.888   1.801   0.695
12092WAT      O36517   9.291   6.659   9.047
12092WAT     H136518   9.344   6.616   8.973
12092WAT     H236519   9.209   6.604   9.065
12093WAT      O36520   5.292   4.839   8.560
12093WAT     H136521   5.289   4.935   8.586
12093WAT     H236522   5.375   4.797   8.596
12094WAT      O36523   3.469   5.749   4.178
12094WAT     H136524   3.470   5.693   4.260
12094WAT     H236525   3.529   5.828   4.190
12095WAT      O36526   4.923   0.290   7.756
12095WAT     H136527   4.988   0.355   7.794
12095WAT     H236528   4.936   0.285   7.657
12096WAT      O36529   0.520   0.377   8.919
12096WAT     H136530   0.522   0.475   8.899
12096WAT     H236531   0.436   0.338   8.882
12097WAT      O36532   7.836   3.872   8.358
12097WAT     H136533   7.861   3.828   8.445
12097WAT     H236534   7.763   3.819   8.315
12098WAT      O36535   5.648   0.247   8.515
12098WAT     H136536   5.699   0.295   8.443
12098WAT     H236537   5.553   0.276   8.513
12099WAT      O36538   7.014   1.488   8.484
12099WAT     H136539   6.997   1.400   8.440
12099WAT     H236540   7.078   1.541   8.428
12100WAT      O36541   8.622   9.102   2.277
12100WAT     H136542   8.579   9.035   2.338
12100WAT     H236543   8.594   9.084   2.183
12101WAT      O36544   2.823   9.092   8.976
12101WAT     H136545   2.814   9.065   9.072
12101WAT     H236546   2.825   9.191   8.970
12102WAT      O36547   5.530   6.006   7.968
12102WAT     H136548   5.600   5.936   7.982
12102WAT     H236549   5.569   6.096   7.990
12103WAT      O36550   4.185   5.577   1.364
12103WAT     H136551   4.093   5.593   1.329
12103WAT     H236552   4.249   5.566   1.288
12104WAT      O36553   9.213   7.908   3.023
12104WAT     H136554   9.264   7.988   2.992
12104WAT     H236555   9.276   7.837   3.053
12105WAT      O36556   8.203   4.780   6.663
12105WAT     H136557   8.222   4.846   6.590
12105WAT     H236558   8.288   4.758   6.710
12106WAT      O36559   5.042   9.632   4.419
12106WAT     H136560   4.993   9.602   4.501
12106WAT     H236561   4.977   9.644   4.344
12107WAT      O36562   5.403   5.128   3.602
12107WAT     H136563   5.416   5.109   3.700
12107WAT     H236564   5.314   5.094   3.574
12108WAT      O36565   9.115   2.391   7.538
12108WAT     H136566   9.139   2.488   7.535
12108WAT     H236567   9.199   2.336   7.533
12109WAT      O36568   5.760   1.605   4.744
12109WAT     H136569   5.669   1.627   4.709
12109WAT     H236570   5.758   1.516   4.789
12110WAT      O36571   6.404   9.399   0.188
12110WAT     H136572   6.466   9.337   0.140
12110WAT     H236573   6.310   9.372   0.170
12111WAT      O36574   2.670   1.796   2.234
12111WAT     H136575   2.740   1.726   2.246
12111WAT     H236576   2.695   1.855   2.157
12112WAT      O36577   6.535   7.603   6.635
12112WAT     H136578   6.541   7.563   6.726
12112WAT     H236579   6.459   7.668   6.632
12113WAT      O36580   8.344   5.103   4.429
12113WAT     H136581   8.421   5.052   4.466
12113WAT     H236582   8.376   5.166   4.359
12114WAT      O36583   4.962   3.570   9.202
12114WAT     H136584   4.891   3.538   9.264
12114WAT     H236585   5.052   3.548   9.240
12115WAT      O36586   7.187   6.272   1.995
12115WAT     H136587   7.267   6.270   2.055
12115WAT     H236588   7.163   6.179   1.968
12116WAT      O36589   5.087   6.147   2.482
12116WAT     H136590   5.127   6.203   2.409
12116WAT     H236591   5.010   6.196   2.523
12117WAT      O36592   4.995   8.202   8.474
12117WAT     H136593   5.018   8.129   8.409
12117WAT     H236594   4.926   8.169   8.538
12118WAT      O36595   8.682   3.034   9.555
12118WAT     H136596   8.599   3.035   9.500
12118WAT     H236597   8.743   3.108   9.525
12119WAT      O36598   4.966   0.172   4.697
12119WAT     H136599   4.946   0.260   4.654
12119WAT     H236600   5.010   0.112   4.630
12120WAT      O36601   5.680   0.361   7.147
12120WAT     H136602   5.720   0.445   7.110
12120WAT     H236603   5.606   0.331   7.087
12121WAT      O36604   9.289   3.545   1.232
12121WAT     H136605   9.382   3.520   1.260
12121WAT     H236606   9.245   3.597   1.304
12122WAT      O36607   5.577   3.118   3.189
12122WAT     H136608   5.659   3.076   3.148
12122WAT     H236609   5.553   3.069   3.273
12123WAT      O36610   5.091   7.516   0.582
12123WAT     H136611   5.111   7.421   0.607
12123WAT     H236612   4.994   7.535   0.602
12124WAT      O36613   3.421   3.822   3.536
12124WAT     H136614   3.328   3.790   3.516
12124WAT     H236615   3.416   3.913   3.577
12125WAT      O36616   0.245   0.858   7.365
12125WAT     H136617   0.209   0.945   7.398
12125WAT     H236618   0.169   0.794   7.350
12126WAT      O36619   2.785   4.307   7.936
12126WAT     H136620   2.855   4.276   8.000
12126WAT     H236621   2.812   4.281   7.843
12127WAT      O36622   9.567   6.710   2.201
12127WAT     H136623   9.491   6.668   2.250
12127WAT     H236624   9.615   6.773   2.262
12128WAT      O36625   5.673   8.382   7.224
12128WAT     H136626   5.627   8.468   7.245
12128WAT     H236627   5.681   8.327   7.308
12129WAT      O36628   4.398   9.181   3.304
12129WAT     H136629   4.426   9.253   3.367
12129WAT     H236630   4.334   9.119   3.349
12130WAT      O36631   9.584   3.578   1.879
12130WAT     H136632   9.642   3.659   1.890
12130WAT     H236633   9.630   3.498   1.917
12131WAT      O36634   6.837   2.983   6.780
12131WAT     H136635   6.801   2.906   6.831
12131WAT     H236636   6.915   2.953   6.724
12132WAT      O36637   4.170   0.022   7.407
12132WAT     H136638   4.137   0.077   7.484
12132WAT     H236639   4.267   0.042   7.393
12133WAT      O36640   0.764   4.099   2.695
12133WAT     H136641   0.827   4.170   2.663
12133WAT     H236642   0.781   4.014   2.645
12134WAT      O36643   9.052   8.879   1.189
12134WAT     H136644   9.051   8.977   1.167
12134WAT     H236645   8.979   8.833   1.138
12135WAT      O36646   0.631   1.732   3.111
12135WAT     H136647   0.533   1.751   3.102
12135WAT     H236648   0.683   1.813   3.085
12136WAT      O36649   8.048   8.459   3.633
12136WAT     H136650   8.030   8.375   3.582
12136WAT     H236651   8.143   8.459   3.665
12137WAT      O36652   6.824   7.656   1.553
12137WAT     H136653   6.763   7.629   1.479
12137WAT     H236654   6.904   7.703   1.516
12138WAT      O36655   9.684   6.445   7.267
12138WAT     H136656   9.726   6.354   7.266
12138WAT     H236657   9.755   6.514   7.284
12139WAT      O36658   0.398   1.715   3.528
12139WAT     H136659   0.419   1.786   3.461
12139WAT     H236660   0.378   1.758   3.616
12140WAT      O36661   2.077   0.745   6.733
12140WAT     H136662   2.150   0.798   6.689
12140WAT     H236663   2.010   0.717   6.664
12141WAT      O36664   1.711   5.403   0.705
12141WAT     H136665   1.795   5.426   0.656
12141WAT     H236666   1.653   5.345   0.647
12142WAT      O36667   6.330   1.902   5.137
12142WAT     H136668   6.402   1.965   5.166
12142WAT     H236669   6.250   1.955   5.107
12143WAT      O36670   4.092   8.161   1.061
12143WAT     H136671   4.116   8.170   1.158
12143WAT     H236672   4.001   8.199   1.046
12144WAT      O36673   2.876   0.753   8.669
12144WAT     H136674   2.830   0.730   8.754
12144WAT     H236675   2.853   0.846   8.642
12145WAT      O36676   1.419   5.891   8.794
12145WAT     H136677   1.376   5.974   8.828
12145WAT     H236678   1.376   5.864   8.708
12146WAT      O36679   3.980   3.364   1.943
12146WAT     H136680   3.930   3.420   2.009
12146WAT     H236681   3.915   3.321   1.880
12147WAT      O36682   7.648   5.199   8.611
12147WAT     H136683   7.613   5.130   8.675
12147WAT     H236684   7.572   5.236   8.558
12148WAT      O36685   2.602   9.740   6.085
12148WAT     H136686   2.582   9.835   6.109
12148WAT     H236687   2.694   9.717   6.115
12149WAT      O36688   9.763   3.620   6.927
12149WAT     H136689   9.698   3.655   6.994
12149WAT     H236690   9.715   3.590   6.845
12150WAT      O36691   1.951   3.781   3.788
12150WAT     H136692   1.890   3.710   3.822
12150WAT     H236693   1.949   3.860   3.850
12151WAT      O36694   7.374   5.843   7.286
12151WAT     H136695   7.396   5.913   7.354
12151WAT     H236696   7.452   5.831   7.225
12152WAT      O36697   2.595   0.734   5.465
12152WAT     H136698   2.506   0.770   5.490
12152WAT     H236699   2.649   0.807   5.422
12153WAT      O36700   5.020   3.134   2.159
12153WAT     H136701   5.048   3.136   2.255
12153WAT     H236702   4.955   3.208   2.142
12154WAT      O36703   5.702   1.199   6.414
12154WAT     H136704   5.678   1.290   6.450
12154WAT     H236705   5.625   1.137   6.428
12155WAT      O36706   3.036   5.173   0.515
12155WAT     H136707   2.978   5.215   0.445
12155WAT     H236708   3.074   5.087   0.480
12156WAT      O36709   6.568   9.694   2.759
12156WAT     H136710   6.618   9.775   2.791
12156WAT     H236711   6.521   9.651   2.836
12157WAT      O36712   8.426   0.137   4.648
12157WAT     H136713   8.472   0.224   4.633
12157WAT     H236714   8.493   0.063   4.649
12158WAT      O36715   5.611   2.191   4.812
12158WAT     H136716   5.660   2.278   4.809
12158WAT     H236717   5.514   2.207   4.832
12159WAT      O36718   9.574   7.126   2.769
12159WAT     H136719   9.560   7.040   2.817
12159WAT     H236720   9.628   7.188   2.827
12160WAT      O36721   2.865   4.362   6.558
12160WAT     H136722   2.911   4.350   6.646
12160WAT     H236723   2.784   4.304   6.554
12161WAT      O36724   9.775   2.835   7.301
12161WAT     H136725   9.748   2.803   7.211
12161WAT     H236726   9.738   2.775   7.371
12162WAT      O36727   4.481   6.739   2.840
12162WAT     H136728   4.568   6.782   2.815
12162WAT     H236729   4.408   6.777   2.784
12163WAT      O36730   3.903   7.677   8.975
12163WAT     H136731   3.997   7.698   9.003
12163WAT     H236732   3.866   7.605   9.034
12164WAT      O36733   3.647   4.035   7.056
12164WAT     H136734   3.563   4.025   7.110
12164WAT     H236735   3.723   4.058   7.117
12165WAT      O36736   0.293   9.690   5.179
12165WAT     H136737   0.250   9.780   5.189
12165WAT     H236738   0.228   9.619   5.206
12166WAT      O36739   3.649   3.573   6.861
12166WAT     H136740   3.718   3.503   6.843
12166WAT     H236741   3.692   3.662   6.868
12167WAT      O36742   5.966   3.171   4.782
12167WAT     H136743   5.958   3.264   4.819
12167WAT     H236744   6.006   3.112   4.852
12168WAT      O36745   7.645   2.062   9.813
12168WAT     H136746   7.720   2.126   9.801
12168WAT     H236747   7.599   2.079   9.900
12169WAT      O36748   8.071   4.716   9.391
12169WAT     H136749   8.123   4.797   9.419
12169WAT     H236750   7.975   4.741   9.381
12170WAT      O36751   2.304   3.781   5.240
12170WAT     H136752   2.392   3.733   5.243
12170WAT     H236753   2.230   3.714   5.235
12171WAT      O36754   8.842   6.995   4.828
12171WAT     H136755   8.884   6.923   4.772
12171WAT     H236756   8.751   7.016   4.793
12172WAT      O36757   9.820   4.054   5.345
12172WAT     H136758   9.839   4.038   5.441
12172WAT     H236759   9.796   4.150   5.332
12173WAT      O36760   1.659   1.623   9.792
12173WAT     H136761   1.689   1.697   9.733
12173WAT     H236762   1.636   1.659   9.882
12174WAT      O36763   1.446   2.001   5.034
12174WAT     H136764   1.385   1.938   5.082
12174WAT     H236765   1.418   2.008   4.938
12175WAT      O36766   7.456   8.706   3.879
12175WAT     H136767   7.414   8.731   3.792
12175WAT     H236768   7.436   8.610   3.900
12176WAT      O36769   4.550   6.060   6.531
12176WAT     H136770   4.610   6.037   6.607
12176WAT     H236771   4.455   6.046   6.558
12177WAT      O36772   8.145   9.188   3.659
12177WAT     H136773   8.047   9.201   3.644
12177WAT     H236774   8.159   9.115   3.726
12178WAT      O36775   5.477   9.783   9.079
12178WAT     H136776   5.388   9.824   9.099
12178WAT     H236777   5.483   9.760   8.982
12179WAT      O36778   0.025   7.162   6.812
12179WAT     H136779   0.123   7.167   6.827
12179WAT     H236780  -0.002   7.068   6.792
12180WAT      O36781   4.721   8.787   3.217
12180WAT     H136782   4.759   8.795   3.309
12180WAT     H236783   4.793   8.761   3.153
12181WAT      O36784   4.772   7.119   3.483
12181WAT     H136785   4.722   7.052   3.428
12181WAT     H236786   4.838   7.071   3.541
12182WAT      O36787   1.860   3.457   1.397
12182WAT     H136788   1.935   3.441   1.334
12182WAT     H236789   1.792   3.517   1.353
12183WAT      O36790   2.263   4.591   8.807
12183WAT     H136791   2.317   4.586   8.891
12183WAT     H236792   2.297   4.524   8.741
12184WAT      O36793   5.777   4.366   7.136
12184WAT     H136794   5.801   4.433   7.066
12184WAT     H236795   5.798   4.274   7.104
12185WAT      O36796   9.253   9.001   4.430
12185WAT     H136797   9.328   8.935   4.440
12185WAT     H236798   9.245   9.028   4.335
12186WAT      O36799   2.662   0.890   0.330
12186WAT     H136800   2.644   0.828   0.254
12186WAT     H236801   2.696   0.977   0.294
12187WAT      O36802   7.493   2.083   6.370
12187WAT     H136803   7.469   2.177   6.395
12187WAT     H236804   7.579   2.083   6.319
12188WAT      O36805   4.465   8.742   2.136
12188WAT     H136806   4.556   8.730   2.176
12188WAT     H236807   4.397   8.697   2.194
12189WAT      O36808   9.675   3.863   9.140
12189WAT     H136809   9.755   3.808   9.117
12189WAT     H236810   9.603   3.803   9.176
12190WAT      O36811   7.966   3.893   2.314
12190WAT     H136812   8.026   3.846   2.379
12190WAT     H236813   7.920   3.825   2.257
12191WAT      O36814   4.311   7.714   2.486
12191WAT     H136815   4.309   7.810   2.457
12191WAT     H236816   4.217   7.680   2.492
12192WAT      O36817   9.397   3.469   3.968
12192WAT     H136818   9.393   3.447   4.065
12192WAT     H236819   9.357   3.558   3.951
12193WAT      O36820   9.753   2.760   5.759
12193WAT     H136821   9.843   2.801   5.745
12193WAT     H236822   9.723   2.716   5.675
12194WAT      O36823   0.415   9.115   5.309
12194WAT     H136824   0.374   9.070   5.229
12194WAT     H236825   0.471   9.049   5.359
12195WAT      O36826   6.804   8.489   7.504
12195WAT     H136827   6.865   8.511   7.427
12195WAT     H236828   6.833   8.403   7.546
12196WAT      O36829   1.877   7.646   2.686
12196WAT     H136830   1.782   7.677   2.685
12196WAT     H236831   1.925   7.685   2.607
12197WAT      O36832   3.214   0.402   4.675
12197WAT     H136833   3.206   0.335   4.601
12197WAT     H236834   3.163   0.484   4.652
12198WAT      O36835   6.577   0.314   2.505
12198WAT     H136836   6.527   0.231   2.481
12198WAT     H236837   6.582   0.375   2.426
12199WAT      O36838   2.427   0.673   8.208
12199WAT     H136839   2.380   0.588   8.233
12199WAT     H236840   2.506   0.651   8.151
12200WAT      O36841   8.472   6.168   2.234
12200WAT     H136842   8.384   6.122   2.244
12200WAT     H236843   8.457   6.263   2.205
12201WAT      O36844   4.139   2.406   0.183
12201WAT     H136845   4.225   2.365   0.152
12201WAT     H236846   4.070   2.396   0.112
12202WAT      O36847   8.923   2.320   7.361
12202WAT     H136848   8.980   2.338   7.440
12202WAT     H236849   8.856   2.394   7.350
12203WAT      O36850   1.447   3.666   8.760
12203WAT     H136851   1.537   3.629   8.738
12203WAT     H236852   1.413   3.622   8.843
12204WAT      O36853   0.357   5.973   8.261
12204WAT     H136854   0.396   5.969   8.353
12204WAT     H236855   0.430   5.982   8.194
12205WAT      O36856   2.064   4.531   2.340
12205WAT     H136857   2.004   4.519   2.419
12205WAT     H236858   2.113   4.445   2.321
12206WAT      O36859   6.546   4.731   0.663
12206WAT     H136860   6.562   4.648   0.717
12206WAT     H236861   6.548   4.707   0.565
12207WAT      O36862   8.879   1.955   7.136
12207WAT     H136863   8.914   1.896   7.063
12207WAT     H236864   8.866   1.900   7.219
12208WAT      O36865   7.773   1.486   4.559
12208WAT     H136866   7.809   1.441   4.478
12208WAT     H236867   7.838   1.476   4.635
12209WAT      O36868   8.673   9.296   4.348
12209WAT     H136869   8.741   9.281   4.420
12209WAT     H236870   8.591   9.243   4.368
12210WAT      O36871   6.381   8.583   0.039
12210WAT     H136872   6.376   8.532   0.125
12210WAT     H236873   6.289   8.614   0.014
12211WAT      O36874   3.883   0.572   7.221
12211WAT     H136875   3.877   0.671   7.210
12211WAT     H236876   3.792   0.535   7.238
12212WAT      O36877   4.670   1.987   4.532
12212WAT     H136878   4.742   1.948   4.590
12212WAT     H236879   4.646   1.921   4.460
12213WAT      O36880   3.713   5.074   8.441
12213WAT     H136881   3.734   4.978   8.462
12213WAT     H236882   3.647   5.109   8.508
12214WAT      O36883   5.690   9.247   7.737
12214WAT     H136884   5.646   9.158   7.730
12214WAT     H236885   5.669   9.288   7.826
12215WAT      O36886   1.300   4.666   6.097
12215WAT     H136887   1.258   4.607   6.028
12215WAT     H236888   1.280   4.762   6.077
12216WAT      O36889   2.962   2.867   8.135
12216WAT     H136890   2.957   2.816   8.050
12216WAT     H236891   2.996   2.959   8.117
12217WAT      O36892   2.326   0.036   0.263
12217WAT     H136893   2.326   0.121   0.211
12217WAT     H236894   2.281   0.051   0.351
12218WAT      O36895   6.378   3.119   4.522
12218WAT     H136896   6.283   3.104   4.548
12218WAT     H236897   6.391   3.216   4.499
12219WAT      O36898   6.180   2.419   3.674
12219WAT     H136899   6.111   2.352   3.702
12219WAT     H236900   6.143   2.511   3.684
12220WAT      O36901   8.656   2.458   9.745
12220WAT     H136902   8.652   2.512   9.661
12220WAT     H236903   8.731   2.491   9.803
12221WAT      O36904   9.384   6.499   9.447
12221WAT     H136905   9.452   6.510   9.374
12221WAT     H236906   9.421   6.537   9.532
12222WAT      O36907   4.791   2.911   9.221
12222WAT     H136908   4.871   2.862   9.256
12222WAT     H236909   4.751   2.861   9.144
12223WAT      O36910   8.139   7.116   6.134
12223WAT     H136911   8.147   7.213   6.159
12223WAT     H236912   8.218   7.066   6.171
12224WAT      O36913   2.975   1.057   1.781
12224WAT     H136914   2.973   1.097   1.873
12224WAT     H236915   2.969   1.130   1.713
12225WAT      O36916   3.989   4.617   3.868
12225WAT     H136917   3.890   4.631   3.874
12225WAT     H236918   4.015   4.545   3.932
12226WAT      O36919   1.037   5.495   0.055
12226WAT     H136920   0.997   5.582   0.083
12226WAT     H236921   1.104   5.511  -0.018
12227WAT      O36922   1.939   2.919   6.107
12227WAT     H136923   1.922   2.882   6.015
12227WAT     H236924   2.011   2.867   6.151
12228WAT      O36925   9.113   3.808   0.262
12228WAT     H136926   9.090   3.886   0.321
12228WAT     H236927   9.051   3.732   0.281
12229WAT      O36928   2.212   9.559   8.856
12229WAT     H136929   2.244   9.653   8.848
12229WAT     H236930   2.286   9.497   8.828
12230WAT      O36931   5.929   7.116   3.178
12230WAT     H136932   5.972   7.080   3.261
12230WAT     H236933   5.978   7.198   3.148
12231WAT      O36934   4.503   2.185   7.469
12231WAT     H136935   4.592   2.155   7.435
12231WAT     H236936   4.437   2.188   7.394
12232WAT      O36937   1.049   1.891   1.359
12232WAT     H136938   0.981   1.950   1.402
12232WAT     H236939   1.035   1.797   1.389
12233WAT      O36940   2.815   3.959   4.629
12233WAT     H136941   2.810   3.859   4.625
12233WAT     H236942   2.907   3.989   4.606
12234WAT      O36943   6.227   4.141   1.093
12234WAT     H136944   6.240   4.042   1.086
12234WAT     H236945   6.317   4.185   1.096
12235WAT      O36946   8.229   3.349   6.462
12235WAT     H136947   8.147   3.302   6.428
12235WAT     H236948   8.310   3.309   6.420
12236WAT      O36949   5.674   2.370   3.111
12236WAT     H136950   5.623   2.418   3.041
12236WAT     H236951   5.691   2.276   3.082
12237WAT      O36952   2.510   3.065   6.602
12237WAT     H136953   2.604   3.034   6.589
12237WAT     H236954   2.503   3.116   6.688
12238WAT      O36955   5.301   1.432   7.543
12238WAT     H136956   5.282   1.476   7.455
12238WAT     H236957   5.222   1.376   7.569
12239WAT      O36958   5.868   8.393   4.059
12239WAT     H136959   5.866   8.404   4.159
12239WAT     H236960   5.816   8.311   4.034
12240WAT      O36961   6.824   5.141   9.404
12240WAT     H136962   6.793   5.069   9.343
12240WAT     H236963   6.755   5.213   9.409
12241WAT      O36964   5.706   5.954   1.532
12241WAT     H136965   5.697   5.957   1.432
12241WAT     H236966   5.661   6.034   1.572
12242WAT      O36967   2.066   4.634   5.576
12242WAT     H136968   2.132   4.680   5.517
12242WAT     H236969   2.106   4.549   5.611
12243WAT      O36970   4.853   9.197   2.522
12243WAT     H136971   4.776   9.139   2.495
12243WAT     H236972   4.840   9.290   2.488
12244WAT      O36973   3.383   4.621   0.396
12244WAT     H136974   3.336   4.695   0.350
12244WAT     H236975   3.464   4.594   0.343
12245WAT      O36976   3.439   5.895   6.317
12245WAT     H136977   3.441   5.801   6.352
12245WAT     H236978   3.526   5.940   6.337
12246WAT      O36979   0.530   9.722   8.153
12246WAT     H136980   0.499   9.813   8.181
12246WAT     H236981   0.589   9.730   8.073
12247WAT      O36982   1.631   8.717   1.953
12247WAT     H136983   1.590   8.768   2.029
12247WAT     H236984   1.698   8.652   1.989
12248WAT      O36985   4.957   4.089   8.854
12248WAT     H136986   4.875   4.033   8.865
12248WAT     H236987   5.035   4.031   8.831
12249WAT      O36988   2.824   0.779   2.875
12249WAT     H136989   2.846   0.854   2.812
12249WAT     H236990   2.852   0.692   2.834
12250WAT      O36991   9.136   5.097   6.468
12250WAT     H136992   9.172   5.018   6.418
12250WAT     H236993   9.202   5.126   6.537
12251WAT      O36994   4.821   8.489   1.573
12251WAT     H136995   4.752   8.532   1.515
12251WAT     H236996   4.911   8.500   1.532
12252WAT      O36997   5.290   8.593   0.421
12252WAT     H136998   5.226   8.665   0.394
12252WAT     H236999   5.254   8.545   0.501
12253WAT      O37000   8.985   3.256   1.415
12253WAT     H137001   8.999   3.329   1.348
12253WAT     H237002   8.982   3.294   1.507
12254WAT      O37003   6.927   7.046   4.779
12254WAT     H137004   6.913   7.130   4.830
12254WAT     H237005   7.024   7.020   4.783
12255WAT      O37006   5.657   5.651   2.479
12255WAT     H137007   5.568   5.684   2.447
12255WAT     H237008   5.730   5.697   2.428
12256WAT      O37009   8.100   6.377   7.187
12256WAT     H137010   8.120   6.441   7.113
12256WAT     H237011   8.031   6.417   7.248
12257WAT      O37012   4.300   1.739   2.836
12257WAT     H137013   4.353   1.671   2.785
12257WAT     H237014   4.215   1.758   2.788
12258WAT      O37015   4.228   0.878   9.179
12258WAT     H137016   4.242   0.803   9.245
12258WAT     H237017   4.167   0.847   9.107
12259WAT      O37018   2.467   4.216   4.296
12259WAT     H137019   2.541   4.178   4.353
12259WAT     H237020   2.380   4.208   4.345
12260WAT      O37021   8.623   7.422   2.743
12260WAT     H137022   8.719   7.396   2.733
12260WAT     H237023   8.616   7.513   2.783
12261WAT      O37024   5.883   6.478   4.899
12261WAT     H137025   5.888   6.526   4.986
12261WAT     H237026   5.788   6.478   4.866
12262WAT      O37027   0.914   4.393   1.930
12262WAT     H137028   0.986   4.462   1.922
12262WAT     H237029   0.914   4.335   1.849
12263WAT      O37030   0.549   9.121   4.211
12263WAT     H137031   0.622   9.120   4.143
12263WAT     H237032   0.543   9.032   4.256
12264WAT      O37033   6.696   2.413   2.964
12264WAT     H137034   6.739   2.502   2.978
12264WAT     H237035   6.762   2.350   2.923
12265WAT      O37036   5.297   0.454   6.632
12265WAT     H137037   5.280   0.437   6.729
12265WAT     H237038   5.233   0.400   6.577
12266WAT      O37039   0.150   1.960   5.251
12266WAT     H137040   0.219   2.031   5.238
12266WAT     H237041   0.123   1.957   5.347
12267WAT      O37042   1.775   8.624   5.996
12267WAT     H137043   1.860   8.580   6.026
12267WAT     H237044   1.797   8.708   5.946
12268WAT      O37045   3.414   7.162   3.595
12268WAT     H137046   3.396   7.080   3.649
12268WAT     H237047   3.423   7.137   3.499
12269WAT      O37048   0.967   8.878   0.739
12269WAT     H137049   0.975   8.865   0.838
12269WAT     H237050   0.892   8.941   0.719
12270WAT      O37051   0.067   9.162   1.031
12270WAT     H137052   0.137   9.187   1.098
12270WAT     H237053   0.000   9.101   1.075
12271WAT      O37054   9.348   7.212   8.534
12271WAT     H137055   9.437   7.235   8.573
12271WAT     H237056   9.359   7.183   8.439
12272WAT      O37057   1.482   1.190   6.743
12272WAT     H137058   1.570   1.233   6.721
12272WAT     H237059   1.437   1.242   6.816
12273WAT      O37060   8.943   3.753   3.543
12273WAT     H137061   8.870   3.781   3.480
12273WAT     H237062   8.903   3.708   3.623
12274WAT      O37063   7.332   6.157   7.857
12274WAT     H137064   7.344   6.256   7.855
12274WAT     H237065   7.413   6.114   7.896
12275WAT      O37066   9.680   8.808   0.351
12275WAT     H137067   9.727   8.778   0.433
12275WAT     H237068   9.700   8.745   0.276
12276WAT      O37069   0.280   2.284   4.153
12276WAT     H137070   0.331   2.215   4.204
12276WAT     H237071   0.182   2.263   4.158
12277WAT      O37072   3.342   6.942   3.808
12277WAT     H137073   3.259   6.916   3.857
12277WAT     H237074   3.347   6.891   3.722
12278WAT      O37075   8.801   8.702   2.057
12278WAT     H137076   8.718   8.715   2.003
12278WAT     H237077   8.786   8.629   2.125
12279WAT      O37078   2.002   5.625   7.543
12279WAT     H137079   1.976   5.699   7.481
12279WAT     H237080   1.932   5.614   7.613
12280WAT      O37081   9.717   7.640   4.518
12280WAT     H137082   9.696   7.557   4.466
12280WAT     H237083   9.688   7.720   4.466
12281WAT      O37084   1.344   8.929   6.567
12281WAT     H137085   1.362   8.997   6.638
12281WAT     H237086   1.430   8.903   6.524
12282WAT      O37087   6.239   9.439   7.033
12282WAT     H137088   6.274   9.531   7.017
12282WAT     H237089   6.222   9.426   7.131
12283WAT      O37090   5.487   0.064   3.509
12283WAT     H137091   5.428   0.086   3.586
12283WAT     H237092   5.431   0.025   3.435
12284WAT      O37093   9.114   1.698   4.672
12284WAT     H137094   9.147   1.678   4.580
12284WAT     H237095   9.016   1.679   4.677
12285WAT      O37096   6.583   0.966   6.623
12285WAT     H137097   6.671   0.923   6.642
12285WAT     H237098   6.520   0.897   6.585
12286WAT      O37099   7.482   4.071   0.341
12286WAT     H137100   7.428   4.012   0.401
12286WAT     H237101   7.548   4.015   0.291
12287WAT      O37102   4.531   8.518   8.645
12287WAT     H137103   4.625   8.486   8.629
12287WAT     H237104   4.530   8.618   8.646
12288WAT      O37105   6.430   1.395   0.219
12288WAT     H137106   6.357   1.372   0.155
12288WAT     H237107   6.517   1.402   0.169
12289WAT      O37108   8.481   3.315   9.022
12289WAT     H137109   8.502   3.217   9.017
12289WAT     H237110   8.420   3.340   8.947
12290WAT      O37111   9.653   0.862   7.985
12290WAT     H137112   9.636   0.937   8.049
12290WAT     H237113   9.749   0.860   7.960
12291WAT      O37114   2.517   7.455   6.441
12291WAT     H137115   2.537   7.445   6.343
12291WAT     H237116   2.558   7.540   6.474
12292WAT      O37117   4.884   2.200   2.016
12292WAT     H137118   4.852   2.106   2.030
12292WAT     H237119   4.981   2.198   1.991
12293WAT      O37120   7.106   5.209   9.421
12293WAT     H137121   7.008   5.203   9.437
12293WAT     H237122   7.123   5.225   9.324
12294WAT      O37123   1.822   3.140   7.231
12294WAT     H137124   1.881   3.100   7.301
12294WAT     H237125   1.783   3.067   7.175
12295WAT      O37126   1.566   1.220   6.025
12295WAT     H137127   1.630   1.145   6.040
12295WAT     H237128   1.518   1.207   5.939
12296WAT      O37129   5.723   8.055   5.902
12296WAT     H137130   5.809   8.018   5.866
12296WAT     H237131   5.713   8.150   5.872
12297WAT      O37132   3.726   1.850   4.238
12297WAT     H137133   3.668   1.931   4.233
12297WAT     H237134   3.685   1.777   4.183
12298WAT      O37135   9.894   2.157   2.902
12298WAT     H137136   9.816   2.109   2.944
12298WAT     H237137   9.868   2.189   2.811
12299WAT      O37138   7.904   8.059   1.356
12299WAT     H137139   7.879   8.034   1.449
12299WAT     H237140   7.875   7.987   1.293
12300WAT      O37141   7.365   4.676   1.929
12300WAT     H137142   7.290   4.659   1.865
12300WAT     H237143   7.447   4.701   1.878
12301WAT      O37144   2.581   1.326   9.197
12301WAT     H137145   2.638   1.408   9.197
12301WAT     H237146   2.489   1.349   9.228
12302WAT      O37147   8.692   4.279   4.500
12302WAT     H137148   8.726   4.309   4.411
12302WAT     H237149   8.621   4.342   4.531
12303WAT      O37150   9.697   7.029   6.351
12303WAT     H137151   9.647   6.946   6.375
12303WAT     H237152   9.640   7.087   6.293
12304WAT      O37153   1.650   2.754   1.307
12304WAT     H137154   1.725   2.694   1.276
12304WAT     H237155   1.562   2.711   1.286
12305WAT      O37156   5.285   5.456   3.944
12305WAT     H137157   5.345   5.481   3.868
12305WAT     H237158   5.253   5.362   3.933
12306WAT      O37159   2.716   8.969   3.764
12306WAT     H137160   2.771   8.945   3.684
12306WAT     H237161   2.622   8.988   3.736
12307WAT      O37162   5.171   7.514   8.868
12307WAT     H137163   5.103   7.547   8.933
12307WAT     H237164   5.252   7.572   8.872
12308WAT      O37165   4.075   6.266   9.517
12308WAT     H137166   4.096   6.190   9.455
12308WAT     H237167   4.096   6.353   9.471
12309WAT      O37168   6.288   9.093   1.044
12309WAT     H137169   6.190   9.099   1.025
12309WAT     H237170   6.303   9.043   1.129
12310WAT      O37171   9.515   0.608   6.183
12310WAT     H137172   9.550   0.697   6.155
12310WAT     H237173   9.558   0.581   6.269
12311WAT      O37174   0.460   0.748   4.071
12311WAT     H137175   0.534   0.808   4.101
12311WAT     H237176   0.387   0.747   4.139
12312WAT      O37177   7.607   6.848   5.790
12312WAT     H137178   7.534   6.834   5.857
12312WAT     H237179   7.610   6.770   5.728
12313WAT      O37180   9.838   1.319   4.482
12313WAT     H137181   9.749   1.350   4.515
12313WAT     H237182   9.894   1.398   4.458
12314WAT      O37183   6.447   0.950   6.861
12314WAT     H137184   6.446   1.026   6.926
12314WAT     H237185   6.510   0.972   6.786
12315WAT      O37186   7.043   6.562   7.552
12315WAT     H137187   6.985   6.552   7.633
12315WAT     H237188   7.007   6.505   7.478
12316WAT      O37189   2.184   1.975   1.772
12316WAT     H137190   2.091   2.008   1.784
12316WAT     H237191   2.211   1.920   1.851
12317WAT      O37192   9.675   2.987   3.342
12317WAT     H137193   9.665   2.887   3.343
12317WAT     H237194   9.768   3.011   3.371
12318WAT      O37195   7.398   5.201   5.445
12318WAT     H137196   7.396   5.102   5.456
12318WAT     H237197   7.490   5.235   5.462
12319WAT      O37198   4.846   8.881   5.536
12319WAT     H137199   4.845   8.956   5.470
12319WAT     H237200   4.788   8.806   5.503
12320WAT      O37201   1.374   8.258   4.552
12320WAT     H137202   1.435   8.325   4.596
12320WAT     H237203   1.284   8.299   4.539
12321WAT      O37204   5.848   9.546   3.096
12321WAT     H137205   5.921   9.490   3.134
12321WAT     H237206   5.844   9.533   2.997
12322WAT      O37207   4.307   7.739   4.438
12322WAT     H137208   4.369   7.776   4.368
12322WAT     H237209   4.291   7.808   4.508
12323WAT      O37210   9.380   8.640   1.878
12323WAT     H137211   9.411   8.627   1.973
12323WAT     H237212   9.307   8.708   1.877
12324WAT      O37213   0.817   5.689   8.060
12324WAT     H137214   0.874   5.612   8.032
12324WAT     H237215   0.757   5.660   8.135
12325WAT      O37216   6.572   1.762   1.873
12325WAT     H137217   6.493   1.807   1.832
12325WAT     H237218   6.656   1.807   1.843
12326WAT      O37219   3.111   8.287   9.225
12326WAT     H137220   3.167   8.260   9.304
12326WAT     H237221   3.147   8.372   9.186
12327WAT      O37222   2.429   4.542   6.713
12327WAT     H137223   2.384   4.453   6.726
12327WAT     H237224   2.367   4.603   6.664
12328WAT      O37225   0.404   1.899   8.387
12328WAT     H137226   0.400   1.800   8.401
12328WAT     H237227   0.348   1.923   8.307
12329WAT      O37228   7.557   6.393   1.025
12329WAT     H137229   7.462   6.365   1.011
12329WAT     H237230   7.563   6.493   1.026
12330WAT      O37231   8.117   1.454   9.460
12330WAT     H137232   8.165   1.487   9.541
12330WAT     H237233   8.081   1.531   9.408
12331WAT      O37234   8.759   8.581   7.989
12331WAT     H137235   8.797   8.519   8.057
12331WAT     H237236   8.715   8.528   7.917
12332WAT      O37237   6.382   9.180   6.806
12332WAT     H137238   6.436   9.152   6.727
12332WAT     H237239   6.411   9.271   6.837
12333WAT      O37240   3.315   7.619   5.229
12333WAT     H137241   3.322   7.630   5.328
12333WAT     H237242   3.289   7.524   5.208
12334WAT      O37243   1.475   6.909   1.261
12334WAT     H137244   1.514   6.892   1.170
12334WAT     H237245   1.387   6.955   1.252
12335WAT      O37246   7.863   4.592   1.317
12335WAT     H137247   7.962   4.580   1.321
12335WAT     H237248   7.839   4.654   1.242
12336WAT      O37249   7.756   5.571   9.872
12336WAT     H137250   7.820   5.581   9.796
12336WAT     H237251   7.721   5.478   9.875
12337WAT      O37252   8.450   0.140   7.833
12337WAT     H137253   8.517   0.170   7.901
12337WAT     H237254   8.369   0.199   7.837
12338WAT      O37255   5.542   1.716   8.926
12338WAT     H137256   5.515   1.812   8.931
12338WAT     H237257   5.624   1.702   8.982
12339WAT      O37258   6.298   3.783   4.439
12339WAT     H137259   6.298   3.730   4.523
12339WAT     H237260   6.295   3.880   4.460
12340WAT      O37261   0.542   3.022   3.771
12340WAT     H137262   0.533   2.924   3.791
12340WAT     H237263   0.637   3.042   3.746
12341WAT      O37264   6.664   8.439   2.552
12341WAT     H137265   6.731   8.509   2.524
12341WAT     H237266   6.691   8.400   2.640
12342WAT      O37267   4.577   3.365   6.240
12342WAT     H137268   4.589   3.435   6.170
12342WAT     H237269   4.662   3.356   6.293
12343WAT      O37270   5.279   3.076   6.807
12343WAT     H137271   5.367   3.032   6.789
12343WAT     H237272   5.213   3.007   6.837
12344WAT      O37273   5.918   7.682   1.060
12344WAT     H137274   5.853   7.623   1.108
12344WAT     H237275   5.993   7.705   1.122
12345WAT      O37276   6.186   6.726   5.466
12345WAT     H137277   6.257   6.657   5.451
12345WAT     H237278   6.150   6.716   5.559
12346WAT      O37279   0.859   1.485   0.109
12346WAT     H137280   0.914   1.401   0.109
12346WAT     H237281   0.777   1.472   0.163
12347WAT      O37282   6.241   7.424   5.533
12347WAT     H137283   6.290   7.338   5.541
12347WAT     H237284   6.177   7.419   5.456
12348WAT      O37285   0.525   8.610   8.552
12348WAT     H137286   0.538   8.579   8.646
12348WAT     H237287   0.614   8.630   8.510
12349WAT      O37288   0.930   9.778   1.511
12349WAT     H137289   0.991   9.786   1.590
12349WAT     H237290   0.875   9.695   1.521
12350WAT      O37291   9.312   1.289   8.370
12350WAT     H137292   9.311   1.189   8.368
12350WAT     H237293   9.245   1.324   8.305
12351WAT      O37294   5.233   6.614   4.806
12351WAT     H137295   5.218   6.538   4.742
12351WAT     H237296   5.314   6.666   4.778
12352WAT      O37297   3.777   9.802   8.531
12352WAT     H137298   3.716   9.833   8.458
12352WAT     H237299   3.868   9.842   8.518
12353WAT      O37300   9.276   1.032   9.891
12353WAT     H137301   9.336   1.105   9.858
12353WAT     H237302   9.251   0.973   9.815
12354WAT      O37303   9.197   8.905   7.274
12354WAT     H137304   9.154   8.962   7.344
12354WAT     H237305   9.295   8.896   7.294
12355WAT      O37306   7.076   4.327   9.308
12355WAT     H137307   7.070   4.316   9.407
12355WAT     H237308   7.096   4.239   9.265
12356WAT      O37309   3.636   4.650   7.534
12356WAT     H137310   3.670   4.620   7.624
12356WAT     H237311   3.679   4.737   7.510
12357WAT      O37312   2.229   5.602   0.878
12357WAT     H137313   2.317   5.558   0.864
12357WAT     H237314   2.155   5.541   0.850
12358WAT      O37315   8.349   6.803   9.354
12358WAT     H137316   8.277   6.804   9.285
12358WAT     H237317   8.376   6.709   9.374
12359WAT      O37318   5.041   5.357   8.940
12359WAT     H137319   5.057   5.336   8.843
12359WAT     H237320   5.125   5.342   8.992
12360WAT      O37321   4.950   1.466   4.112
12360WAT     H137322   5.013   1.462   4.035
12360WAT     H237323   4.925   1.561   4.131
12361WAT      O37324   3.500   7.184   1.565
12361WAT     H137325   3.555   7.265   1.545
12361WAT     H237326   3.558   7.115   1.608
12362WAT      O37327   0.296   6.233   9.530
12362WAT     H137328   0.367   6.255   9.596
12362WAT     H237329   0.243   6.154   9.562
12363WAT      O37330   0.352   9.755   2.671
12363WAT     H137331   0.259   9.725   2.648
12363WAT     H237332   0.380   9.826   2.606
12364WAT      O37333   6.666   0.237   4.434
12364WAT     H137334   6.629   0.233   4.527
12364WAT     H237335   6.682   0.144   4.400
12365WAT      O37336   3.539   5.387   0.379
12365WAT     H137337   3.505   5.295   0.395
12365WAT     H237338   3.493   5.427   0.300
12366WAT      O37339   2.466   0.221   0.042
12366WAT     H137340   2.423   0.172  -0.035
12366WAT     H237341   2.523   0.158   0.094
12367WAT      O37342   8.329   0.084   5.349
12367WAT     H137343   8.232   0.069   5.370
12367WAT     H237344   8.376   0.117   5.431
12368WAT      O37345   1.091   0.316   2.089
12368WAT     H137346   1.037   0.247   2.041
12368WAT     H237347   1.184   0.317   2.053
12369WAT      O37348   3.016   1.032   3.859
12369WAT     H137349   3.089   1.020   3.927
12369WAT     H237350   3.016   1.126   3.827
12370WAT      O37351   0.780   8.519   2.193
12370WAT     H137352   0.769   8.564   2.104
12370WAT     H237353   0.696   8.527   2.246
12371WAT      O37354   2.551   6.626   5.843
12371WAT     H137355   2.578   6.601   5.750
12371WAT     H237356   2.598   6.566   5.908
12372WAT      O37357   9.482   5.620   7.187
12372WAT     H137358   9.558   5.684   7.173
12372WAT     H237359   9.519   5.529   7.208
12373WAT      O37360   1.594   8.623   1.289
12373WAT     H137361   1.515   8.644   1.346
12373WAT     H237362   1.593   8.683   1.208
12374WAT      O37363   2.662   2.447   5.583
12374WAT     H137364   2.621   2.357   5.598
12374WAT     H237365   2.631   2.483   5.495
12375WAT      O37366   5.557   0.968   1.482
12375WAT     H137367   5.461   0.990   1.466
12375WAT     H237368   5.563   0.882   1.533
12376WAT      O37369   1.459   0.874   8.657
12376WAT     H137370   1.446   0.821   8.573
12376WAT     H237371   1.533   0.834   8.710
12377WAT      O37372   1.896   0.244   3.298
12377WAT     H137373   1.984   0.217   3.259
12377WAT     H237374   1.829   0.170   3.283
12378WAT      O37375   8.565   8.536   9.606
12378WAT     H137376   8.469   8.516   9.627
12378WAT     H237377   8.572   8.572   9.513
12379WAT      O37378   0.798   3.800   9.249
12379WAT     H137379   0.770   3.869   9.316
12379WAT     H237380   0.795   3.840   9.157
12380WAT      O37381   2.614   1.634   4.760
12380WAT     H137382   2.615   1.598   4.667
12380WAT     H237383   2.540   1.592   4.812
12381WAT      O37384   1.002   5.427   6.663
12381WAT     H137385   0.985   5.525   6.674
12381WAT     H237386   1.057   5.394   6.740
12382WAT      O37387   4.979   3.484   8.939
12382WAT     H137388   4.962   3.547   8.863
12382WAT     H237389   4.970   3.533   9.026
12383WAT      O37390   3.693   6.049   7.551
12383WAT     H137391   3.611   6.043   7.495
12383WAT     H237392   3.684   6.126   7.614
12384WAT      O37393   9.642   4.511   3.052
12384WAT     H137394   9.628   4.444   2.980
12384WAT     H237395   9.697   4.470   3.125
12385WAT      O37396   2.896   0.164   4.654
12385WAT     H137397   2.930   0.213   4.574
12385WAT     H237398   2.956   0.087   4.676
12386WAT      O37399   8.453   8.760   2.166
12386WAT     H137400   8.396   8.836   2.197
12386WAT     H237401   8.509   8.727   2.242
12387WAT      O37402   0.842   5.852   0.740
12387WAT     H137403   0.771   5.858   0.810
12387WAT     H237404   0.842   5.936   0.685
12388WAT      O37405   7.323   2.135   4.264
12388WAT     H137406   7.276   2.221   4.244
12388WAT     H237407   7.317   2.117   4.362
12389WAT      O37408   7.495   4.586   0.920
12389WAT     H137409   7.457   4.679   0.924
12389WAT     H237410   7.420   4.521   0.907
12390WAT      O37411   9.437   8.516   8.494
12390WAT     H137412   9.355   8.527   8.437
12390WAT     H237413   9.481   8.429   8.473
12391WAT      O37414   0.171   7.948   0.900
12391WAT     H137415   0.110   7.923   0.825
12391WAT     H237416   0.118   7.983   0.977
12392WAT      O37417   4.622   9.479   4.929
12392WAT     H137418   4.675   9.563   4.934
12392WAT     H237419   4.532   9.499   4.890
12393WAT      O37420   2.974   2.925   4.471
12393WAT     H137421   2.878   2.931   4.496
12393WAT     H237422   2.982   2.913   4.372
12394WAT      O37423   5.862   4.750   7.058
12394WAT     H137424   5.823   4.675   7.004
12394WAT     H237425   5.806   4.766   7.139
12395WAT      O37426   3.853   3.988   2.792
12395WAT     H137427   3.819   4.073   2.750
12395WAT     H237428   3.883   3.925   2.720
12396WAT      O37429   4.496   2.189   8.559
12396WAT     H137430   4.446   2.269   8.589
12396WAT     H237431   4.574   2.217   8.502
12397WAT      O37432   6.300   2.248   6.172
12397WAT     H137433   6.336   2.338   6.148
12397WAT     H237434   6.326   2.225   6.266
12398WAT      O37435   6.673   8.376   5.722
12398WAT     H137436   6.755   8.335   5.681
12398WAT     H237437   6.609   8.403   5.651
12399WAT      O37438   9.051   1.292   9.877
12399WAT     H137439   9.120   1.364   9.891
12399WAT     H237440   8.967   1.316   9.926
12400WAT      O37441   9.264   7.255   0.934
12400WAT     H137442   9.289   7.328   0.998
12400WAT     H237443   9.337   7.186   0.932
12401WAT      O37444   0.635   9.593   9.602
12401WAT     H137445   0.718   9.628   9.558
12401WAT     H237446   0.579   9.670   9.633
12402WAT      O37447   8.097   0.167   1.575
12402WAT     H137448   8.179   0.141   1.625
12402WAT     H237449   8.108   0.260   1.540
12403WAT      O37450   6.802   3.713   3.715
12403WAT     H137451   6.800   3.771   3.633
12403WAT     H237452   6.735   3.640   3.706
12404WAT      O37453   2.531   2.907   8.500
12404WAT     H137454   2.456   2.937   8.441
12404WAT     H237455   2.499   2.834   8.560
12405WAT      O37456   9.123   5.243   3.260
12405WAT     H137457   9.059   5.289   3.198
12405WAT     H237458   9.130   5.293   3.346
12406WAT      O37459   7.809   4.878   5.860
12406WAT     H137460   7.793   4.920   5.950
12406WAT     H237461   7.762   4.790   5.855
12407WAT      O37462   3.853   1.623   0.813
12407WAT     H137463   3.800   1.691   0.863
12407WAT     H237464   3.944   1.615   0.855
12408WAT      O37465   5.302   6.623   3.484
12408WAT     H137466   5.271   6.529   3.501
12408WAT     H237467   5.286   6.647   3.389
12409WAT      O37468   0.147   5.462   3.166
12409WAT     H137469   0.112   5.391   3.106
12409WAT     H237470   0.236   5.434   3.203
12410WAT      O37471   4.428   2.134   6.429
12410WAT     H137472   4.504   2.082   6.392
12410WAT     H237473   4.390   2.194   6.358
12411WAT      O37474   1.910   0.469   1.722
12411WAT     H137475   1.876   0.443   1.632
12411WAT     H237476   2.005   0.497   1.715
12412WAT      O37477   6.310   4.435   0.776
12412WAT     H137478   6.307   4.419   0.677
12412WAT     H237479   6.389   4.387   0.815
12413WAT      O37480   6.822   9.461   8.554
12413WAT     H137481   6.724   9.479   8.540
12413WAT     H237482   6.866   9.448   8.465
12414WAT      O37483   1.981   1.235   0.185
12414WAT     H137484   1.946   1.142   0.196
12414WAT     H237485   2.081   1.233   0.183
12415WAT      O37486   8.156   6.654   4.997
12415WAT     H137487   8.204   6.685   4.915
12415WAT     H237488   8.184   6.560   5.018
12416WAT      O37489   2.662   9.677   8.306
12416WAT     H137490   2.564   9.666   8.325
12416WAT     H237491   2.709   9.589   8.320
12417WAT      O37492   4.146   3.747   4.546
12417WAT     H137493   4.069   3.747   4.482
12417WAT     H237494   4.215   3.682   4.515
12418WAT      O37495   1.459   3.055   6.822
12418WAT     H137496   1.440   3.069   6.919
12418WAT     H237497   1.377   3.022   6.776
12419WAT      O37498   4.533   6.633   1.697
12419WAT     H137499   4.439   6.653   1.724
12419WAT     H237500   4.573   6.713   1.650
12420WAT      O37501   2.970   3.316   6.052
12420WAT     H137502   2.887   3.359   6.017
12420WAT     H237503   3.036   3.386   6.078
12421WAT      O37504   0.479   5.691   7.160
12421WAT     H137505   0.495   5.594   7.142
12421WAT     H237506   0.402   5.723   7.105
12422WAT      O37507   1.878   8.278   1.782
12422WAT     H137508   1.977   8.281   1.796
12422WAT     H237509   1.853   8.191   1.742
12423WAT      O37510   3.784   7.448   6.608
12423WAT     H137511   3.822   7.512   6.675
12423WAT     H237512   3.691   7.423   6.635
12424WAT      O37513   5.295   0.809   7.429
12424WAT     H137514   5.354   0.888   7.446
12424WAT     H237515   5.200   0.834   7.448
12425WAT      O37516   0.717   7.440   8.475
12425WAT     H137517   0.683   7.346   8.473
12425WAT     H237518   0.804   7.443   8.524
12426WAT      O37519   1.159   3.841   0.563
12426WAT     H137520   1.137   3.877   0.472
12426WAT     H237521   1.132   3.745   0.568
12427WAT      O37522   2.218   2.431   4.790
12427WAT     H137523   2.173   2.354   4.836
12427WAT     H237524   2.257   2.400   4.703
12428WAT      O37525   6.882   6.526   7.097
12428WAT     H137526   6.900   6.551   7.192
12428WAT     H237527   6.941   6.450   7.070
12429WAT      O37528   4.552   7.311   5.497
12429WAT     H137529   4.541   7.314   5.397
12429WAT     H237530   4.519   7.223   5.531
12430WAT      O37531   2.934   2.000   1.362
12430WAT     H137532   2.860   1.988   1.429
12430WAT     H237533   2.930   2.093   1.325
12431WAT      O37534   8.180   8.898   1.769
12431WAT     H137535   8.197   8.959   1.692
12431WAT     H237536   8.091   8.854   1.757
12432WAT      O37537   1.800   6.282   3.564
12432WAT     H137538   1.714   6.332   3.571
12432WAT     H237539   1.835   6.287   3.471
12433WAT      O37540   5.024   1.250   1.184
12433WAT     H137541   5.006   1.195   1.102
12433WAT     H237542   5.023   1.347   1.160
12434WAT      O37543   3.610   4.934   0.430
12434WAT     H137544   3.679   4.872   0.468
12434WAT     H237545   3.655   5.016   0.397
12435WAT      O37546   3.921   3.687   7.787
12435WAT     H137547   3.843   3.629   7.765
12435WAT     H237548   4.004   3.631   7.796
12436WAT      O37549   3.411   7.947   6.563
12436WAT     H137550   3.408   7.894   6.478
12436WAT     H237551   3.449   8.038   6.544
12437WAT      O37552   0.526   3.865   2.440
12437WAT     H137553   0.470   3.902   2.514
12437WAT     H237554   0.523   3.927   2.362
12438WAT      O37555   0.558   0.534   3.931
12438WAT     H137556   0.529   0.607   3.993
12438WAT     H237557   0.566   0.570   3.838
12439WAT      O37558   7.682   8.232   7.308
12439WAT     H137559   7.631   8.204   7.389
12439WAT     H237560   7.780   8.224   7.326
12440WAT      O37561   8.084   8.679   8.432
12440WAT     H137562   8.114   8.742   8.503
12440WAT     H237563   8.021   8.612   8.471
12441WAT      O37564   2.993   7.424   6.832
12441WAT     H137565   2.958   7.481   6.758
12441WAT     H237566   2.922   7.413   6.902
12442WAT      O37567   1.833   4.978   0.120
12442WAT     H137568   1.788   5.047   0.064
12442WAT     H237569   1.915   5.017   0.162
12443WAT      O37570   5.935   8.770   0.486
12443WAT     H137571   5.870   8.778   0.562
12443WAT     H237572   5.978   8.859   0.470
12444WAT      O37573   3.530   3.299   9.050
12444WAT     H137574   3.624   3.334   9.048
12444WAT     H237575   3.468   3.373   9.075
12445WAT      O37576   8.358   4.971   0.836
12445WAT     H137577   8.353   5.061   0.792
12445WAT     H237578   8.298   4.907   0.787
12446WAT      O37579   1.896   9.567   1.007
12446WAT     H137580   1.883   9.517   1.092
12446WAT     H237581   1.961   9.642   1.022
12447WAT      O37582   4.886   2.977   4.861
12447WAT     H137583   4.805   2.919   4.862
12447WAT     H237584   4.859   3.072   4.877
12448WAT      O37585   4.120   7.138   1.244
12448WAT     H137586   4.159   7.046   1.244
12448WAT     H237587   4.170   7.195   1.309
12449WAT      O37588   5.490   2.987   2.287
12449WAT     H137589   5.531   2.921   2.224
12449WAT     H237590   5.491   3.078   2.246
12450WAT      O37591   6.105   0.241   5.332
12450WAT     H137592   6.083   0.326   5.283
12450WAT     H237593   6.062   0.244   5.423
12451WAT      O37594   2.148   0.297   9.367
12451WAT     H137595   2.095   0.238   9.307
12451WAT     H237596   2.216   0.347   9.314
12452WAT      O37597   2.814   8.957   6.817
12452WAT     H137598   2.751   9.018   6.769
12452WAT     H237599   2.876   8.916   6.751
12453WAT      O37600   8.175   3.403   1.436
12453WAT     H137601   8.111   3.347   1.490
12453WAT     H237602   8.142   3.497   1.431
12454WAT      O37603   8.928   2.710   9.194
12454WAT     H137604   9.012   2.658   9.208
12454WAT     H237605   8.939   2.802   9.232
12455WAT      O37606   6.750   9.104   1.769
12455WAT     H137607   6.655   9.134   1.778
12455WAT     H237608   6.774   9.100   1.672
12456WAT      O37609   9.828   5.561   6.184
12456WAT     H137610   9.822   5.585   6.281
12456WAT     H237611   9.805   5.640   6.128
12457WAT      O37612   0.864   1.263   7.653
12457WAT     H137613   0.792   1.206   7.693
12457WAT     H237614   0.824   1.349   7.622
12458WAT      O37615   7.510   9.588   1.174
12458WAT     H137616   7.528   9.492   1.194
12458WAT     H237617   7.416   9.600   1.143
12459WAT      O37618   3.638   4.388   8.213
12459WAT     H137619   3.678   4.372   8.123
12459WAT     H237620   3.593   4.477   8.214
12460WAT      O37621   0.227   7.297   1.144
12460WAT     H137622   0.174   7.228   1.095
12460WAT     H237623   0.230   7.274   1.241
12461WAT      O37624   9.254   0.179   2.377
12461WAT     H137625   9.236   0.097   2.431
12461WAT     H237626   9.174   0.240   2.382
12462WAT      O37627   8.588   2.817   1.016
12462WAT     H137628   8.596   2.717   1.024
12462WAT     H237629   8.575   2.857   1.107
12463WAT      O37630   4.640   7.144   2.767
12463WAT     H137631   4.683   7.163   2.855
12463WAT     H237632   4.543   7.166   2.771
12464WAT      O37633   7.697   8.255   5.385
12464WAT     H137634   7.692   8.155   5.386
12464WAT     H237635   7.761   8.285   5.314
12465WAT      O37636   3.972   7.656   4.067
12465WAT     H137637   4.057   7.610   4.094
12465WAT     H237638   3.902   7.639   4.136
12466WAT      O37639   1.125   9.322   8.654
12466WAT     H137640   1.212   9.369   8.664
12466WAT     H237641   1.089   9.300   8.745
12467WAT      O37642   8.410   7.465   8.733
12467WAT     H137643   8.412   7.558   8.770
12467WAT     H237644   8.390   7.469   8.635
12468WAT      O37645   9.551   0.948   7.676
12468WAT     H137646   9.601   0.999   7.605
12468WAT     H237647   9.581   0.853   7.676
12469WAT      O37648   1.795   5.239   5.805
12469WAT     H137649   1.856   5.179   5.857
12469WAT     H237650   1.821   5.236   5.708
12470WAT      O37651   0.818   7.104   6.903
12470WAT     H137652   0.758   7.065   6.973
12470WAT     H237653   0.831   7.037   6.829
12471WAT      O37654   9.416   6.465   6.776
12471WAT     H137655   9.513   6.464   6.801
12471WAT     H237656   9.408   6.457   6.676
12472WAT      O37657   5.191   3.735   4.564
12472WAT     H137658   5.184   3.748   4.466
12472WAT     H237659   5.237   3.813   4.606
12473WAT      O37660   6.713   2.274   2.349
12473WAT     H137661   6.660   2.224   2.280
12473WAT     H237662   6.809   2.248   2.343
12474WAT      O37663   8.301   6.342   0.238
12474WAT     H137664   8.207   6.353   0.269
12474WAT     H237665   8.308   6.258   0.184
12475WAT      O37666   2.812   3.683   4.631
12475WAT     H137667   2.907   3.693   4.601
12475WAT     H237668   2.809   3.619   4.708
12476WAT      O37669   9.105   2.886   3.948
12476WAT     H137670   9.132   2.963   3.890
12476WAT     H237671   9.049   2.920   4.024
12477WAT      O37672   5.295   2.597   6.920
12477WAT     H137673   5.334   2.689   6.926
12477WAT     H237674   5.311   2.548   7.006
12478WAT      O37675   5.959   1.949   6.906
12478WAT     H137676   5.893   1.894   6.958
12478WAT     H237677   6.001   1.891   6.836
12479WAT      O37678   3.657   0.525   9.456
12479WAT     H137679   3.735   0.588   9.451
12479WAT     H237680   3.661   0.474   9.542
12480WAT      O37681   9.889   9.612   6.378
12480WAT     H137682   9.886   9.569   6.468
12480WAT     H237683   9.797   9.616   6.340
12481WAT      O37684   9.446   9.738   6.878
12481WAT     H137685   9.378   9.681   6.924
12481WAT     H237686   9.526   9.683   6.855
12482WAT      O37687   7.124   8.417   5.063
12482WAT     H137688   7.203   8.409   5.002
12482WAT     H237689   7.113   8.332   5.114
12483WAT      O37690   0.147   7.795   7.457
12483WAT     H137691   0.097   7.723   7.505
12483WAT     H237692   0.239   7.804   7.496
12484WAT      O37693   3.377   7.948   7.972
12484WAT     H137694   3.330   7.860   7.969
12484WAT     H237695   3.316   8.017   8.012
12485WAT      O37696   3.946   3.851   8.027
12485WAT     H137697   3.961   3.774   8.089
12485WAT     H237698   3.929   3.817   7.934
12486WAT      O37699   1.681   8.150   5.064
12486WAT     H137700   1.601   8.175   5.011
12486WAT     H237701   1.740   8.230   5.076
12487WAT      O37702   8.986   0.738   5.883
12487WAT     H137703   8.900   0.738   5.832
12487WAT     H237704   8.993   0.821   5.938
12488WAT      O37705   1.995   1.510   4.315
12488WAT     H137706   1.911   1.476   4.356
12488WAT     H237707   2.067   1.512   4.384
12489WAT      O37708   3.516   6.010   3.840
12489WAT     H137709   3.471   6.082   3.892
12489WAT     H237710   3.574   6.050   3.770
12490WAT      O37711   2.666   0.274   1.200
12490WAT     H137712   2.568   0.268   1.181
12490WAT     H237713   2.704   0.355   1.156
12491WAT      O37714   5.274   6.427   9.259
12491WAT     H137715   5.219   6.354   9.218
12491WAT     H237716   5.262   6.426   9.359
12492WAT      O37717   8.322   8.611   7.155
12492WAT     H137718   8.307   8.537   7.090
12492WAT     H237719   8.288   8.696   7.117
12493WAT      O37720   7.819   9.513   6.480
12493WAT     H137721   7.829   9.463   6.394
12493WAT     H237722   7.758   9.462   6.540
12494WAT      O37723   5.991   7.975   2.217
12494WAT     H137724   5.952   8.036   2.286
12494WAT     H237725   6.053   7.910   2.261
12495WAT      O37726   6.593   6.370   1.321
12495WAT     H137727   6.543   6.294   1.363
12495WAT     H237728   6.530   6.422   1.263
12496WAT      O37729   1.824   1.736   1.221
12496WAT     H137730   1.764   1.705   1.147
12496WAT     H237731   1.776   1.732   1.308
12497WAT      O37732   9.654   4.468   7.544
12497WAT     H137733   9.666   4.566   7.556
12497WAT     H237734   9.728   4.419   7.592
12498WAT      O37735   1.219   8.480   8.947
12498WAT     H137736   1.234   8.381   8.941
12498WAT     H237737   1.261   8.525   8.868
12499WAT      O37738   3.328   6.726   1.862
12499WAT     H137739   3.341   6.657   1.791
12499WAT     H237740   3.415   6.772   1.880
12500WAT      O37741   9.066   4.145   9.643
12500WAT     H137742   8.994   4.132   9.575
12500WAT     H237743   9.150   4.176   9.598
12501WAT      O37744   4.908   1.564   7.699
12501WAT     H137745   4.914   1.495   7.771
12501WAT     H237746   4.845   1.533   7.628
12502WAT      O37747   3.835   7.890   0.493
12502WAT     H137748   3.864   7.905   0.399
12502WAT     H237749   3.831   7.978   0.541
12503WAT      O37750   7.264   3.829   7.552
12503WAT     H137751   7.181   3.807   7.603
12503WAT     H237752   7.341   3.779   7.591
12504WAT      O37753   3.544   1.057   4.549
12504WAT     H137754   3.493   0.992   4.605
12504WAT     H237755   3.634   1.020   4.527
12505WAT      O37756   8.844   9.527   7.701
12505WAT     H137757   8.774   9.486   7.642
12505WAT     H237758   8.813   9.525   7.796
12506WAT      O37759   6.720   4.850   7.906
12506WAT     H137760   6.710   4.881   7.811
12506WAT     H237761   6.807   4.803   7.917
12507WAT      O37762   5.393   4.119   2.250
12507WAT     H137763   5.464   4.049   2.254
12507WAT     H237764   5.303   4.075   2.255
12508WAT      O37765   7.183   1.080   2.073
12508WAT     H137766   7.161   1.088   2.170
12508WAT     H237767   7.233   0.994   2.057
12509WAT      O37768   5.642   7.609   5.795
12509WAT     H137769   5.660   7.582   5.700
12509WAT     H237770   5.577   7.545   5.836
12510WAT      O37771   3.130   2.047   5.615
12510WAT     H137772   3.110   2.142   5.637
12510WAT     H237773   3.066   1.988   5.664
12511WAT      O37774   3.695   9.656   5.197
12511WAT     H137775   3.792   9.650   5.218
12511WAT     H237776   3.665   9.572   5.151
12512WAT      O37777   2.931   4.649   6.905
12512WAT     H137778   2.967   4.688   6.990
12512WAT     H237779   2.925   4.550   6.913
12513WAT      O37780   6.930   9.287   4.947
12513WAT     H137781   6.924   9.239   4.860
12513WAT     H237782   7.008   9.252   4.999
12514WAT      O37783   3.459   8.481   1.535
12514WAT     H137784   3.410   8.477   1.447
12514WAT     H237785   3.427   8.560   1.587
12515WAT      O37786   7.743   6.704   0.922
12515WAT     H137787   7.821   6.660   0.965
12515WAT     H237788   7.662   6.693   0.980
12516WAT      O37789   4.774   5.449   7.776
12516WAT     H137790   4.800   5.445   7.680
12516WAT     H237791   4.854   5.475   7.831
12517WAT      O37792   0.571   6.923   3.005
12517WAT     H137793   0.595   6.980   3.084
12517WAT     H237794   0.624   6.839   3.007
12518WAT      O37795   4.071   8.770   7.477
12518WAT     H137796   4.169   8.786   7.466
12518WAT     H237797   4.034   8.835   7.543
12519WAT      O37798   7.090   0.424   1.100
12519WAT     H137799   7.062   0.510   1.142
12519WAT     H237800   7.167   0.385   1.150
12520WAT      O37801   9.573   5.223   8.439
12520WAT     H137802   9.595   5.282   8.361
12520WAT     H237803   9.486   5.252   8.479
12521WAT      O37804   9.342   0.498   8.195
12521WAT     H137805   9.410   0.515   8.267
12521WAT     H237806   9.254   0.474   8.237
12522WAT      O37807   4.143   6.165   4.773
12522WAT     H137808   4.118   6.098   4.703
12522WAT     H237809   4.219   6.131   4.827
12523WAT      O37810   8.030   4.487   2.975
12523WAT     H137811   8.092   4.503   3.053
12523WAT     H237812   7.936   4.497   3.006
12524WAT      O37813   5.515   5.909   2.637
12524WAT     H137814   5.542   5.912   2.541
12524WAT     H237815   5.437   5.847   2.649
12525WAT      O37816   2.652   0.479   6.568
12525WAT     H137817   2.653   0.379   6.573
12525WAT     H237818   2.652   0.517   6.660
12526WAT      O37819   7.655   2.353   8.971
12526WAT     H137820   7.730   2.306   9.018
12526WAT     H237821   7.613   2.418   9.034
12527WAT      O37822   8.259   5.351   7.293
12527WAT     H137823   8.161   5.347   7.270
12527WAT     H237824   8.287   5.447   7.299
12528WAT      O37825   2.854   8.014   0.917
12528WAT     H137826   2.846   7.974   0.826
12528WAT     H237827   2.859   7.941   0.985
12529WAT      O37828   3.287   3.503   7.674
12529WAT     H137829   3.316   3.591   7.712
12529WAT     H237830   3.345   3.480   7.595
12530WAT      O37831   7.403   4.680   7.250
12530WAT     H137832   7.375   4.738   7.173
12530WAT     H237833   7.476   4.726   7.302
12531WAT      O37834   8.896   7.345   1.270
12531WAT     H137835   8.867   7.413   1.337
12531WAT     H237836   8.921   7.391   1.184
12532WAT      O37837   6.166   1.620   4.935
12532WAT     H137838   6.142   1.607   5.031
12532WAT     H237839   6.207   1.536   4.899
12533WAT      O37840   8.270   0.777   6.520
12533WAT     H137841   8.214   0.746   6.443
12533WAT     H237842   8.211   0.799   6.598
12534WAT      O37843   7.467   0.303   8.469
12534WAT     H137844   7.518   0.339   8.547
12534WAT     H237845   7.383   0.356   8.457
12535WAT      O37846   3.079   8.347   7.048
12535WAT     H137847   3.107   8.437   7.082
12535WAT     H237848   3.143   8.278   7.081
12536WAT      O37849   5.308   4.939   7.806
12536WAT     H137850   5.371   4.898   7.873
12536WAT     H237851   5.336   5.034   7.790
12537WAT      O37852   2.723   3.812   0.626
12537WAT     H137853   2.817   3.789   0.653
12537WAT     H237854   2.710   3.788   0.530
12538WAT      O37855   8.871   0.861   0.594
12538WAT     H137856   8.897   0.939   0.652
12538WAT     H237857   8.935   0.853   0.518
12539WAT      O37858   4.010   6.894   9.472
12539WAT     H137859   3.978   6.802   9.449
12539WAT     H237860   4.049   6.937   9.391
12540WAT      O37861   9.637   5.659   8.952
12540WAT     H137862   9.564   5.703   9.006
12540WAT     H237863   9.601   5.633   8.863
12541WAT      O37864   4.769   3.449   3.590
12541WAT     H137865   4.765   3.507   3.671
12541WAT     H237866   4.793   3.356   3.617
12542WAT      O37867   2.310   2.529   4.194
12542WAT     H137868   2.277   2.545   4.101
12542WAT     H237869   2.238   2.485   4.247
12543WAT      O37870   5.415   9.412   0.035
12543WAT     H137871   5.407   9.385   0.131
12543WAT     H237872   5.395   9.334  -0.024
12544WAT      O37873   8.132   9.571   7.280
12544WAT     H137874   8.108   9.668   7.275
12544WAT     H237875   8.133   9.532   7.188
12545WAT      O37876   7.950   6.388   3.214
12545WAT     H137877   7.904   6.455   3.156
12545WAT     H237878   7.883   6.323   3.250
12546WAT      O37879   1.048   7.135   7.376
12546WAT     H137880   1.113   7.066   7.344
12546WAT     H237881   0.957   7.094   7.382
12547WAT      O37882   3.746   2.332   7.424
12547WAT     H137883   3.722   2.245   7.381
12547WAT     H237884   3.836   2.361   7.392
12548WAT      O37885   6.039   5.524   3.465
12548WAT     H137886   5.979   5.584   3.519
12548WAT     H237887   5.988   5.488   3.387
12549WAT      O37888   0.651   2.260   7.918
12549WAT     H137889   0.592   2.321   7.864
12549WAT     H237890   0.744   2.295   7.917
12550WAT      O37891   4.617   7.987   7.280
12550WAT     H137892   4.690   8.003   7.213
12550WAT     H237893   4.529   7.982   7.232
12551WAT      O37894   3.814   2.877   4.145
12551WAT     H137895   3.811   2.912   4.052
12551WAT     H237896   3.894   2.915   4.192
12552WAT      O37897   7.653   0.580   3.440
12552WAT     H137898   7.582   0.607   3.505
12552WAT     H237899   7.659   0.648   3.367
12553WAT      O37900   4.583   9.672   3.936
12553WAT     H137901   4.576   9.648   4.033
12553WAT     H237902   4.530   9.755   3.919
12554WAT      O37903   5.908   0.989   5.751
12554WAT     H137904   5.935   0.938   5.670
12554WAT     H237905   5.833   0.941   5.797
12555WAT      O37906   3.880   6.529   9.123
12555WAT     H137907   3.791   6.521   9.167
12555WAT     H237908   3.874   6.496   9.029
12556WAT      O37909   1.603   4.254   2.118
12556WAT     H137910   1.530   4.245   2.186
12556WAT     H237911   1.674   4.185   2.136
12557WAT      O37912   1.261   8.484   7.057
12557WAT     H137913   1.169   8.521   7.070
12557WAT     H237914   1.273   8.458   6.962
12558WAT      O37915   6.822   5.150   0.590
12558WAT     H137916   6.789   5.082   0.655
12558WAT     H237917   6.857   5.104   0.508
12559WAT      O37918   6.544   8.617   1.620
12559WAT     H137919   6.540   8.517   1.617
12559WAT     H237920   6.551   8.647   1.715
12560WAT      O37921   4.256   8.980   3.426
12560WAT     H137922   4.198   9.038   3.483
12560WAT     H237923   4.315   8.924   3.484
12561WAT      O37924   4.510   8.096   4.404
12561WAT     H137925   4.497   8.195   4.408
12561WAT     H237926   4.605   8.074   4.428
12562WAT      O37927   6.224   5.505   7.442
12562WAT     H137928   6.128   5.506   7.470
12562WAT     H237929   6.245   5.591   7.394
12563WAT      O37930   2.232   9.646   8.094
12563WAT     H137931   2.197   9.553   8.083
12563WAT     H237932   2.238   9.668   8.191
12564WAT      O37933   9.360   2.525   2.549
12564WAT     H137934   9.403   2.466   2.480
12564WAT     H237935   9.431   2.572   2.602
12565WAT      O37936   6.349   5.214   4.037
12565WAT     H137937   6.255   5.201   4.006
12565WAT     H237938   6.359   5.176   4.129
12566WAT      O37939   5.460   6.497   4.448
12566WAT     H137940   5.373   6.503   4.398
12566WAT     H237941   5.466   6.573   4.513
12567WAT      O37942   9.417   9.434   6.729
12567WAT     H137943   9.440   9.350   6.777
12567WAT     H237944   9.452   9.430   6.635
12568WAT      O37945   1.539   3.710   0.961
12568WAT     H137946   1.612   3.662   0.913
12568WAT     H237947   1.495   3.647   1.025
12569WAT      O37948   1.637   4.586   9.521
12569WAT     H137949   1.683   4.502   9.493
12569WAT     H237950   1.673   4.663   9.468
12570WAT      O37951   1.055   4.690   0.654
12570WAT     H137952   0.959   4.677   0.627
12570WAT     H237953   1.091   4.604   0.690
12571WAT      O37954   1.531   3.570   2.761
12571WAT     H137955   1.604   3.593   2.696
12571WAT     H237956   1.560   3.593   2.854
12572WAT      O37957   6.722   2.374   0.295
12572WAT     H137958   6.638   2.406   0.251
12572WAT     H237959   6.715   2.388   0.394
12573WAT      O37960   9.294   4.633   7.852
12573WAT     H137961   9.237   4.581   7.915
12573WAT     H237962   9.335   4.571   7.784
12574WAT      O37963   4.211   5.086   4.034
12574WAT     H137964   4.187   5.021   4.106
12574WAT     H237965   4.299   5.128   4.055
12575WAT      O37966   8.027   9.700   2.318
12575WAT     H137967   8.067   9.616   2.282
12575WAT     H237968   7.928   9.698   2.303
12576WAT      O37969   3.241   6.857   4.609
12576WAT     H137970   3.283   6.901   4.530
12576WAT     H237971   3.163   6.802   4.579
12577WAT      O37972   7.879   9.226   4.618
12577WAT     H137973   7.893   9.204   4.521
12577WAT     H237974   7.808   9.296   4.626
12578WAT      O37975   1.466   6.985   0.518
12578WAT     H137976   1.380   6.950   0.480
12578WAT     H237977   1.539   6.919   0.501
12579WAT      O37978   2.115   6.801   9.681
12579WAT     H137979   2.020   6.806   9.713
12579WAT     H237980   2.117   6.796   9.582
12580WAT      O37981   3.585   9.229   0.543
12580WAT     H137982   3.496   9.275   0.534
12580WAT     H237983   3.577   9.152   0.606
12581WAT      O37984   1.810   5.078   0.709
12581WAT     H137985   1.836   5.005   0.646
12581WAT     H237986   1.770   5.154   0.658
12582WAT      O37987   0.568   7.926   4.447
12582WAT     H137988   0.629   7.967   4.379
12582WAT     H237989   0.476   7.964   4.436
12583WAT      O37990   9.722   8.760   8.778
12583WAT     H137991   9.793   8.731   8.715
12583WAT     H237992   9.648   8.693   8.779
12584WAT      O37993   8.794   4.732   9.194
12584WAT     H137994   8.746   4.815   9.220
12584WAT     H237995   8.892   4.746   9.201
12585WAT      O37996   0.196   1.277   5.870
12585WAT     H137997   0.139   1.303   5.791
12585WAT     H237998   0.139   1.231   5.938
12586WAT      O37999   8.832   4.158   0.784
12586WAT     H138000   8.738   4.189   0.775
12586WAT     H238001   8.893   4.223   0.738
12587WAT      O38002   3.303   4.116   8.318
12587WAT     H138003   3.401   4.120   8.301
12587WAT     H238004   3.265   4.208   8.313
12588WAT      O38005   2.471   2.839   5.572
12588WAT     H138006   2.501   2.781   5.496
12588WAT     H238007   2.550   2.884   5.613
12589WAT      O38008   7.721   1.383   4.118
12589WAT     H138009   7.683   1.474   4.106
12589WAT     H238010   7.731   1.339   4.028
12590WAT      O38011   5.153   4.347   6.763
12590WAT     H138012   5.178   4.276   6.829
12590WAT     H238013   5.193   4.434   6.791
12591WAT      O38014   8.572   6.223   9.841
12591WAT     H138015   8.566   6.301   9.779
12591WAT     H238016   8.595   6.141   9.789
12592WAT      O38017   5.763   9.411   8.212
12592WAT     H138018   5.749   9.478   8.285
12592WAT     H238019   5.859   9.383   8.211
12593WAT      O38020   9.625   2.993   5.027
12593WAT     H138021   9.539   2.970   5.073
12593WAT     H238022   9.625   3.091   5.005
12594WAT      O38023   2.309   0.761   9.662
12594WAT     H138024   2.267   0.826   9.724
12594WAT     H238025   2.248   0.746   9.584
12595WAT      O38026   7.621   4.151   1.145
12595WAT     H138027   7.616   4.114   1.238
12595WAT     H238028   7.531   4.145   1.102
12596WAT      O38029   5.716   0.088   4.524
12596WAT     H138030   5.756   0.066   4.435
12596WAT     H238031   5.624   0.126   4.510
12597WAT      O38032   9.858   4.020   7.518
12597WAT     H138033   9.942   4.038   7.568
12597WAT     H238034   9.838   4.096   7.456
12598WAT      O38035   1.669   3.966   8.139
12598WAT     H138036   1.749   4.023   8.157
12598WAT     H238037   1.634   3.930   8.226
12599WAT      O38038   8.709   5.846   3.593
12599WAT     H138039   8.749   5.754   3.598
12599WAT     H238040   8.617   5.844   3.632
12600WAT      O38041   3.538   2.320   6.908
12600WAT     H138042   3.560   2.283   6.998
12600WAT     H238043   3.593   2.274   6.838
12601WAT      O38044   9.690   9.093   1.969
12601WAT     H138045   9.647   9.165   1.915
12601WAT     H238046   9.788   9.113   1.979
12602WAT      O38047   2.050   8.309   3.746
12602WAT     H138048   1.962   8.357   3.746
12602WAT     H238049   2.071   8.279   3.653
12603WAT      O38050   8.500   2.214   9.155
12603WAT     H138051   8.437   2.221   9.232
12603WAT     H238052   8.577   2.276   9.169
12604WAT      O38053   0.080   1.016   8.011
12604WAT     H138054   0.080   0.942   7.944
12604WAT     H238055   0.075   1.104   7.963
12605WAT      O38056   8.041   7.035   4.284
12605WAT     H138057   8.003   6.943   4.272
12605WAT     H238058   7.993   7.082   4.357
12606WAT      O38059   3.484   1.958   7.330
12606WAT     H138060   3.474   2.010   7.415
12606WAT     H238061   3.577   1.924   7.322
12607WAT      O38062   8.651   5.401   1.603
12607WAT     H138063   8.593   5.351   1.538
12607WAT     H238064   8.635   5.499   1.593
12608WAT      O38065   6.846   2.473   1.193
12608WAT     H138066   6.877   2.563   1.223
12608WAT     H238067   6.749   2.476   1.173
12609WAT      O38068   4.573   9.099   2.642
12609WAT     H138069   4.597   9.084   2.546
12609WAT     H238070   4.561   9.197   2.659
12610WAT      O38071   6.993   4.390   4.330
12610WAT     H138072   6.928   4.452   4.374
12610WAT     H238073   7.012   4.313   4.391
12611WAT      O38074   9.650   5.044   2.828
12611WAT     H138075   9.747   5.053   2.806
12611WAT     H238076   9.605   4.988   2.758
12612WAT      O38077   6.425   4.012   7.564
12612WAT     H138078   6.522   3.991   7.553
12612WAT     H238079   6.370   3.931   7.545
12613WAT      O38080   8.908   9.802   7.628
12613WAT     H138081   8.828   9.829   7.574
12613WAT     H238082   8.894   9.711   7.667
12614WAT      O38083   7.913   7.759   0.778
12614WAT     H138084   8.001   7.746   0.824
12614WAT     H238085   7.847   7.798   0.843
12615WAT      O38086   4.085   1.068   5.616
12615WAT     H138087   4.040   1.116   5.691
12615WAT     H238088   4.095   0.972   5.639
12616WAT      O38089   6.334   2.285   5.564
12616WAT     H138090   6.291   2.332   5.641
12616WAT     H238091   6.396   2.215   5.599
12617WAT      O38092   6.381   8.841   4.433
12617WAT     H138093   6.453   8.772   4.431
12617WAT     H238094   6.385   8.896   4.350
12618WAT      O38095   3.226   0.358   9.391
12618WAT     H138096   3.161   0.343   9.317
12618WAT     H238097   3.204   0.298   9.468
12619WAT      O38098   8.935   2.916   2.167
12619WAT     H138099   8.854   2.935   2.221
12619WAT     H238100   9.017   2.940   2.220
12620WAT      O38101   5.448   6.943   1.906
12620WAT     H138102   5.443   6.901   1.997
12620WAT     H238103   5.376   7.012   1.897
12621WAT      O38104   5.961   9.767   9.093
12621WAT     H138105   6.019   9.685   9.093
12621WAT     H238106   6.005   9.838   9.039
12622WAT      O38107   8.784   0.757   4.644
12622WAT     H138108   8.751   0.851   4.635
12622WAT     H238109   8.883   0.755   4.633
12623WAT      O38110   5.102   1.377   5.148
12623WAT     H138111   5.044   1.357   5.069
12623WAT     H238112   5.181   1.316   5.148
12624WAT      O38113   6.043   6.029   6.273
12624WAT     H138114   6.115   5.963   6.253
12624WAT     H238115   5.954   5.984   6.270
12625WAT      O38116   2.074   8.270   0.779
12625WAT     H138117   2.131   8.224   0.848
12625WAT     H238118   1.994   8.310   0.823
12626WAT      O38119   1.790   5.673   0.310
12626WAT     H138120   1.770   5.673   0.212
12626WAT     H238121   1.889   5.683   0.323
12627WAT      O38122   7.621   1.065   1.991
12627WAT     H138123   7.692   1.058   2.061
12627WAT     H238124   7.650   1.129   1.920
12628WAT      O38125   4.696   9.665   5.740
12628WAT     H138126   4.716   9.761   5.762
12628WAT     H238127   4.639   9.626   5.812
12629WAT      O38128   8.526   5.198   7.347
12629WAT     H138129   8.586   5.275   7.328
12629WAT     H238130   8.433   5.220   7.317
12630WAT      O38131   2.094   5.993   9.389
12630WAT     H138132   2.113   5.973   9.293
12630WAT     H238133   2.143   5.928   9.447
12631WAT      O38134   6.829   2.070   1.152
12631WAT     H138135   6.891   2.048   1.227
12631WAT     H238136   6.746   2.112   1.188
12632WAT      O38137   7.240   6.445   2.263
12632WAT     H138138   7.279   6.353   2.259
12632WAT     H238139   7.233   6.482   2.171
12633WAT      O38140   0.667   5.024   3.805
12633WAT     H138141   0.701   5.077   3.727
12633WAT     H238142   0.595   4.961   3.773
12634WAT      O38143   2.409   6.549   4.008
12634WAT     H138144   2.367   6.592   4.088
12634WAT     H238145   2.419   6.451   4.024
12635WAT      O38146   9.208   0.779   4.869
12635WAT     H138147   9.123   0.790   4.920
12635WAT     H238148   9.193   0.805   4.774
12636WAT      O38149   2.713   4.828   0.508
12636WAT     H138150   2.679   4.803   0.418
12636WAT     H238151   2.813   4.836   0.506
12637WAT      O38152   4.605   0.874   8.838
12637WAT     H138153   4.567   0.903   8.926
12637WAT     H238154   4.704   0.862   8.848
12638WAT      O38155   3.020   4.925   1.141
12638WAT     H138156   2.960   4.864   1.090
12638WAT     H238157   3.015   4.904   1.238
12639WAT      O38158   0.661   7.846   2.159
12639WAT     H138159   0.737   7.782   2.145
12639WAT     H238160   0.577   7.806   2.122
12640WAT      O38161   2.595   9.483   2.320
12640WAT     H138162   2.619   9.415   2.251
12640WAT     H238163   2.510   9.456   2.366
12641WAT      O38164   1.175   5.490   8.328
12641WAT     H138165   1.097   5.432   8.302
12641WAT     H238166   1.184   5.489   8.428
12642WAT      O38167   5.303   1.328   5.749
12642WAT     H138168   5.221   1.271   5.745
12642WAT     H238169   5.367   1.300   5.677
12643WAT      O38170   6.203   1.560   1.542
12643WAT     H138171   6.205   1.460   1.541
12643WAT     H238172   6.212   1.592   1.636
12644WAT      O38173   3.084   8.740   3.925
12644WAT     H138174   3.160   8.803   3.913
12644WAT     H238175   3.119   8.650   3.953
12645WAT      O38176   8.735   0.860   7.296
12645WAT     H138177   8.794   0.939   7.283
12645WAT     H238178   8.659   0.863   7.230
12646WAT      O38179   4.484   7.569   0.568
12646WAT     H138180   4.489   7.566   0.668
12646WAT     H238181   4.534   7.492   0.529
12647WAT      O38182   6.511   8.389   4.923
12647WAT     H138183   6.592   8.379   4.865
12647WAT     H238184   6.438   8.329   4.890
12648WAT      O38185   7.451   8.376   3.182
12648WAT     H138186   7.488   8.469   3.189
12648WAT     H238187   7.499   8.317   3.247
12649WAT      O38188   2.944   1.314   9.560
12649WAT     H138189   2.973   1.384   9.495
12649WAT     H238190   3.023   1.259   9.587
12650WAT      O38191   5.280   7.006   5.550
12650WAT     H138192   5.194   6.974   5.510
12650WAT     H238193   5.357   6.968   5.498
12651WAT      O38194   7.107   1.116   3.968
12651WAT     H138195   7.168   1.049   3.926
12651WAT     H238196   7.096   1.094   4.065
12652WAT      O38197   1.368   7.682   3.356
12652WAT     H138198   1.465   7.660   3.342
12652WAT     H238199   1.312   7.602   3.337
12653WAT      O38200   6.789   3.051   2.160
12653WAT     H138201   6.833   2.994   2.090
12653WAT     H238202   6.693   3.027   2.167
12654WAT      O38203   8.754   7.988   3.516
12654WAT     H138204   8.748   7.929   3.435
12654WAT     H238205   8.722   7.937   3.596
12655WAT      O38206   1.630   3.779   4.830
12655WAT     H138207   1.680   3.698   4.798
12655WAT     H238208   1.690   3.859   4.824
12656WAT      O38209   1.442   0.331   1.584
12656WAT     H138210   1.507   0.400   1.553
12656WAT     H238211   1.489   0.265   1.642
12657WAT      O38212   3.871   6.438   8.872
12657WAT     H138213   3.963   6.400   8.864
12657WAT     H238214   3.810   6.394   8.806
12658WAT      O38215   5.162   4.574   8.680
12658WAT     H138216   5.219   4.557   8.760
12658WAT     H238217   5.207   4.641   8.620
12659WAT      O38218   2.868   2.957   8.578
12659WAT     H138219   2.795   2.976   8.644
12659WAT     H238220   2.841   2.880   8.521
12660WAT      O38221   3.678   9.443   7.741
12660WAT     H138222   3.746   9.423   7.812
12660WAT     H238223   3.681   9.372   7.671
12661WAT      O38224   9.335   5.845   8.784
12661WAT     H138225   9.398   5.922   8.778
12661WAT     H238226   9.379   5.762   8.748
12662WAT      O38227   4.808   6.792   4.628
12662WAT     H138228   4.893   6.773   4.579
12662WAT     H238229   4.754   6.708   4.637
12663WAT      O38230   6.589   0.483   5.347
12663WAT     H138231   6.590   0.520   5.440
12663WAT     H238232   6.607   0.385   5.350
12664WAT      O38233   2.611   3.179   8.954
12664WAT     H138234   2.565   3.231   8.881
12664WAT     H238235   2.592   3.222   9.042
12665WAT      O38236   9.247   8.880   1.952
12665WAT     H138237   9.300   8.839   2.026
12665WAT     H238238   9.149   8.866   1.969
12666WAT      O38239   1.276   0.978   0.594
12666WAT     H138240   1.343   1.050   0.578
12666WAT     H238241   1.242   0.944   0.506
12667WAT      O38242   9.603   4.639   4.885
12667WAT     H138243   9.640   4.710   4.945
12667WAT     H238244   9.571   4.562   4.939
12668WAT      O38245   5.451   5.722   2.332
12668WAT     H138246   5.474   5.700   2.238
12668WAT     H238247   5.395   5.805   2.334
12669WAT      O38248   9.378   4.915   9.149
12669WAT     H138249   9.313   4.952   9.216
12669WAT     H238250   9.454   4.871   9.197
12670WAT      O38251   6.956   6.053   1.609
12670WAT     H138252   6.868   6.098   1.619
12670WAT     H238253   7.011   6.102   1.541
12671WAT      O38254   3.729   6.065   6.918
12671WAT     H138255   3.637   6.102   6.907
12671WAT     H238256   3.781   6.122   6.981
12672WAT      O38257   2.438   9.371   8.754
12672WAT     H138258   2.417   9.274   8.769
12672WAT     H238259   2.534   9.381   8.730
12673WAT      O38260   7.497   2.025   2.699
12673WAT     H138261   7.509   2.001   2.603
12673WAT     H238262   7.587   2.040   2.741
12674WAT      O38263   6.409   9.460   5.635
12674WAT     H138264   6.471   9.388   5.666
12674WAT     H238265   6.318   9.422   5.622
12675WAT      O38266   8.864   1.759   2.891
12675WAT     H138267   8.779   1.712   2.913
12675WAT     H238268   8.865   1.783   2.794
12676WAT      O38269   0.569   8.850   0.605
12676WAT     H138270   0.569   8.892   0.514
12676WAT     H238271   0.550   8.920   0.674
12677WAT      O38272   1.011   0.354   3.076
12677WAT     H138273   1.097   0.305   3.095
12677WAT     H238274   0.951   0.295   3.022
12678WAT      O38275   4.406   3.292   0.755
12678WAT     H138276   4.408   3.330   0.847
12678WAT     H238277   4.330   3.228   0.747
12679WAT      O38278   8.868   7.402   1.697
12679WAT     H138279   8.910   7.344   1.627
12679WAT     H238280   8.875   7.357   1.786
12680WAT      O38281   5.812   3.543   7.245
12680WAT     H138282   5.875   3.466   7.236
12680WAT     H238283   5.796   3.561   7.342
12681WAT      O38284   4.132   6.226   7.618
12681WAT     H138285   4.084   6.143   7.590
12681WAT     H238286   4.230   6.210   7.619
12682WAT      O38287   8.733   7.278   4.186
12682WAT     H138288   8.689   7.192   4.211
12682WAT     H238289   8.666   7.340   4.146
12683WAT      O38290   4.345   3.957   1.345
12683WAT     H138291   4.357   3.973   1.443
12683WAT     H238292   4.319   4.042   1.300
12684WAT      O38293   0.891   5.821   1.057
12684WAT     H138294   0.968   5.872   1.020
12684WAT     H238295   0.807   5.849   1.012
12685WAT      O38296   0.967   3.661   8.577
12685WAT     H138297   1.057   3.619   8.565
12685WAT     H238298   0.907   3.634   8.502
12686WAT      O38299   1.952   3.117   8.360
12686WAT     H138300   1.952   3.058   8.279
12686WAT     H238301   1.862   3.111   8.404
12687WAT      O38302   7.553   8.192   3.376
12687WAT     H138303   7.477   8.130   3.356
12687WAT     H238304   7.625   8.143   3.423
12688WAT      O38305   9.082   9.531   1.358
12688WAT     H138306   9.103   9.433   1.360
12688WAT     H238307   8.991   9.546   1.398
12689WAT      O38308   0.875   6.090   0.581
12689WAT     H138309   0.930   6.152   0.526
12689WAT     H238310   0.887   6.112   0.678
12690WAT      O38311   2.519   4.842   7.310
12690WAT     H138312   2.598   4.900   7.287
12690WAT     H238313   2.549   4.747   7.321
12691WAT      O38314   0.310   4.219   4.264
12691WAT     H138315   0.319   4.185   4.171
12691WAT     H238316   0.291   4.143   4.326
12692WAT      O38317   6.611   1.684   2.756
12692WAT     H138318   6.618   1.780   2.729
12692WAT     H238319   6.518   1.665   2.787
12693WAT      O38320   9.778   0.267   2.442
12693WAT     H138321   9.689   0.304   2.470
12693WAT     H238322   9.836   0.256   2.522
12694WAT      O38323   7.241   7.044   9.689
12694WAT     H138324   7.197   7.012   9.605
12694WAT     H238325   7.199   6.999   9.767
12695WAT      O38326   0.740   1.075   7.477
12695WAT     H138327   0.698   1.062   7.567
12695WAT     H238328   0.800   1.154   7.479
12696WAT      O38329   2.510   7.141   9.801
12696WAT     H138330   2.585   7.113   9.861
12696WAT     H238331   2.484   7.064   9.742
12697WAT      O38332   5.222   7.224   8.226
12697WAT     H138333   5.295   7.237   8.293
12697WAT     H238334   5.240   7.141   8.173
12698WAT      O38335   1.718   4.348   7.861
12698WAT     H138336   1.634   4.365   7.912
12698WAT     H238337   1.720   4.252   7.833
12699WAT      O38338   7.599   8.062   7.973
12699WAT     H138339   7.621   7.982   8.030
12699WAT     H238340   7.661   8.137   7.997
12700WAT      O38341   3.536   6.340   9.468
12700WAT     H138342   3.439   6.316   9.474
12700WAT     H238343   3.590   6.274   9.521
12701WAT      O38344   2.787   8.008   4.814
12701WAT     H138345   2.773   7.910   4.796
12701WAT     H238346   2.801   8.056   4.727
12702WAT      O38347   4.922   3.143   1.867
12702WAT     H138348   4.966   3.069   1.919
12702WAT     H238349   4.825   3.144   1.888
12703WAT      O38350   4.252   8.483   8.845
12703WAT     H138351   4.312   8.470   8.766
12703WAT     H238352   4.274   8.415   8.915
12704WAT      O38353   1.036   4.708   1.372
12704WAT     H138354   1.121   4.724   1.322
12704WAT     H238355   1.049   4.730   1.469
12705WAT      O38356   4.157   0.244   1.447
12705WAT     H138357   4.092   0.209   1.380
12705WAT     H238358   4.125   0.331   1.483
12706WAT      O38359   4.348   1.419   5.999
12706WAT     H138360   4.346   1.517   5.979
12706WAT     H238361   4.374   1.368   5.917
12707WAT      O38362   3.594   0.342   7.627
12707WAT     H138363   3.571   0.368   7.721
12707WAT     H238364   3.586   0.242   7.618
12708WAT      O38365   5.851   4.506   1.830
12708WAT     H138366   5.837   4.589   1.884
12708WAT     H238367   5.947   4.478   1.835
12709WAT      O38368   3.794   4.106   3.147
12709WAT     H138369   3.873   4.134   3.091
12709WAT     H238370   3.720   4.077   3.087
12710WAT      O38371   3.395   8.304   0.151
12710WAT     H138372   3.379   8.226   0.090
12710WAT     H238373   3.368   8.281   0.244
12711WAT      O38374   1.639   1.336   6.280
12711WAT     H138375   1.591   1.317   6.194
12711WAT     H238376   1.575   1.379   6.344
12712WAT      O38377   7.757   3.012   0.393
12712WAT     H138378   7.800   2.927   0.362
12712WAT     H238379   7.723   3.000   0.486
12713WAT      O38380   1.205   1.652   8.224
12713WAT     H138381   1.140   1.726   8.238
12713WAT     H238382   1.159   1.564   8.234
12714WAT      O38383   2.970   5.226   8.589
12714WAT     H138384   2.900   5.272   8.536
12714WAT     H238385   2.988   5.278   8.673
12715WAT      O38386   0.517   1.900   4.826
12715WAT     H138387   0.500   1.805   4.851
12715WAT     H238388   0.464   1.923   4.745
12716WAT      O38389   7.497   4.921   5.847
12716WAT     H138390   7.546   4.849   5.897
12716WAT     H238391   7.449   4.882   5.769
12717WAT      O38392   1.611   8.712   6.222
12717WAT     H138393   1.528   8.713   6.165
12717WAT     H238394   1.690   8.687   6.165
12718WAT      O38395   3.829   2.646   0.196
12718WAT     H138396   3.786   2.711   0.258
12718WAT     H238397   3.760   2.582   0.162
12719WAT      O38398   6.893   3.066   1.485
12719WAT     H138399   6.883   3.108   1.395
12719WAT     H238400   6.836   2.984   1.490
12720WAT      O38401   5.750   9.163   9.835
12720WAT     H138402   5.818   9.099   9.872
12720WAT     H238403   5.769   9.255   9.869
12721WAT      O38404   7.261   1.678   3.474
12721WAT     H138405   7.163   1.661   3.476
12721WAT     H238406   7.278   1.771   3.440
12722WAT      O38407   6.757   1.290   1.863
12722WAT     H138408   6.748   1.366   1.927
12722WAT     H238409   6.817   1.220   1.902
12723WAT      O38410   9.812   0.333   5.271
12723WAT     H138411   9.793   0.345   5.174
12723WAT     H238412   9.884   0.396   5.299
12724WAT      O38413   0.327   0.008   4.786
12724WAT     H138414   0.255   0.045   4.844
12724WAT     H238415   0.402  -0.026   4.843
12725WAT      O38416   1.750   5.697   1.112
12725WAT     H138417   1.789   5.674   1.022
12725WAT     H238418   1.651   5.705   1.104
12726WAT      O38419   8.760   5.280   8.728
12726WAT     H138420   8.842   5.323   8.688
12726WAT     H238421   8.748   5.313   8.822
12727WAT      O38422   4.289   7.960   2.364
12727WAT     H138423   4.254   7.979   2.455
12727WAT     H238424   4.329   8.044   2.325
12728WAT      O38425   9.184   9.285   3.816
12728WAT     H138426   9.284   9.297   3.813
12728WAT     H238427   9.148   9.334   3.896
12729WAT      O38428   7.079   7.436   4.127
12729WAT     H138429   7.071   7.447   4.226
12729WAT     H238430   7.016   7.365   4.096
12730WAT      O38431   6.347   1.267   9.055
12730WAT     H138432   6.441   1.300   9.062
12730WAT     H238433   6.284   1.339   9.086
12731WAT      O38434   5.191   2.122   2.228
12731WAT     H138435   5.197   2.188   2.153
12731WAT     H238436   5.100   2.128   2.271
12732WAT      O38437   6.353   1.103   5.271
12732WAT     H138438   6.305   1.024   5.232
12732WAT     H238439   6.290   1.180   5.278
12733WAT      O38440   0.307   6.537   4.099
12733WAT     H138441   0.250   6.618   4.115
12733WAT     H238442   0.343   6.504   4.186
12734WAT      O38443   2.145   6.340   5.369
12734WAT     H138444   2.097   6.252   5.368
12734WAT     H238445   2.078   6.414   5.366
12735WAT      O38446   0.536   0.089   0.497
12735WAT     H138447   0.537   0.075   0.596
12735WAT     H238448   0.575   0.179   0.475
12736WAT      O38449   4.656   3.144   8.508
12736WAT     H138450   4.718   3.212   8.468
12736WAT     H238451   4.621   3.085   8.435
12737WAT      O38452   9.492   6.855   1.971
12737WAT     H138453   9.400   6.818   1.983
12737WAT     H238454   9.555   6.809   2.033
12738WAT      O38455   8.709   4.316   1.175
12738WAT     H138456   8.610   4.323   1.190
12738WAT     H238457   8.757   4.333   1.262
12739WAT      O38458   0.745   3.785   1.610
12739WAT     H138459   0.741   3.727   1.692
12739WAT     H238460   0.727   3.730   1.529
12740WAT      O38461   9.290   8.609   6.655
12740WAT     H138462   9.241   8.551   6.721
12740WAT     H238463   9.288   8.565   6.565
12741WAT      O38464   2.327   8.142   2.497
12741WAT     H138465   2.292   8.089   2.420
12741WAT     H238466   2.405   8.196   2.467
12742WAT      O38467   4.703   2.742   8.570
12742WAT     H138468   4.618   2.759   8.520
12742WAT     H238469   4.723   2.821   8.629
12743WAT      O38470   0.631   9.418   3.981
12743WAT     H138471   0.684   9.336   3.999
12743WAT     H238472   0.658   9.490   4.045
12744WAT      O38473   9.324   2.287   8.503
12744WAT     H138474   9.263   2.234   8.443
12744WAT     H238475   9.331   2.380   8.468
12745WAT      O38476   2.285   6.593   5.958
12745WAT     H138477   2.284   6.684   6.001
12745WAT     H238478   2.379   6.560   5.952
12746WAT      O38479   9.443   3.838   2.704
12746WAT     H138480   9.439   3.833   2.804
12746WAT     H238481   9.497   3.762   2.668
12747WAT      O38482   6.028   5.207   2.556
12747WAT     H138483   6.050   5.300   2.585
12747WAT     H238484   5.932   5.203   2.525
12748WAT      O38485   3.731   2.746   8.790
12748WAT     H138486   3.801   2.803   8.834
12748WAT     H238487   3.765   2.653   8.779
12749WAT      O38488   3.531   6.473   1.142
12749WAT     H138489   3.499   6.387   1.180
12749WAT     H238490   3.461   6.511   1.081
12750WAT      O38491   2.059   6.830   0.182
12750WAT     H138492   2.120   6.767   0.135
12750WAT     H238493   1.971   6.833   0.136
12751WAT      O38494   7.983   7.408   7.995
12751WAT     H138495   7.959   7.468   7.920
12751WAT     H238496   8.031   7.460   8.066
12752WAT      O38497   9.475   7.455   9.208
12752WAT     H138498   9.480   7.356   9.222
12752WAT     H238499   9.379   7.483   9.208
12753WAT      O38500   5.578   3.773   7.780
12753WAT     H138501   5.521   3.780   7.698
12753WAT     H238502   5.623   3.683   7.782
12754WAT      O38503   0.731   8.520   9.517
12754WAT     H138504   0.725   8.602   9.461
12754WAT     H238505   0.785   8.451   9.470
12755WAT      O38506   3.530   7.385   8.110
12755WAT     H138507   3.445   7.334   8.122
12755WAT     H238508   3.586   7.378   8.192
12756WAT      O38509   1.472   8.337   2.621
12756WAT     H138510   1.534   8.320   2.544
12756WAT     H238511   1.442   8.432   2.619
12757WAT      O38512   9.775   9.354   4.321
12757WAT     H138513   9.784   9.280   4.254
12757WAT     H238514   9.770   9.442   4.274
12758WAT      O38515   3.746   4.511   2.226
12758WAT     H138516   3.721   4.426   2.272
12758WAT     H238517   3.683   4.583   2.253
12759WAT      O38518   4.584   6.978   4.113
12759WAT     H138519   4.519   6.954   4.186
12759WAT     H238520   4.591   6.903   4.048
12760WAT      O38521   0.967   1.215   2.271
12760WAT     H138522   0.881   1.267   2.278
12760WAT     H238523   1.022   1.230   2.353
12761WAT      O38524   2.395   8.283   2.759
12761WAT     H138525   2.427   8.360   2.705
12761WAT     H238526   2.418   8.198   2.711
12762WAT      O38527   1.408   6.143   9.270
12762WAT     H138528   1.371   6.091   9.192
12762WAT     H238529   1.450   6.079   9.335
12763WAT      O38530   8.577   2.426   2.137
12763WAT     H138531   8.489   2.448   2.180
12763WAT     H238532   8.584   2.327   2.124
12764WAT      O38533   3.298   9.813   5.726
12764WAT     H138534   3.392   9.782   5.714
12764WAT     H238535   3.277   9.884   5.658
12765WAT      O38536   2.821   0.505   2.806
12765WAT     H138537   2.742   0.444   2.798
12765WAT     H238538   2.903   0.451   2.824
12766WAT      O38539   2.908   3.954   5.531
12766WAT     H138540   2.821   3.934   5.485
12766WAT     H238541   2.890   3.988   5.623
12767WAT      O38542   8.640   8.219   5.932
12767WAT     H138543   8.683   8.264   6.010
12767WAT     H238544   8.569   8.279   5.894
12768WAT      O38545   3.416   8.701   5.859
12768WAT     H138546   3.443   8.796   5.852
12768WAT     H238547   3.334   8.685   5.804
12769WAT      O38548   4.968   5.359   3.086
12769WAT     H138549   4.933   5.395   3.172
12769WAT     H238550   4.901   5.374   3.014
12770WAT      O38551   9.738   7.567   0.680
12770WAT     H138552   9.694   7.656   0.682
12770WAT     H238553   9.831   7.575   0.718
12771WAT      O38554   1.978   3.078   0.345
12771WAT     H138555   1.940   3.003   0.399
12771WAT     H238556   1.985   3.049   0.249
12772WAT      O38557   1.322   6.097   1.735
12772WAT     H138558   1.371   6.016   1.702
12772WAT     H238559   1.298   6.084   1.831
12773WAT      O38560   4.233   2.871   4.760
12773WAT     H138561   4.296   2.941   4.794
12773WAT     H238562   4.162   2.855   4.829
12774WAT      O38563   4.041   3.280   8.975
12774WAT     H138564   4.038   3.297   8.876
12774WAT     H238565   4.129   3.312   9.011
12775WAT      O38566   8.795   5.606   5.487
12775WAT     H138567   8.847   5.613   5.402
12775WAT     H238568   8.746   5.692   5.503
12776WAT      O38569   0.942   0.056   8.689
12776WAT     H138570   0.887   0.061   8.773
12776WAT     H238571   1.038   0.067   8.712
12777WAT      O38572   9.308   3.494   2.745
12777WAT     H138573   9.388   3.543   2.711
12777WAT     H238574   9.285   3.419   2.683
12778WAT      O38575   6.966   5.309   2.006
12778WAT     H138576   6.913   5.383   1.964
12778WAT     H238577   7.057   5.306   1.967
12779WAT      O38578   5.499   0.336   2.952
12779WAT     H138579   5.527   0.248   2.991
12779WAT     H238580   5.451   0.320   2.865
12780WAT      O38581   8.382   0.066   1.219
12780WAT     H138582   8.422   0.054   1.310
12780WAT     H238583   8.309   0.134   1.223
12781WAT      O38584   3.163   0.674   4.122
12781WAT     H138585   3.241   0.619   4.151
12781WAT     H238586   3.119   0.631   4.044
12782WAT      O38587   0.288   6.800   7.423
12782WAT     H138588   0.325   6.721   7.375
12782WAT     H238589   0.217   6.771   7.486
12783WAT      O38590   3.967   4.698   3.189
12783WAT     H138591   3.974   4.639   3.109
12783WAT     H238592   4.059   4.717   3.224
12784WAT      O38593   1.616   6.699   1.338
12784WAT     H138594   1.549   6.625   1.342
12784WAT     H238595   1.575   6.780   1.297
12785WAT      O38596   5.592   3.259   5.840
12785WAT     H138597   5.521   3.314   5.795
12785WAT     H238598   5.583   3.269   5.939
12786WAT      O38599   2.830   6.578   7.883
12786WAT     H138600   2.841   6.576   7.783
12786WAT     H238601   2.770   6.654   7.908
12787WAT      O38602   8.411   5.443   0.909
12787WAT     H138603   8.468   5.473   0.832
12787WAT     H238604   8.465   5.385   0.970
12788WAT      O38605   6.475   4.074   5.388
12788WAT     H138606   6.510   4.126   5.466
12788WAT     H238607   6.381   4.044   5.408
12789WAT      O38608   0.944   4.689   3.718
12789WAT     H138609   0.916   4.762   3.655
12789WAT     H238610   0.959   4.605   3.667
12790WAT      O38611   3.435   6.281   7.200
12790WAT     H138612   3.504   6.210   7.189
12790WAT     H238613   3.478   6.363   7.239
12791WAT      O38614   3.269   6.561   8.534
12791WAT     H138615   3.333   6.584   8.460
12791WAT     H238616   3.176   6.587   8.507
12792WAT      O38617   9.269   4.853   1.316
12792WAT     H138618   9.319   4.928   1.360
12792WAT     H238619   9.335   4.782   1.287
12793WAT      O38620   2.958   3.456   8.463
12793WAT     H138621   2.940   3.424   8.370
12793WAT     H238622   3.049   3.497   8.467
12794WAT      O38623   3.239   6.892   3.089
12794WAT     H138624   3.147   6.865   3.059
12794WAT     H238625   3.285   6.941   3.016
12795WAT      O38626   5.948   0.295   2.734
12795WAT     H138627   5.895   0.211   2.718
12795WAT     H238628   6.039   0.272   2.767
12796WAT      O38629   6.227   9.832   5.559
12796WAT     H138630   6.299   9.856   5.494
12796WAT     H238631   6.268   9.789   5.640
12797WAT      O38632   4.255   8.433   8.115
12797WAT     H138633   4.306   8.493   8.177
12797WAT     H238634   4.177   8.484   8.078
12798WAT      O38635   3.447   9.425   7.381
12798WAT     H138636   3.459   9.327   7.372
12798WAT     H238637   3.371   9.456   7.324
12799WAT      O38638   1.335   4.084   4.637
12799WAT     H138639   1.263   4.100   4.569
12799WAT     H238640   1.298   4.027   4.711
12800WAT      O38641   3.354   7.903   4.427
12800WAT     H138642   3.319   7.810   4.437
12800WAT     H238643   3.385   7.937   4.516
12801WAT      O38644   6.117   2.184   6.939
12801WAT     H138645   6.076   2.095   6.918
12801WAT     H238646   6.080   2.253   6.876
12802WAT      O38647   8.407   8.694   5.175
12802WAT     H138648   8.362   8.640   5.104
12802WAT     H238649   8.347   8.699   5.255
12803WAT      O38650   6.243   3.129   2.559
12803WAT     H138651   6.211   3.202   2.499
12803WAT     H238652   6.275   3.168   2.645
12804WAT      O38653   4.077   0.673   0.873
12804WAT     H138654   4.059   0.718   0.960
12804WAT     H238655   4.067   0.574   0.883
12805WAT      O38656   6.535   8.793   6.200
12805WAT     H138657   6.555   8.748   6.113
12805WAT     H238658   6.539   8.726   6.274
12806WAT      O38659   4.737   2.718   5.340
12806WAT     H138660   4.672   2.654   5.301
12806WAT     H238661   4.691   2.775   5.408
12807WAT      O38662   6.793   3.620   1.534
12807WAT     H138663   6.867   3.684   1.556
12807WAT     H238664   6.733   3.611   1.613
12808WAT      O38665   1.340   1.035   3.110
12808WAT     H138666   1.384   1.011   3.196
12808WAT     H238667   1.378   1.121   3.075
12809WAT      O38668   1.261   6.783   2.426
12809WAT     H138669   1.331   6.813   2.362
12809WAT     H238670   1.263   6.841   2.507
12810WAT      O38671   0.040   7.121   4.956
12810WAT     H138672  -0.004   7.202   4.994
12810WAT     H238673   0.131   7.145   4.922
12811WAT      O38674   4.877   5.196   2.743
12811WAT     H138675   4.951   5.205   2.676
12811WAT     H238676   4.867   5.282   2.793
12812WAT      O38677   8.526   2.382   7.542
12812WAT     H138678   8.452   2.436   7.582
12812WAT     H238679   8.498   2.348   7.452
12813WAT      O38680   5.263   3.825   1.045
12813WAT     H138681   5.235   3.757   1.113
12813WAT     H238682   5.265   3.916   1.088
12814WAT      O38683   3.682   1.836   1.782
12814WAT     H138684   3.621   1.824   1.860
12814WAT     H238685   3.771   1.796   1.803
12815WAT      O38686   7.421   4.534   8.958
12815WAT     H138687   7.380   4.621   8.985
12815WAT     H238688   7.475   4.497   9.034
12816WAT      O38689   3.383   3.269   3.662
12816WAT     H138690   3.331   3.237   3.741
12816WAT     H238691   3.322   3.323   3.602
12817WAT      O38692   4.017   3.731   2.034
12817WAT     H138693   4.042   3.808   2.093
12817WAT     H238694   4.099   3.691   1.994
12818WAT      O38695   3.992   8.507   8.115
12818WAT     H138696   3.947   8.592   8.088
12818WAT     H238697   3.961   8.432   8.056
12819WAT      O38698   1.407   0.910   8.255
12819WAT     H138699   1.384   0.912   8.157
12819WAT     H238700   1.322   0.905   8.308
12820WAT      O38701   2.208   5.022   4.144
12820WAT     H138702   2.177   5.115   4.122
12820WAT     H238703   2.291   5.026   4.199
12821WAT      O38704   5.511   2.954   2.797
12821WAT     H138705   5.480   2.968   2.704
12821WAT     H238706   5.533   3.042   2.839
12822WAT      O38707   5.984   0.335   8.743
12822WAT     H138708   5.945   0.259   8.690
12822WAT     H238709   5.937   0.342   8.831
12823WAT      O38710   9.674   9.181   5.927
12823WAT     H138711   9.698   9.088   5.900
12823WAT     H238712   9.758   9.232   5.947
12824WAT      O38713   5.091   1.117   9.854
12824WAT     H138714   5.167   1.181   9.859
12824WAT     H238715   5.106   1.052   9.780
12825WAT      O38716   0.124   0.791   9.826
12825WAT     H138717   0.168   0.881   9.832
12825WAT     H238718   0.142   0.739   9.909
12826WAT      O38719   4.300   1.328   0.244
12826WAT     H138720   4.361   1.407   0.235
12826WAT     H238721   4.222   1.340   0.183
12827WAT      O38722   0.538   8.967   1.971
12827WAT     H138723   0.630   8.926   1.967
12827WAT     H238724   0.502   8.956   2.064
12828WAT      O38725   4.750   6.273   7.533
12828WAT     H138726   4.723   6.298   7.440
12828WAT     H238727   4.846   6.245   7.533
12829WAT      O38728   0.154   0.960   8.258
12829WAT     H138729   0.130   0.991   8.166
12829WAT     H238730   0.086   0.993   8.323
12830WAT      O38731   5.015   3.824   9.040
12830WAT     H138732   5.007   3.743   9.098
12830WAT     H238733   5.017   3.906   9.097
12831WAT      O38734   7.319   1.645   1.907
12831WAT     H138735   7.344   1.549   1.897
12831WAT     H238736   7.371   1.700   1.843
12832WAT      O38737   4.771   6.159   9.374
12832WAT     H138738   4.793   6.239   9.319
12832WAT     H238739   4.784   6.180   9.471
12833WAT      O38740   4.322   9.375   6.896
12833WAT     H138741   4.365   9.338   6.979
12833WAT     H238742   4.385   9.438   6.851
12834WAT      O38743   2.329   5.487   6.071
12834WAT     H138744   2.403   5.547   6.102
12834WAT     H238745   2.268   5.539   6.012
12835WAT      O38746   9.592   9.108   5.088
12835WAT     H138747   9.626   9.032   5.032
12835WAT     H238748   9.586   9.078   5.184
12836WAT      O38749   0.096   2.014   3.922
12836WAT     H138750   0.059   1.946   3.985
12836WAT     H238751   0.074   1.989   3.828
12837WAT      O38752   2.070   2.448   0.083
12837WAT     H138753   2.029   2.358   0.099
12837WAT     H238754   2.027   2.516   0.143
12838WAT      O38755   2.498   4.421   6.009
12838WAT     H138756   2.551   4.505   6.010
12838WAT     H238757   2.414   4.435   5.957
12839WAT      O38758   2.425   9.361   6.753
12839WAT     H138759   2.441   9.441   6.696
12839WAT     H238760   2.338   9.319   6.729
12840WAT      O38761   5.377   2.721   5.151
12840WAT     H138762   5.425   2.794   5.102
12840WAT     H238763   5.370   2.746   5.248
12841WAT      O38764   6.588   1.523   1.495
12841WAT     H138765   6.508   1.560   1.447
12841WAT     H238766   6.671   1.565   1.458
12842WAT      O38767   2.429   9.600   0.539
12842WAT     H138768   2.330   9.610   0.551
12842WAT     H238769   2.452   9.604   0.441
12843WAT      O38770   2.199   1.750   4.612
12843WAT     H138771   2.139   1.822   4.576
12843WAT     H238772   2.221   1.770   4.707
12844WAT      O38773   2.326   1.862   0.086
12844WAT     H138774   2.413   1.833   0.047
12844WAT     H238775   2.304   1.805   0.166
12845WAT      O38776   1.127   8.965   0.050
12845WAT     H138777   1.059   8.892   0.039
12845WAT     H238778   1.099   9.026   0.124
12846WAT      O38779   2.326   6.831   9.044
12846WAT     H138780   2.241   6.797   9.003
12846WAT     H238781   2.344   6.924   9.010
12847WAT      O38782   8.563   1.152   9.327
12847WAT     H138783   8.487   1.211   9.352
12847WAT     H238784   8.634   1.156   9.397
12848WAT      O38785   5.716   6.362   7.449
12848WAT     H138786   5.762   6.390   7.365
12848WAT     H238787   5.696   6.443   7.504
12849WAT      O38788   3.290   2.910   2.436
12849WAT     H138789   3.260   2.963   2.356
12849WAT     H238790   3.283   2.812   2.416
12850WAT      O38791   3.939   9.617   8.074
12850WAT     H138792   3.853   9.661   8.046
12850WAT     H238793   3.991   9.681   8.131
12851WAT      O38794   1.179   3.459   0.437
12851WAT     H138795   1.151   3.370   0.402
12851WAT     H238796   1.212   3.449   0.531
12852WAT      O38797   9.720   8.257   1.567
12852WAT     H138798   9.751   8.168   1.531
12852WAT     H238799   9.631   8.246   1.611
12853WAT      O38800   1.553   1.918   7.220
12853WAT     H138801   1.592   1.835   7.259
12853WAT     H238802   1.471   1.944   7.270
12854WAT      O38803   0.128   9.766   0.408
12854WAT     H138804   0.153   9.693   0.345
12854WAT     H238805   0.028   9.774   0.410
12855WAT      O38806   1.037   0.523   8.114
12855WAT     H138807   1.113   0.463   8.140
12855WAT     H238808   0.966   0.519   8.185
12856WAT      O38809   9.218   0.952   8.266
12856WAT     H138810   9.214   1.029   8.202
12856WAT     H238811   9.305   0.905   8.256
12857WAT      O38812   5.277   0.017   0.762
12857WAT     H138813   5.260   0.032   0.664
12857WAT     H238814   5.266  -0.080   0.783
12858WAT      O38815   5.621   0.536   8.098
12858WAT     H138816   5.567   0.527   8.015
12858WAT     H238817   5.717   0.515   8.078
12859WAT      O38818   4.373   7.996   1.266
12859WAT     H138819   4.294   8.057   1.262
12859WAT     H238820   4.377   7.951   1.355
12860WAT      O38821   0.238   3.081   8.176
12860WAT     H138822   0.159   3.141   8.161
12860WAT     H238823   0.208   2.986   8.181
12861WAT      O38824   1.286   9.208   7.148
12861WAT     H138825   1.306   9.301   7.177
12861WAT     H238826   1.266   9.207   7.050
12862WAT      O38827   1.586   8.998   9.236
12862WAT     H138828   1.511   8.933   9.222
12862WAT     H238829   1.671   8.958   9.203
12863WAT      O38830   2.634   1.675   0.303
12863WAT     H138831   2.573   1.646   0.229
12863WAT     H238832   2.607   1.630   0.388
12864WAT      O38833   2.522   3.854   4.867
12864WAT     H138834   2.502   3.756   4.868
12864WAT     H238835   2.614   3.870   4.903
12865WAT      O38836   1.461   8.679   8.913
12865WAT     H138837   1.499   8.587   8.903
12865WAT     H238838   1.373   8.684   8.865
12866WAT      O38839   8.692   1.770   9.291
12866WAT     H138840   8.702   1.831   9.212
12866WAT     H238841   8.621   1.806   9.352
12867WAT      O38842   3.618   2.480   1.609
12867WAT     H138843   3.567   2.564   1.627
12867WAT     H238844   3.674   2.493   1.527
12868WAT      O38845   2.593   1.037   8.376
12868WAT     H138846   2.671   1.051   8.314
12868WAT     H238847   2.599   0.946   8.417
12869WAT      O38848   3.689   5.532   8.147
12869WAT     H138849   3.738   5.446   8.160
12869WAT     H238850   3.745   5.593   8.090
12870WAT      O38851   4.731   2.059   6.048
12870WAT     H138852   4.781   2.121   5.987
12870WAT     H238853   4.781   2.052   6.135
12871WAT      O38854   3.882   2.962   5.800
12871WAT     H138855   3.922   3.052   5.781
12871WAT     H238856   3.838   2.964   5.890
12872WAT      O38857   1.878   8.346   2.315
12872WAT     H138858   1.843   8.365   2.223
12872WAT     H238859   1.965   8.298   2.308
12873WAT      O38860   1.354   0.539   4.030
12873WAT     H138861   1.423   0.552   3.959
12873WAT     H238862   1.399   0.533   4.119
12874WAT      O38863   1.796   0.029   9.627
12874WAT     H138864   1.769   0.109   9.573
12874WAT     H238865   1.887  -0.002   9.598
12875WAT      O38866   2.211   4.847   2.670
12875WAT     H138867   2.196   4.938   2.632
12875WAT     H238868   2.134   4.821   2.727
12876WAT      O38869   8.844   2.571   4.640
12876WAT     H138870   8.937   2.587   4.672
12876WAT     H238871   8.846   2.524   4.552
12877WAT      O38872   6.719   5.182   5.896
12877WAT     H138873   6.750   5.250   5.829
12877WAT     H238874   6.628   5.206   5.928
12878WAT      O38875   5.244   3.916   3.045
12878WAT     H138876   5.214   3.869   2.962
12878WAT     H238877   5.198   3.877   3.125
12879WAT      O38878   4.707   6.532   1.240
12879WAT     H138879   4.796   6.504   1.205
12879WAT     H238880   4.658   6.583   1.169
12880WAT      O38881   9.023   7.026   8.841
12880WAT     H138882   9.037   7.055   8.747
12880WAT     H238883   9.112   7.002   8.882
12881WAT      O38884   9.707   8.744   3.990
12881WAT     H138885   9.642   8.681   3.947
12881WAT     H238886   9.796   8.699   3.997
12882WAT      O38887   8.706   5.546   3.094
12882WAT     H138888   8.625   5.527   3.039
12882WAT     H238889   8.680   5.569   3.187
12883WAT      O38890   1.897   7.569   5.655
12883WAT     H138891   1.931   7.478   5.677
12883WAT     H238892   1.874   7.574   5.558
12884WAT      O38893   3.763   1.808   3.107
12884WAT     H138894   3.862   1.804   3.117
12884WAT     H238895   3.723   1.859   3.183
12885WAT      O38896   1.381   2.897   1.949
12885WAT     H138897   1.473   2.860   1.940
12885WAT     H238898   1.352   2.892   2.044
12886WAT      O38899   4.879   0.576   8.712
12886WAT     H138900   4.817   0.585   8.634
12886WAT     H238901   4.835   0.522   8.784
12887WAT      O38902   2.317   6.904   2.521
12887WAT     H138903   2.399   6.873   2.568
12887WAT     H238904   2.321   7.003   2.509
12888WAT      O38905   9.579   8.386   6.479
12888WAT     H138906   9.577   8.286   6.474
12888WAT     H238907   9.487   8.420   6.498
12889WAT      O38908   4.726   2.048   4.959
12889WAT     H138909   4.810   2.075   5.007
12889WAT     H238910   4.660   2.013   5.025
12890WAT      O38911   2.730   2.132   7.567
12890WAT     H138912   2.746   2.217   7.516
12890WAT     H238913   2.657   2.146   7.633
12891WAT      O38914   1.887   7.961   7.667
12891WAT     H138915   1.949   8.039   7.656
12891WAT     H238916   1.886   7.933   7.762
12892WAT      O38917   0.678   5.228   1.200
12892WAT     H138918   0.606   5.271   1.254
12892WAT     H238919   0.672   5.129   1.209
12893WAT      O38920   1.335   4.363   6.495
12893WAT     H138921   1.274   4.440   6.476
12893WAT     H238922   1.332   4.341   6.592
12894WAT      O38923   9.360   0.058   9.259
12894WAT     H138924   9.347   0.018   9.350
12894WAT     H238925   9.339   0.156   9.263
12895WAT      O38926   4.553   6.539   2.637
12895WAT     H138927   4.524   6.588   2.554
12895WAT     H238928   4.556   6.603   2.714
12896WAT      O38929   0.818   7.199   5.442
12896WAT     H138930   0.903   7.187   5.493
12896WAT     H238931   0.763   7.270   5.486
12897WAT      O38932   2.385   4.921   9.736
12897WAT     H138933   2.350   4.868   9.813
12897WAT     H238934   2.463   4.873   9.695
12898WAT      O38935   8.102   4.085   7.191
12898WAT     H138936   8.029   4.089   7.123
12898WAT     H238937   8.170   4.156   7.173
12899WAT      O38938   1.675   3.267   5.451
12899WAT     H138939   1.700   3.308   5.539
12899WAT     H238940   1.639   3.175   5.467
12900WAT      O38941   9.366   3.087   7.556
12900WAT     H138942   9.268   3.089   7.537
12900WAT     H238943   9.400   3.181   7.566
12901WAT      O38944   5.665   8.187   0.181
12901WAT     H138945   5.695   8.261   0.242
12901WAT     H238946   5.684   8.213   0.086
12902WAT      O38947   8.159   3.379   1.832
12902WAT     H138948   8.167   3.418   1.924
12902WAT     H238949   8.216   3.432   1.768
12903WAT      O38950   5.537   2.335   7.844
12903WAT     H138951   5.543   2.415   7.903
12903WAT     H238952   5.470   2.271   7.881
12904WAT      O38953   8.027   4.962   4.956
12904WAT     H138954   8.041   5.052   4.997
12904WAT     H238955   8.084   4.953   4.874
12905WAT      O38956   6.161   4.161   2.759
12905WAT     H138957   6.161   4.174   2.859
12905WAT     H238958   6.118   4.241   2.716
12906WAT      O38959   0.692   3.524   6.298
12906WAT     H138960   0.756   3.468   6.246
12906WAT     H238961   0.600   3.516   6.259
12907WAT      O38962   2.824   5.002   5.336
12907WAT     H138963   2.853   5.071   5.270
12907WAT     H238964   2.764   5.043   5.404
12908WAT      O38965   1.453   9.518   1.703
12908WAT     H138966   1.434   9.421   1.692
12908WAT     H238967   1.379   9.571   1.661
12909WAT      O38968   4.526   1.069   1.550
12909WAT     H138969   4.519   1.044   1.647
12909WAT     H238970   4.596   1.013   1.506
12910WAT      O38971   9.425   3.718   9.204
12910WAT     H138972   9.428   3.633   9.256
12910WAT     H238973   9.353   3.777   9.239
12911WAT      O38974   8.369   0.403   3.587
12911WAT     H138975   8.408   0.445   3.505
12911WAT     H238976   8.443   0.380   3.650
12912WAT      O38977   6.340   3.793   0.199
12912WAT     H138978   6.334   3.893   0.208
12912WAT     H238979   6.339   3.769   0.102
12913WAT      O38980   3.386   2.621   0.053
12913WAT     H138981   3.362   2.623  -0.044
12913WAT     H238982   3.430   2.708   0.079
12914WAT      O38983   0.531   8.799   1.569
12914WAT     H138984   0.501   8.789   1.664
12914WAT     H238985   0.532   8.710   1.524
12915WAT      O38986   6.339   3.386   2.146
12915WAT     H138987   6.385   3.434   2.071
12915WAT     H238988   6.405   3.362   2.216
12916WAT      O38989   7.398   8.720   1.993
12916WAT     H138990   7.411   8.642   2.053
12916WAT     H238991   7.463   8.716   1.917
12917WAT      O38992   7.672   1.264   7.462
12917WAT     H138993   7.664   1.191   7.530
12917WAT     H238994   7.710   1.225   7.378
12918WAT      O38995   1.936   1.536   9.841
12918WAT     H138996   1.887   1.623   9.845
12918WAT     H238997   1.971   1.513   9.932
12919WAT      O38998   0.436   2.815   0.401
12919WAT     H138999   0.459   2.789   0.308
12919WAT     H239000   0.437   2.734   0.460
12920WAT      O39001   9.229   0.646   6.234
12920WAT     H139002   9.316   0.597   6.232
12920WAT     H239003   9.224   0.701   6.317
12921WAT      O39004   0.746   0.627   6.246
12921WAT     H139005   0.840   0.601   6.266
12921WAT     H239006   0.741   0.671   6.157
12922WAT      O39007   3.461   6.695   9.219
12922WAT     H139008   3.411   6.763   9.166
12922WAT     H239009   3.399   6.653   9.286
12923WAT      O39010   9.182   7.079   7.804
12923WAT     H139011   9.227   7.021   7.736
12923WAT     H239012   9.137   7.020   7.872
12924WAT      O39013   7.913   4.426   5.536
12924WAT     H139014   7.938   4.373   5.617
12924WAT     H239015   7.916   4.367   5.455
12925WAT      O39016   5.359   5.972   5.602
12925WAT     H139017   5.414   5.920   5.667
12925WAT     H239018   5.262   5.949   5.616
12926WAT      O39019   8.951   8.093   6.493
12926WAT     H139020   8.952   8.026   6.567
12926WAT     H239021   9.020   8.068   6.424
12927WAT      O39022   1.779   6.596   5.152
12927WAT     H139023   1.821   6.538   5.082
12927WAT     H239024   1.684   6.569   5.166
12928WAT      O39025   5.202   9.775   4.755
12928WAT     H139026   5.128   9.785   4.822
12928WAT     H239027   5.172   9.809   4.666
12929WAT      O39028   2.010   3.166   7.914
12929WAT     H139029   2.077   3.194   7.846
12929WAT     H239030   1.957   3.245   7.944
12930WAT      O39031   9.332   5.521   2.039
12930WAT     H139032   9.367   5.613   2.023
12930WAT     H239033   9.272   5.495   1.963
12931WAT      O39034   8.791   5.947   3.349
12931WAT     H139035   8.765   5.923   3.442
12931WAT     H239036   8.731   5.899   3.284
12932WAT      O39037   5.095   2.416   5.822
12932WAT     H139038   5.022   2.471   5.781
12932WAT     H239039   5.120   2.342   5.759
12933WAT      O39040   0.197   8.484   3.081
12933WAT     H139041   0.173   8.391   3.105
12933WAT     H239042   0.296   8.490   3.067
12934WAT      O39043   5.325   1.726   5.150
12934WAT     H139044   5.236   1.701   5.113
12934WAT     H239045   5.318   1.737   5.249
12935WAT      O39046   1.028   7.240   7.104
12935WAT     H139047   1.009   7.197   7.193
12935WAT     H239048   0.942   7.251   7.054
12936WAT      O39049   8.062   5.740   3.444
12936WAT     H139050   8.040   5.668   3.378
12936WAT     H239051   8.155   5.727   3.478
12937WAT      O39052   6.211   2.647   5.340
12937WAT     H139053   6.242   2.565   5.292
12937WAT     H239054   6.111   2.654   5.333
12938WAT      O39055   6.202   7.893   8.066
12938WAT     H139056   6.258   7.812   8.083
12938WAT     H239057   6.241   7.945   7.990
12939WAT      O39058   4.185   3.469   9.687
12939WAT     H139059   4.235   3.536   9.631
12939WAT     H239060   4.109   3.431   9.633
12940WAT      O39061   8.319   0.459   8.046
12940WAT     H139062   8.361   0.379   8.087
12940WAT     H239063   8.339   0.540   8.102
12941WAT      O39064   2.681   9.706   6.906
12941WAT     H139065   2.667   9.804   6.919
12941WAT     H239066   2.592   9.660   6.898
12942WAT      O39067   5.861   8.454   5.613
12942WAT     H139068   5.799   8.518   5.657
12942WAT     H239069   5.927   8.419   5.680
12943WAT      O39070   4.098   1.906   0.688
12943WAT     H139071   4.164   1.923   0.615
12943WAT     H239072   4.099   1.983   0.752
12944WAT      O39073   2.487   8.670   5.069
12944WAT     H139074   2.578   8.652   5.032
12944WAT     H239075   2.422   8.683   4.995
12945WAT      O39076   2.502   8.338   8.733
12945WAT     H139077   2.592   8.379   8.715
12945WAT     H239078   2.481   8.272   8.661
12946WAT      O39079   0.156   1.144   8.647
12946WAT     H139080   0.103   1.120   8.565
12946WAT     H239081   0.098   1.198   8.709
12947WAT      O39082   2.072   2.347   7.148
12947WAT     H139083   2.098   2.354   7.245
12947WAT     H239084   2.120   2.417   7.096
12948WAT      O39085   6.640   9.262   5.000
12948WAT     H139086   6.733   9.277   4.966
12948WAT     H239087   6.626   9.316   5.083
12949WAT      O39088   2.850   7.004   5.967
12949WAT     H139089   2.905   7.029   5.887
12949WAT     H239090   2.766   6.958   5.936
12950WAT      O39091   5.249   6.118   7.239
12950WAT     H139092   5.338   6.148   7.272
12950WAT     H239093   5.259   6.076   7.149
12951WAT      O39094   3.693   1.188   1.329
12951WAT     H139095   3.653   1.123   1.394
12951WAT     H239096   3.791   1.198   1.349
12952WAT      O39097   9.889   4.675   3.342
12952WAT     H139098   9.807   4.619   3.347
12952WAT     H239099   9.896   4.716   3.251
12953WAT      O39100   3.430   3.429   5.911
12953WAT     H139101   3.354   3.468   5.859
12953WAT     H239102   3.409   3.334   5.934
12954WAT      O39103   5.151   6.975   5.135
12954WAT     H139104   5.240   7.003   5.173
12954WAT     H239105   5.146   6.875   5.130
12955WAT      O39106   0.161   3.616   3.515
12955WAT     H139107   0.149   3.566   3.430
12955WAT     H239108   0.077   3.666   3.537
12956WAT      O39109   6.308   8.078   5.927
12956WAT     H139110   6.347   7.987   5.942
12956WAT     H239111   6.381   8.147   5.933
12957WAT      O39112   5.672   8.910   0.678
12957WAT     H139113   5.702   9.005   0.672
12957WAT     H239114   5.604   8.901   0.751
12958WAT      O39115   5.650   4.034   5.583
12958WAT     H139116   5.710   3.973   5.530
12958WAT     H239117   5.695   4.059   5.668
12959WAT      O39118   7.720   8.932   0.630
12959WAT     H139119   7.624   8.911   0.649
12959WAT     H239120   7.735   9.030   0.642
12960WAT      O39121   5.282   1.261   0.758
12960WAT     H139122   5.321   1.345   0.721
12960WAT     H239123   5.200   1.236   0.705
12961WAT      O39124   9.832   6.938   2.773
12961WAT     H139125   9.799   6.917   2.866
12961WAT     H239126   9.916   6.887   2.755
12962WAT      O39127   1.835   1.256   4.676
12962WAT     H139128   1.764   1.275   4.608
12962WAT     H239129   1.924   1.283   4.640
12963WAT      O39130   6.425   1.265   8.086
12963WAT     H139131   6.467   1.355   8.096
12963WAT     H239132   6.370   1.244   8.167
12964WAT      O39133   6.172   2.486   2.284
12964WAT     H139134   6.168   2.579   2.318
12964WAT     H239135   6.266   2.463   2.259
12965WAT      O39136   9.797   8.837   5.205
12965WAT     H139137   9.855   8.756   5.200
12965WAT     H239138   9.806   8.891   5.121
12966WAT      O39139   8.815   8.066   2.655
12966WAT     H139140   8.767   8.061   2.568
12966WAT     H239141   8.912   8.048   2.641
12967WAT      O39142   5.395   2.905   3.057
12967WAT     H139143   5.364   2.995   3.084
12967WAT     H239144   5.445   2.911   2.970
12968WAT      O39145   4.653   8.947   0.428
12968WAT     H139146   4.622   8.932   0.334
12968WAT     H239147   4.676   8.860   0.471
12969WAT      O39148   7.680   6.698   6.110
12969WAT     H139149   7.746   6.705   6.185
12969WAT     H239150   7.726   6.661   6.029
12970WAT      O39151   6.299   4.845   4.626
12970WAT     H139152   6.354   4.896   4.692
12970WAT     H239153   6.237   4.784   4.675
12971WAT      O39154   4.150   0.776   1.486
12971WAT     H139155   4.124   0.870   1.506
12971WAT     H239156   4.097   0.743   1.408
12972WAT      O39157   5.358   3.032   4.599
12972WAT     H139158   5.345   2.932   4.604
12972WAT     H239159   5.390   3.066   4.687
12973WAT      O39160   8.634   1.664   8.219
12973WAT     H139161   8.645   1.719   8.302
12973WAT     H239162   8.642   1.567   8.243
12974WAT      O39163   1.485   3.273   9.540
12974WAT     H139164   1.517   3.321   9.458
12974WAT     H239165   1.561   3.221   9.580
12975WAT      O39166   4.205   3.154   4.884
12975WAT     H139167   4.156   3.185   4.802
12975WAT     H239168   4.289   3.208   4.894
12976WAT      O39169   6.840   5.172   3.826
12976WAT     H139170   6.861   5.268   3.809
12976WAT     H239171   6.856   5.150   3.922
12977WAT      O39172   6.214   4.027   2.382
12977WAT     H139173   6.283   4.042   2.453
12977WAT     H239174   6.257   4.029   2.292
12978WAT      O39175   0.444   9.443   0.118
12978WAT     H139176   0.516   9.504   0.152
12978WAT     H239177   0.450   9.439   0.018
12979WAT      O39178   5.993   7.541   2.311
12979WAT     H139179   5.907   7.492   2.311
12979WAT     H239180   6.022   7.558   2.216
12980WAT      O39181   6.733   7.540   7.816
12980WAT     H139182   6.694   7.453   7.785
12980WAT     H239183   6.833   7.533   7.818
12981WAT      O39184   9.101   7.343   6.849
12981WAT     H139185   9.043   7.361   6.929
12981WAT     H239186   9.166   7.271   6.871
12982WAT      O39187   2.387   8.972   2.023
12982WAT     H139188   2.357   9.059   1.983
12982WAT     H239189   2.408   8.908   1.949
12983WAT      O39190   7.926   9.714   7.853
12983WAT     H139191   7.880   9.625   7.862
12983WAT     H239192   7.869   9.785   7.894
12984WAT      O39193   6.868   3.982   8.240
12984WAT     H139194   6.959   4.013   8.269
12984WAT     H239195   6.811   3.964   8.320
12985WAT      O39196   5.897   8.328   5.109
12985WAT     H139197   5.841   8.403   5.074
12985WAT     H239198   5.916   8.343   5.206
12986WAT      O39199   6.704   8.026   4.293
12986WAT     H139200   6.752   8.080   4.224
12986WAT     H239201   6.770   7.995   4.362
12987WAT      O39202   1.673   0.928   4.300
12987WAT     H139203   1.727   0.993   4.246
12987WAT     H239204   1.650   0.968   4.389
12988WAT      O39205   7.345   6.026   2.573
12988WAT     H139206   7.363   5.993   2.665
12988WAT     H239207   7.270   6.093   2.576
12989WAT      O39208   0.420   4.139   9.583
12989WAT     H139209   0.387   4.045   9.596
12989WAT     H239210   0.470   4.145   9.497
12990WAT      O39211   7.562   5.139   2.616
12990WAT     H139212   7.474   5.129   2.663
12990WAT     H239213   7.627   5.185   2.676
12991WAT      O39214   9.880   3.498   1.879
12991WAT     H139215   9.853   3.591   1.854
12991WAT     H239216   9.977   3.486   1.859
12992WAT      O39217   4.196   3.855   0.460
12992WAT     H139218   4.147   3.931   0.418
12992WAT     H239219   4.249   3.806   0.390
12993WAT      O39220   0.713   2.919   5.552
12993WAT     H139221   0.739   2.837   5.603
12993WAT     H239222   0.655   2.977   5.608
12994WAT      O39223   5.430   5.121   3.154
12994WAT     H139224   5.331   5.118   3.139
12994WAT     H239225   5.472   5.181   3.085
12995WAT      O39226   2.223   2.803   2.419
12995WAT     H139227   2.259   2.721   2.462
12995WAT     H239228   2.209   2.873   2.489
12996WAT      O39229   0.785   4.240   3.143
12996WAT     H139230   0.723   4.214   3.216
12996WAT     H239231   0.759   4.192   3.059
12997WAT      O39232   4.695   5.740   0.482
12997WAT     H139233   4.697   5.713   0.578
12997WAT     H239234   4.641   5.673   0.430
12998WAT      O39235   5.145   4.789   8.343
12998WAT     H139236   5.106   4.870   8.298
12998WAT     H239237   5.188   4.816   8.429
12999WAT      O39238   9.652   5.246   6.874
12999WAT     H139239   9.576   5.186   6.898
12999WAT     H239240   9.617   5.331   6.835
13000WAT      O39241   2.691   2.223   5.942
13000WAT     H139242   2.707   2.169   6.025
13000WAT     H239243   2.767   2.287   5.930
13001WAT      O39244   7.808   5.959   1.466
13001WAT     H139245   7.780   5.896   1.538
13001WAT     H239246   7.902   5.990   1.483
13002WAT      O39247   0.051   7.972   1.156
13002WAT     H139248   0.067   7.881   1.192
13002WAT     H239249  -0.047   7.991   1.155
13003WAT      O39250   8.620   3.935   9.221
13003WAT     H139251   8.699   3.944   9.161
13003WAT     H239252   8.625   3.847   9.269
13004WAT      O39253   2.185   7.743   6.801
13004WAT     H139254   2.194   7.803   6.881
13004WAT     H239255   2.115   7.674   6.820
13005WAT      O39256   0.049   3.980   0.432
13005WAT     H139257  -0.020   3.917   0.394
13005WAT     H239258   0.080   4.042   0.360
13006WAT      O39259   6.955   4.737   3.221
13006WAT     H139260   6.859   4.738   3.194
13006WAT     H239261   7.005   4.808   3.171
13007WAT      O39262   1.240   3.886   8.830
13007WAT     H139263   1.154   3.909   8.877
13007WAT     H239264   1.266   3.793   8.852
13008WAT      O39265   7.229   3.911   3.289
13008WAT     H139266   7.203   3.819   3.321
13008WAT     H239267   7.146   3.966   3.276
13009WAT      O39268   2.196   9.356   8.012
13009WAT     H139269   2.237   9.268   8.038
13009WAT     H239270   2.101   9.341   7.985
13010WAT      O39271   0.773   0.605   4.557
13010WAT     H139272   0.837   0.622   4.482
13010WAT     H239273   0.690   0.659   4.543
13011WAT      O39274   6.987   4.351   3.633
13011WAT     H139275   6.971   4.434   3.687
13011WAT     H239276   7.078   4.315   3.654
13012WAT      O39277   4.862   6.181   1.361
13012WAT     H139278   4.867   6.256   1.428
13012WAT     H239279   4.838   6.096   1.408
13013WAT      O39280   1.838   2.217   1.100
13013WAT     H139281   1.804   2.243   1.191
13013WAT     H239282   1.782   2.143   1.063
13014WAT      O39283   2.005   2.131   9.760
13014WAT     H139284   1.990   2.143   9.858
13014WAT     H239285   2.084   2.071   9.746
13015WAT      O39286   2.512   3.709   8.053
13015WAT     H139287   2.428   3.729   8.104
13015WAT     H239288   2.489   3.687   7.958
13016WAT      O39289   1.396   2.660   5.576
13016WAT     H139290   1.317   2.721   5.568
13016WAT     H239291   1.473   2.711   5.613
13017WAT      O39292   2.996   1.704   0.212
13017WAT     H139293   2.962   1.756   0.291
13017WAT     H239294   3.095   1.690   0.221
13018WAT      O39295   4.066   2.714   1.152
13018WAT     H139296   4.077   2.619   1.180
13018WAT     H239297   4.041   2.718   1.055
13019WAT      O39298   2.282   3.188   5.061
13019WAT     H139299   2.308   3.149   4.973
13019WAT     H239300   2.312   3.283   5.066
13020WAT      O39301   5.825   9.828   5.727
13020WAT     H139302   5.739   9.810   5.680
13020WAT     H239303   5.888   9.874   5.663
13021WAT      O39304   9.073   6.065   5.633
13021WAT     H139305   9.010   6.124   5.683
13021WAT     H239306   9.140   6.121   5.585
13022WAT      O39307   5.604   3.928   0.286
13022WAT     H139308   5.618   3.897   0.380
13022WAT     H239309   5.511   3.907   0.257
13023WAT      O39310   5.551   3.693   4.755
13023WAT     H139311   5.513   3.604   4.732
13023WAT     H239312   5.541   3.710   4.853
13024WAT      O39313   7.455   7.819   9.460
13024WAT     H139314   7.414   7.909   9.474
13024WAT     H239315   7.458   7.770   9.547
13025WAT      O39316   0.159   7.688   4.780
13025WAT     H139317   0.092   7.662   4.850
13025WAT     H239318   0.250   7.658   4.808
13026WAT      O39319   7.083   8.461   5.948
13026WAT     H139320   7.144   8.431   6.021
13026WAT     H239321   7.082   8.561   5.944
13027WAT      O39322   6.980   5.522   1.308
13027WAT     H139323   7.030   5.502   1.392
13027WAT     H239324   6.947   5.616   1.311
13028WAT      O39325   6.046   6.496   7.201
13028WAT     H139326   6.119   6.436   7.165
13028WAT     H239327   5.957   6.461   7.171
13029WAT      O39328   7.155   2.724   7.800
13029WAT     H139329   7.108   2.701   7.715
13029WAT     H239330   7.247   2.684   7.799
13030WAT      O39331   0.662   1.577   5.994
13030WAT     H139332   0.570   1.600   5.961
13030WAT     H239333   0.717   1.543   5.918
13031WAT      O39334   6.998   4.019   3.952
13031WAT     H139335   7.064   4.024   3.878
13031WAT     H239336   7.026   4.080   4.026
13032WAT      O39337   3.690   9.481   6.635
13032WAT     H139338   3.718   9.410   6.570
13032WAT     H239339   3.591   9.485   6.639
13033WAT      O39340   8.169   4.827   2.803
13033WAT     H139341   8.123   4.831   2.892
13033WAT     H239342   8.103   4.799   2.733
13034WAT      O39343   3.814   5.090   6.380
13034WAT     H139344   3.872   5.159   6.425
13034WAT     H239345   3.806   5.010   6.439
13035WAT      O39346   9.658   2.691   6.016
13035WAT     H139347   9.709   2.707   6.100
13035WAT     H239348   9.692   2.752   5.944
13036WAT      O39349   2.218   4.390   4.003
13036WAT     H139350   2.243   4.410   3.908
13036WAT     H239351   2.254   4.300   4.029
13037WAT      O39352   2.060   7.244   3.834
13037WAT     H139353   2.102   7.322   3.879
13037WAT     H239354   2.077   7.249   3.736
13038WAT      O39355   5.697   9.369   4.692
13038WAT     H139356   5.752   9.420   4.626
13038WAT     H239357   5.738   9.377   4.783
13039WAT      O39358   1.084   0.324   6.804
13039WAT     H139359   1.059   0.340   6.708
13039WAT     H239360   1.023   0.378   6.863
13040WAT      O39361   5.639   5.036   2.001
13040WAT     H139362   5.658   4.980   1.921
13040WAT     H239363   5.577   4.986   2.062
13041WAT      O39364   8.167   0.859   9.283
13041WAT     H139365   8.129   0.926   9.218
13041WAT     H239366   8.230   0.798   9.235
13042WAT      O39367   4.914   7.202   9.053
13042WAT     H139368   4.918   7.241   8.961
13042WAT     H239369   4.892   7.104   9.047
13043WAT      O39370   4.324   4.691   4.974
13043WAT     H139371   4.298   4.769   5.031
13043WAT     H239372   4.315   4.717   4.877
13044WAT      O39373   9.655   2.918   5.457
13044WAT     H139374   9.640   2.819   5.462
13044WAT     H239375   9.601   2.957   5.383
13045WAT      O39376   2.398   2.399   4.592
13045WAT     H139377   2.364   2.480   4.544
13045WAT     H239378   2.396   2.321   4.530
13046WAT      O39379   0.522   5.422   5.588
13046WAT     H139380   0.491   5.351   5.525
13046WAT     H239381   0.614   5.451   5.563
13047WAT      O39382   8.965   1.418   9.574
13047WAT     H139383   8.968   1.482   9.650
13047WAT     H239384   8.964   1.324   9.608
13048WAT      O39385   6.451   0.043   3.488
13048WAT     H139386   6.445   0.035   3.587
13048WAT     H239387   6.448   0.140   3.462
13049WAT      O39388   2.209   3.356   3.999
13049WAT     H139389   2.300   3.354   4.040
13049WAT     H239390   2.204   3.285   3.928
13050WAT      O39391   0.953   6.898   2.664
13050WAT     H139392   0.923   6.857   2.578
13050WAT     H239393   0.878   6.950   2.705
13051WAT      O39394   5.380   3.072   7.892
13051WAT     H139395   5.428   3.159   7.883
13051WAT     H239396   5.413   3.024   7.974
13052WAT      O39397   6.230   6.038   3.757
13052WAT     H139398   6.134   6.009   3.765
13052WAT     H239399   6.256   6.089   3.839
13053WAT      O39400   3.498   3.123   9.233
13053WAT     H139401   3.506   3.174   9.148
13053WAT     H239402   3.526   3.180   9.310
13054WAT      O39403   0.862   4.223   9.848
13054WAT     H139404   0.775   4.256   9.811
13054WAT     H239405   0.849   4.192   9.942
13055WAT      O39406   3.890   3.999   5.437
13055WAT     H139407   3.906   4.029   5.343
13055WAT     H239408   3.837   3.914   5.436
13056WAT      O39409   4.439   4.221   2.283
13056WAT     H139410   4.434   4.125   2.313
13056WAT     H239411   4.391   4.231   2.196
13057WAT      O39412   7.695   1.422   7.126
13057WAT     H139413   7.640   1.339   7.135
13057WAT     H239414   7.641   1.493   7.081
13058WAT      O39415   4.523   1.185   0.226
13058WAT     H139416   4.457   1.251   0.261
13058WAT     H239417   4.478   1.122   0.163
13059WAT      O39418   8.661   8.674   2.807
13059WAT     H139419   8.744   8.715   2.771
13059WAT     H239420   8.645   8.586   2.763
13060WAT      O39421   6.824   2.699   5.383
13060WAT     H139422   6.835   2.774   5.318
13060WAT     H239423   6.727   2.692   5.409
13061WAT      O39424   0.224   9.630   4.314
13061WAT     H139425   0.254   9.537   4.295
13061WAT     H239426   0.224   9.646   4.413
13062WAT      O39427   3.207   7.078   1.903
13062WAT     H139428   3.164   7.068   1.813
13062WAT     H239429   3.258   7.163   1.906
13063WAT      O39430   3.065   5.818   7.955
13063WAT     H139431   3.127   5.824   8.032
13063WAT     H239432   3.039   5.722   7.940
13064WAT      O39433   7.674   5.682   3.560
13064WAT     H139434   7.688   5.662   3.463
13064WAT     H239435   7.579   5.709   3.575
13065WAT      O39436   9.822   2.649   1.567
13065WAT     H139437   9.914   2.661   1.604
13065WAT     H239438   9.754   2.669   1.638
13066WAT      O39439   7.825   1.622   2.649
13066WAT     H139440   7.737   1.644   2.691
13066WAT     H239441   7.898   1.631   2.718
13067WAT      O39442   0.147   2.896   6.352
13067WAT     H139443   0.179   2.803   6.337
13067WAT     H239444   0.198   2.937   6.428
13068WAT      O39445   2.272   0.520   6.815
13068WAT     H139446   2.208   0.581   6.770
13068WAT     H239447   2.353   0.571   6.844
13069WAT      O39448   1.883   9.839   9.034
13069WAT     H139449   1.919   9.899   8.963
13069WAT     H239450   1.783   9.837   9.028
13070WAT      O39451   6.025   1.070   4.283
13070WAT     H139452   5.936   1.087   4.326
13070WAT     H239453   6.075   1.001   4.335
13071WAT      O39454   9.458   8.184   7.610
13071WAT     H139455   9.454   8.269   7.558
13071WAT     H239456   9.553   8.159   7.626
13072WAT      O39457   8.082   0.150   7.758
13072WAT     H139458   8.130   0.228   7.717
13072WAT     H239459   8.093   0.069   7.701
13073WAT      O39460   1.345   5.728   2.730
13073WAT     H139461   1.282   5.722   2.653
13073WAT     H239462   1.333   5.649   2.790
13074WAT      O39463   6.385   4.375   1.964
13074WAT     H139464   6.375   4.364   1.865
13074WAT     H239465   6.470   4.333   1.994
13075WAT      O39466   6.557   5.786   7.295
13075WAT     H139467   6.627   5.802   7.365
13075WAT     H239468   6.470   5.766   7.339
13076WAT      O39469   1.789   5.086   9.023
13076WAT     H139470   1.861   5.101   9.091
13076WAT     H239471   1.806   5.145   8.944
13077WAT      O39472   3.340   6.842   5.049
13077WAT     H139473   3.278   6.918   5.067
13077WAT     H239474   3.372   6.848   4.954
13078WAT      O39475   4.952   3.524   8.132
13078WAT     H139476   4.965   3.436   8.086
13078WAT     H239477   4.980   3.598   8.071
13079WAT      O39478   4.598   8.325   5.499
13079WAT     H139479   4.680   8.374   5.529
13079WAT     H239480   4.622   8.233   5.469
13080WAT      O39481   6.092   3.813   4.695
13080WAT     H139482   6.173   3.757   4.711
13080WAT     H239483   6.052   3.789   4.606
13081WAT      O39484   7.740   2.289   2.278
13081WAT     H139485   7.746   2.304   2.180
13081WAT     H239486   7.648   2.258   2.302
13082WAT      O39487   9.770   0.602   1.300
13082WAT     H139488   9.779   0.679   1.363
13082WAT     H239489   9.768   0.637   1.206
13083WAT      O39490   0.812   5.448   9.521
13083WAT     H139491   0.745   5.391   9.473
13083WAT     H239492   0.832   5.407   9.610
13084WAT      O39493   2.836   7.359   7.063
13084WAT     H139494   2.892   7.284   7.098
13084WAT     H239495   2.779   7.395   7.137
13085WAT      O39496   4.153   1.534   6.935
13085WAT     H139497   4.185   1.449   6.892
13085WAT     H239498   4.160   1.525   7.035
13086WAT      O39499   7.349   0.648   8.093
13086WAT     H139500   7.386   0.640   8.000
13086WAT     H239501   7.266   0.704   8.091
13087WAT      O39502   7.143   9.155   6.338
13087WAT     H139503   7.129   9.085   6.268
13087WAT     H239504   7.184   9.236   6.296
13088WAT      O39505   7.338   4.454   4.756
13088WAT     H139506   7.429   4.442   4.796
13088WAT     H239507   7.334   4.541   4.707
13089WAT      O39508   2.433   6.839   5.093
13089WAT     H139509   2.498   6.884   5.154
13089WAT     H239510   2.460   6.744   5.080
13090WAT      O39511   4.323   3.512   0.079
13090WAT     H139512   4.294   3.418   0.100
13090WAT     H239513   4.244   3.565   0.049
13091WAT      O39514   0.626   3.454   3.058
13091WAT     H139515   0.582   3.380   3.008
13091WAT     H239516   0.644   3.530   2.996
13092WAT      O39517   2.055   1.701   8.675
13092WAT     H139518   2.126   1.732   8.611
13092WAT     H239519   1.966   1.702   8.630
13093WAT      O39520   3.068   7.563   3.555
13093WAT     H139521   3.082   7.478   3.606
13093WAT     H239522   2.971   7.587   3.555
13094WAT      O39523   8.843   0.958   1.881
13094WAT     H139524   8.800   0.867   1.875
13094WAT     H239525   8.806   1.017   1.809
13095WAT      O39526   4.687   0.571   7.752
13095WAT     H139527   4.677   0.501   7.823
13095WAT     H239528   4.755   0.638   7.780
13096WAT      O39529   0.071   1.736   5.680
13096WAT     H139530   0.129   1.660   5.650
13096WAT     H239531   0.036   1.717   5.772
13097WAT      O39532   8.799   1.689   3.543
13097WAT     H139533   8.708   1.668   3.580
13097WAT     H239534   8.790   1.740   3.458
13098WAT      O39535   2.869   3.953   1.535
13098WAT     H139536   2.896   4.030   1.476
13098WAT     H239537   2.939   3.882   1.531
13099WAT      O39538   5.380   8.166   5.768
13099WAT     H139539   5.402   8.083   5.819
13099WAT     H239540   5.465   8.209   5.736
13100WAT      O39541   1.113   8.780   9.256
13100WAT     H139542   1.084   8.724   9.179
13100WAT     H239543   1.033   8.819   9.302
13101WAT      O39544   0.163   6.658   9.258
13101WAT     H139545   0.261   6.641   9.258
13101WAT     H239546   0.114   6.571   9.245
13102WAT      O39547   3.280   3.201   5.303
13102WAT     H139548   3.260   3.249   5.218
13102WAT     H239549   3.197   3.158   5.338
13103WAT      O39550   3.607   7.491   9.449
13103WAT     H139551   3.618   7.565   9.383
13103WAT     H239552   3.535   7.515   9.514
13104WAT      O39553   5.983   8.449   5.339
13104WAT     H139554   5.931   8.408   5.415
13104WAT     H239555   6.049   8.514   5.375
13105WAT      O39556   6.726   0.632   2.568
13105WAT     H139557   6.659   0.707   2.574
13105WAT     H239558   6.732   0.586   2.657
13106WAT      O39559   6.525   3.856   9.132
13106WAT     H139560   6.511   3.767   9.089
13106WAT     H239561   6.495   3.853   9.227
13107WAT      O39562   5.011   0.361   9.137
13107WAT     H139563   4.971   0.451   9.154
13107WAT     H239564   5.024   0.313   9.223
13108WAT      O39565   9.830   0.529   0.496
13108WAT     H139566   9.739   0.531   0.455
13108WAT     H239567   9.886   0.602   0.456
13109WAT      O39568   0.868   3.591   1.846
13109WAT     H139569   0.847   3.501   1.883
13109WAT     H239570   0.911   3.581   1.756
13110WAT      O39571   0.623   8.353   1.756
13110WAT     H139572   0.544   8.366   1.816
13110WAT     H239573   0.704   8.393   1.798
13111WAT      O39574   9.213   7.497   7.082
13111WAT     H139575   9.127   7.446   7.084
13111WAT     H239576   9.285   7.442   7.123
13112WAT      O39577   9.664   6.105   4.560
13112WAT     H139578   9.718   6.066   4.485
13112WAT     H239579   9.577   6.055   4.567
13113WAT      O39580   9.405   3.253   0.358
13113WAT     H139581   9.402   3.171   0.300
13113WAT     H239582   9.311   3.284   0.376
13114WAT      O39583   4.728   1.511   9.129
13114WAT     H139584   4.737   1.435   9.064
13114WAT     H239585   4.645   1.562   9.109
13115WAT      O39586   0.252   9.459   2.171
13115WAT     H139587   0.311   9.439   2.249
13115WAT     H239588   0.221   9.554   2.176
13116WAT      O39589   1.379   6.217   5.549
13116WAT     H139590   1.383   6.311   5.514
13116WAT     H239591   1.318   6.163   5.490
13117WAT      O39592   3.073   6.186   2.080
13117WAT     H139593   3.131   6.131   2.019
13117WAT     H239594   2.980   6.189   2.044
13118WAT      O39595   3.447   1.137   8.710
13118WAT     H139596   3.530   1.140   8.654
13118WAT     H239597   3.454   1.063   8.776
13119WAT      O39598   2.123   0.328   2.009
13119WAT     H139599   2.162   0.400   2.066
13119WAT     H239600   2.196   0.271   1.972
13120WAT      O39601   0.375   4.139   4.004
13120WAT     H139602   0.304   4.136   3.933
13120WAT     H239603   0.463   4.115   3.964
13121WAT      O39604   9.434   3.748   3.338
13121WAT     H139605   9.400   3.832   3.382
13121WAT     H239606   9.480   3.691   3.406
13122WAT      O39607   8.388   2.094   0.032
13122WAT     H139608   8.311   2.157   0.021
13122WAT     H239609   8.369   2.032   0.108
13123WAT      O39610   6.939   3.986   6.882
13123WAT     H139611   6.966   4.069   6.931
13123WAT     H239612   6.948   4.001   6.784
13124WAT      O39613   5.980   8.492   3.610
13124WAT     H139614   6.059   8.523   3.557
13124WAT     H239615   5.956   8.399   3.581
13125WAT      O39616   1.240   5.234   6.495
13125WAT     H139617   1.281   5.149   6.527
13125WAT     H239618   1.141   5.223   6.488
13126WAT      O39619   7.073   5.777   5.800
13126WAT     H139620   7.101   5.765   5.705
13126WAT     H239621   6.999   5.844   5.805
13127WAT      O39622   1.164   4.459   0.785
13127WAT     H139623   1.254   4.464   0.829
13127WAT     H239624   1.161   4.380   0.723
13128WAT      O39625   1.960   0.418   7.999
13128WAT     H139626   1.926   0.324   8.000
13128WAT     H239627   1.990   0.442   7.906
13129WAT      O39628   2.072   8.692   7.851
13129WAT     H139629   1.981   8.698   7.811
13129WAT     H239630   2.135   8.654   7.783
13130WAT      O39631   5.727   0.061   3.678
13130WAT     H139632   5.749   0.156   3.700
13130WAT     H239633   5.649   0.059   3.615
13131WAT      O39634   9.008   8.588   1.654
13131WAT     H139635   8.930   8.644   1.626
13131WAT     H239636   9.080   8.594   1.585
13132WAT      O39637   0.211   9.595   3.953
13132WAT     H139638   0.268   9.657   4.006
13132WAT     H239639   0.119   9.592   3.992
13133WAT      O39640   2.811   3.718   2.198
13133WAT     H139641   2.749   3.664   2.254
13133WAT     H239642   2.835   3.802   2.247
13134WAT      O39643   3.823   7.897   6.367
13134WAT     H139644   3.757   7.846   6.423
13134WAT     H239645   3.791   7.899   6.272
13135WAT      O39646   9.754   6.312   5.196
13135WAT     H139647   9.767   6.220   5.232
13135WAT     H239648   9.679   6.312   5.130
13136WAT      O39649   8.667   0.861   3.090
13136WAT     H139650   8.766   0.848   3.084
13136WAT     H239651   8.624   0.830   3.006
13137WAT      O39652   0.757   3.562   5.967
13137WAT     H139653   0.853   3.574   5.942
13137WAT     H239654   0.701   3.626   5.915
13138WAT      O39655   1.061   5.980   5.775
13138WAT     H139656   1.044   5.883   5.755
13138WAT     H239657   1.037   6.035   5.694
13139WAT      O39658   8.779   7.455   0.637
13139WAT     H139659   8.681   7.459   0.653
13139WAT     H239660   8.822   7.398   0.708
13140WAT      O39661   0.125   1.141   5.117
13140WAT     H139662   0.170   1.154   5.205
13140WAT     H239663   0.026   1.135   5.131
13141WAT      O39664   0.592   2.157   2.348
13141WAT     H139665   0.566   2.084   2.411
13141WAT     H239666   0.580   2.125   2.254
13142WAT      O39667   1.657   2.606   3.307
13142WAT     H139668   1.728   2.642   3.368
13142WAT     H239669   1.586   2.675   3.295
13143WAT      O39670   2.586   5.990   2.399
13143WAT     H139671   2.571   6.081   2.438
13143WAT     H239672   2.668   5.992   2.341
13144WAT      O39673   2.565   9.024   6.112
13144WAT     H139674   2.531   9.058   6.199
13144WAT     H239675   2.520   9.072   6.037
13145WAT      O39676   2.784   5.913   4.208
13145WAT     H139677   2.839   5.993   4.183
13145WAT     H239678   2.841   5.831   4.199
13146WAT      O39679   9.753   7.819   3.786
13146WAT     H139680   9.712   7.843   3.874
13146WAT     H239681   9.703   7.866   3.713
13147WAT      O39682   4.073   6.298   5.496
13147WAT     H139683   4.072   6.200   5.518
13147WAT     H239684   4.082   6.310   5.397
13148WAT      O39685   5.198   0.196   2.419
13148WAT     H139686   5.184   0.286   2.378
13148WAT     H239687   5.295   0.173   2.417
13149WAT      O39688   3.335   8.038   7.382
13149WAT     H139689   3.332   7.942   7.354
13149WAT     H239690   3.285   8.049   7.468
13150WAT      O39691   7.818   6.237   8.402
13150WAT     H139692   7.773   6.241   8.492
13150WAT     H239693   7.850   6.144   8.385
13151WAT      O39694   0.280   5.893   1.666
13151WAT     H139695   0.303   5.897   1.569
13151WAT     H239696   0.363   5.895   1.721
13152WAT      O39697   4.955   1.867   1.829
13152WAT     H139698   4.911   1.892   1.916
13152WAT     H239699   5.051   1.846   1.846
13153WAT      O39700   7.464   9.616   6.933
13153WAT     H139701   7.561   9.599   6.920
13153WAT     H239702   7.421   9.537   6.977
13154WAT      O39703   6.579   0.897   6.264
13154WAT     H139704   6.676   0.921   6.265
13154WAT     H239705   6.558   0.845   6.181
13155WAT      O39706   9.400   8.273   9.510
13155WAT     H139707   9.409   8.215   9.429
13155WAT     H239708   9.355   8.359   9.485
13156WAT      O39709   9.809   7.879   1.923
13156WAT     H139710   9.803   7.810   1.994
13156WAT     H239711   9.900   7.919   1.922
13157WAT      O39712   2.480   6.591   6.706
13157WAT     H139713   2.534   6.632   6.632
13157WAT     H239714   2.439   6.663   6.761
13158WAT      O39715   6.697   1.411   0.162
13158WAT     H139716   6.697   1.504   0.124
13158WAT     H239717   6.705   1.416   0.261
13159WAT      O39718   5.386   8.978   4.528
13159WAT     H139719   5.324   8.951   4.602
13159WAT     H239720   5.417   9.072   4.544
13160WAT      O39721   5.978   6.944   5.276
13160WAT     H139722   5.965   7.027   5.329
13160WAT     H239723   6.074   6.936   5.250
13161WAT      O39724   3.123   7.370   7.284
13161WAT     H139725   3.071   7.290   7.254
13161WAT     H239726   3.216   7.365   7.248
13162WAT      O39727   7.925   8.777   9.612
13162WAT     H139728   7.835   8.819   9.627
13162WAT     H239729   7.971   8.822   9.536
13163WAT      O39730   4.285   8.686   1.384
13163WAT     H139731   4.277   8.620   1.309
13163WAT     H239732   4.355   8.654   1.449
13164WAT      O39733   0.484   7.583   5.135
13164WAT     H139734   0.415   7.513   5.158
13164WAT     H239735   0.575   7.541   5.136
13165WAT      O39736   1.805   6.648   9.647
13165WAT     H139737   1.781   6.731   9.596
13165WAT     H239738   1.722   6.602   9.677
13166WAT      O39739   8.636   8.688   5.014
13166WAT     H139740   8.655   8.766   4.955
13166WAT     H239741   8.552   8.705   5.066
13167WAT      O39742   8.560   0.114   6.431
13167WAT     H139743   8.635   0.147   6.487
13167WAT     H239744   8.576   0.018   6.407
13168WAT      O39745   3.951   6.766   1.868
13168WAT     H139746   3.923   6.670   1.859
13168WAT     H239747   3.967   6.805   1.777
13169WAT      O39748   2.806   8.321   3.244
13169WAT     H139749   2.861   8.404   3.242
13169WAT     H239750   2.755   8.313   3.158
13170WAT      O39751   9.845   1.966   2.370
13170WAT     H139752   9.909   2.030   2.327
13170WAT     H239753   9.794   1.918   2.298
13171WAT      O39754   0.802   5.860   5.049
13171WAT     H139755   0.712   5.845   5.007
13171WAT     H239756   0.801   5.947   5.098
13172WAT      O39757   5.809   6.580   5.162
13172WAT     H139758   5.734   6.550   5.220
13172WAT     H239759   5.895   6.576   5.213
13173WAT      O39760   1.334   7.382   7.730
13173WAT     H139761   1.324   7.284   7.717
13173WAT     H239762   1.263   7.415   7.792
13174WAT      O39763   1.080   8.684   0.221
13174WAT     H139764   1.011   8.643   0.280
13174WAT     H239765   1.035   8.737   0.149
13175WAT      O39766   3.102   9.646   4.214
13175WAT     H139767   3.120   9.657   4.116
13175WAT     H239768   3.042   9.568   4.228
13176WAT      O39769   0.831   7.176   1.710
13176WAT     H139770   0.805   7.227   1.628
13176WAT     H239771   0.930   7.181   1.722
13177WAT      O39772   6.224   1.273   5.929
13177WAT     H139773   6.181   1.182   5.923
13177WAT     H239774   6.156   1.340   5.960
13178WAT      O39775   6.582   5.295   9.438
13178WAT     H139776   6.614   5.375   9.489
13178WAT     H239777   6.552   5.224   9.502
13179WAT      O39778   2.490   9.734   7.292
13179WAT     H139779   2.549   9.793   7.238
13179WAT     H239780   2.411   9.706   7.237
13180WAT      O39781   0.612   9.798   5.595
13180WAT     H139782   0.600   9.726   5.527
13180WAT     H239783   0.527   9.850   5.604
13181WAT      O39784   3.612   2.182   6.229
13181WAT     H139785   3.531   2.124   6.220
13181WAT     H239786   3.584   2.275   6.253
13182WAT      O39787   8.748   7.531   9.658
13182WAT     H139788   8.834   7.537   9.607
13182WAT     H239789   8.675   7.503   9.596
13183WAT      O39790   0.555   4.003   2.227
13183WAT     H139791   0.650   4.034   2.223
13183WAT     H239792   0.518   3.999   2.134
13184WAT      O39793   9.140   0.396   5.214
13184WAT     H139794   9.197   0.322   5.249
13184WAT     H239795   9.196   0.475   5.191
13185WAT      O39796   5.370   6.375   3.236
13185WAT     H139797   5.325   6.393   3.324
13185WAT     H239798   5.362   6.455   3.177
13186WAT      O39799   9.124   5.352   2.367
13186WAT     H139800   9.209   5.403   2.368
13186WAT     H239801   9.048   5.413   2.387
13187WAT      O39802   1.895   1.480   7.971
13187WAT     H139803   1.920   1.388   7.999
13187WAT     H239804   1.803   1.501   8.003
13188WAT      O39805   6.300   2.650   0.703
13188WAT     H139806   6.241   2.654   0.783
13188WAT     H239807   6.389   2.692   0.725
13189WAT      O39808   7.636   9.768   0.547
13189WAT     H139809   7.668   9.854   0.508
13189WAT     H239810   7.661   9.764   0.643
13190WAT      O39811   5.799   4.326   2.051
13190WAT     H139812   5.827   4.389   2.123
13190WAT     H239813   5.814   4.368   1.961
13191WAT      O39814   6.675   1.400   5.737
13191WAT     H139815   6.577   1.406   5.757
13191WAT     H239816   6.727   1.441   5.812
13192WAT      O39817   0.172   5.856   2.890
13192WAT     H139818   0.268   5.851   2.862
13192WAT     H239819   0.144   5.767   2.926
13193WAT      O39820   2.496   7.950   9.336
13193WAT     H139821   2.508   7.894   9.418
13193WAT     H239822   2.551   7.911   9.262
13194WAT      O39823   6.094   4.762   7.519
13194WAT     H139824   6.046   4.763   7.607
13194WAT     H239825   6.071   4.677   7.471
13195WAT      O39826   1.728   6.246   6.195
13195WAT     H139827   1.645   6.281   6.239
13195WAT     H239828   1.804   6.307   6.214
13196WAT      O39829   3.371   7.827   3.353
13196WAT     H139830   3.285   7.792   3.318
13196WAT     H239831   3.440   7.825   3.281
13197WAT      O39832   9.612   4.649   6.666
13197WAT     H139833   9.575   4.633   6.758
13197WAT     H239834   9.540   4.687   6.608
13198WAT      O39835   8.659   3.160   2.585
13198WAT     H139836   8.585   3.095   2.568
13198WAT     H239837   8.683   3.206   2.500
13199WAT      O39838   9.882   7.027   0.325
13199WAT     H139839   9.921   7.109   0.367
13199WAT     H239840   9.782   7.029   0.333
13200WAT      O39841   9.358   7.129   0.192
13200WAT     H139842   9.357   7.168   0.284
13200WAT     H239843   9.282   7.065   0.182
13201WAT      O39844   6.330   8.516   6.923
13201WAT     H139845   6.417   8.537   6.878
13201WAT     H239846   6.312   8.586   6.993
13202WAT      O39847   5.895   8.454   9.585
13202WAT     H139848   5.965   8.438   9.516
13202WAT     H239849   5.805   8.433   9.547
13203WAT      O39850   5.425   5.717   6.171
13203WAT     H139851   5.473   5.798   6.204
13203WAT     H239852   5.345   5.744   6.119
13204WAT      O39853   1.212   8.976   2.798
13204WAT     H139854   1.270   8.978   2.717
13204WAT     H239855   1.130   9.031   2.782
13205WAT      O39856   9.143   7.373   6.314
13205WAT     H139857   9.141   7.446   6.382
13205WAT     H239858   9.143   7.284   6.360
13206WAT      O39859   3.761   6.969   8.848
13206WAT     H139860   3.724   7.041   8.789
13206WAT     H239861   3.751   6.996   8.944
13207WAT      O39862   0.133   0.743   0.446
13207WAT     H139863   0.134   0.825   0.503
13207WAT     H239864   0.212   0.686   0.470
13208WAT      O39865   8.907   6.277   5.315
13208WAT     H139866   8.912   6.189   5.363
13208WAT     H239867   8.993   6.326   5.327
13209WAT      O39868   8.710   6.253   4.946
13209WAT     H139869   8.628   6.307   4.961
13209WAT     H239870   8.778   6.308   4.897
13210WAT      O39871   6.502   8.989   3.731
13210WAT     H139872   6.503   9.082   3.695
13210WAT     H239873   6.442   8.984   3.810
13211WAT      O39874   6.545   4.367   7.489
13211WAT     H139875   6.568   4.355   7.586
13211WAT     H239876   6.520   4.462   7.472
13212WAT      O39877   3.530   7.490   6.709
13212WAT     H139878   3.452   7.465   6.651
13212WAT     H239879   3.524   7.586   6.733
13213WAT      O39880   7.492   8.576   7.513
13213WAT     H139881   7.574   8.536   7.473
13213WAT     H239882   7.439   8.505   7.559
13214WAT      O39883   3.722   3.105   6.376
13214WAT     H139884   3.821   3.092   6.368
13214WAT     H239885   3.702   3.152   6.462
13215WAT      O39886   6.578   5.110   3.028
13215WAT     H139887   6.496   5.066   2.992
13215WAT     H239888   6.558   5.152   3.117
13216WAT      O39889   2.525   8.927   8.048
13216WAT     H139890   2.520   8.855   8.117
13216WAT     H239891   2.557   9.012   8.090
13217WAT      O39892   7.880   2.018   4.914
13217WAT     H139893   7.947   1.983   4.848
13217WAT     H239894   7.830   1.942   4.955
13218WAT      O39895   5.462   1.915   8.386
13218WAT     H139896   5.392   1.850   8.414
13218WAT     H239897   5.552   1.880   8.409
13219WAT      O39898   5.250   0.577   9.788
13219WAT     H139899   5.323   0.642   9.810
13219WAT     H239900   5.199   0.610   9.709
13220WAT      O39901   1.685   1.008   7.613
13220WAT     H139902   1.733   1.084   7.570
13220WAT     H239903   1.751   0.951   7.662
13221WAT      O39904   4.002   7.700   8.717
13221WAT     H139905   3.922   7.731   8.665
13221WAT     H239906   3.982   7.706   8.815
13222WAT      O39907   9.778   9.394   8.099
13222WAT     H139908   9.759   9.460   8.026
13222WAT     H239909   9.744   9.428   8.186
13223WAT      O39910   6.121   8.677   9.866
13223WAT     H139911   6.118   8.658   9.964
13223WAT     H239912   6.028   8.675   9.828
13224WAT      O39913   2.120   4.728   4.313
13224WAT     H139914   2.026   4.700   4.293
13224WAT     H239915   2.127   4.827   4.312
13225WAT      O39916   7.951   7.831   3.664
13225WAT     H139917   8.022   7.902   3.664
13225WAT     H239918   7.991   7.743   3.641
13226WAT      O39919   5.884   1.513   4.210
13226WAT     H139920   5.875   1.415   4.191
13226WAT     H239921   5.899   1.527   4.308
13227WAT      O39922   4.696   8.381   1.776
13227WAT     H139923   4.621   8.352   1.717
13227WAT     H239924   4.769   8.421   1.720
13228WAT      O39925   5.942   8.345   1.827
13228WAT     H139926   6.041   8.358   1.831
13228WAT     H239927   5.904   8.345   1.920
13229WAT      O39928   1.498   4.317   1.473
13229WAT     H139929   1.593   4.295   1.495
13229WAT     H239930   1.496   4.396   1.411
13230WAT      O39931   4.458   5.752   5.979
13230WAT     H139932   4.466   5.847   6.009
13230WAT     H239933   4.497   5.743   5.887
13231WAT      O39934   6.686   3.170   4.218
13231WAT     H139935   6.769   3.138   4.265
13231WAT     H239936   6.624   3.213   4.284
13232WAT      O39937   0.042   8.892   0.598
13232WAT     H139938   0.016   8.970   0.655
13232WAT     H239939   0.088   8.925   0.515
13233WAT      O39940   5.288   2.673   0.582
13233WAT     H139941   5.317   2.642   0.672
13233WAT     H239942   5.360   2.728   0.540
13234WAT      O39943   7.875   8.313   7.619
13234WAT     H139944   7.960   8.263   7.601
13234WAT     H239945   7.820   8.261   7.685
13235WAT      O39946   1.902   7.444   4.318
13235WAT     H139947   1.942   7.499   4.245
13235WAT     H239948   1.825   7.493   4.359
13236WAT      O39949   1.860   3.922   5.245
13236WAT     H139950   1.889   3.968   5.162
13236WAT     H239951   1.910   3.960   5.323
13237WAT      O39952   0.199   9.634   5.473
13237WAT     H139953   0.196   9.733   5.486
13237WAT     H239954   0.293   9.605   5.459
13238WAT      O39955   8.432   0.395   9.098
13238WAT     H139956   8.405   0.446   9.180
13238WAT     H239957   8.500   0.326   9.122
13239WAT      O39958   4.009   1.798   8.883
13239WAT     H139959   3.933   1.741   8.853
13239WAT     H239960   3.973   1.877   8.934
13240WAT      O39961   2.409   1.452   8.578
13240WAT     H139962   2.409   1.407   8.668
13240WAT     H239963   2.314   1.472   8.552
13241WAT      O39964   8.545   9.305   2.709
13241WAT     H139965   8.538   9.334   2.614
13241WAT     H239966   8.594   9.218   2.715
13242WAT      O39967   1.550   9.081   4.025
13242WAT     H139968   1.601   9.164   3.998
13242WAT     H239969   1.466   9.076   3.972
13243WAT      O39970   8.416   3.423   0.807
13243WAT     H139971   8.334   3.367   0.820
13243WAT     H239972   8.488   3.390   0.868
13244WAT      O39973   5.497   7.863   3.493
13244WAT     H139974   5.573   7.926   3.480
13244WAT     H239975   5.485   7.844   3.590
13245WAT      O39976   2.131   3.842   5.603
13245WAT     H139977   2.062   3.865   5.671
13245WAT     H239978   2.159   3.746   5.614
13246WAT      O39979   2.173   0.004   5.555
13246WAT     H139980   2.239  -0.068   5.535
13246WAT     H239981   2.220   0.082   5.596
13247WAT      O39982   8.910   8.904   6.014
13247WAT     H139983   8.931   8.993   5.972
13247WAT     H239984   8.815   8.904   6.046
13248WAT      O39985   6.771   6.821   2.909
13248WAT     H139986   6.836   6.896   2.894
13248WAT     H239987   6.740   6.822   3.004
13249WAT      O39988   9.076   6.753   5.289
13249WAT     H139989   9.128   6.707   5.217
13249WAT     H239990   9.125   6.742   5.376
13250WAT      O39991   1.043   0.958   0.722
13250WAT     H139992   1.135   0.958   0.682
13250WAT     H239993   0.996   0.874   0.696
13251WAT      O39994   4.515   3.505   8.409
13251WAT     H139995   4.495   3.601   8.425
13251WAT     H239996   4.512   3.455   8.495
13252WAT      O39997   0.540   0.517   3.165
13252WAT     H139998   0.487   0.439   3.198
13252WAT     H239999   0.637   0.501   3.183
13253WAT      O40000   8.552   2.766   6.617
13253WAT     H140001   8.573   2.811   6.530
13253WAT     H240002   8.467   2.714   6.607
13254WAT      O40003   4.819   7.492   9.438
13254WAT     H140004   4.917   7.490   9.423
13254WAT     H240005   4.772   7.449   9.361
13255WAT      O40006   0.722   5.979   6.628
13255WAT     H140007   0.753   5.889   6.595
13255WAT     H240008   0.775   6.004   6.709
13256WAT      O40009   3.533   6.224   6.029
13256WAT     H140010   3.628   6.255   6.039
13256WAT     H240011   3.527   6.155   5.957
13257WAT      O40012   4.448   0.533   1.714
13257WAT     H140013   4.350   0.538   1.734
13257WAT     H240014   4.490   0.463   1.772
13258WAT      O40015   1.713   1.767   7.496
13258WAT     H140016   1.648   1.706   7.450
13258WAT     H240017   1.667   1.814   7.572
13259WAT      O40018   5.753   5.843   9.214
13259WAT     H140019   5.710   5.919   9.263
13259WAT     H240020   5.795   5.781   9.279
13260WAT      O40021   9.069   1.991   9.820
13260WAT     H140022   9.132   2.066   9.800
13260WAT     H240023   9.000   1.985   9.747
13261WAT      O40024   4.870   7.148   9.827
13261WAT     H140025   4.834   7.161   9.919
13261WAT     H240026   4.867   7.235   9.777
13262WAT      O40027   2.610   0.636   1.804
13262WAT     H140028   2.641   0.625   1.899
13262WAT     H240029   2.596   0.733   1.785
13263WAT      O40030   6.589   9.694   4.642
13263WAT     H140031   6.667   9.638   4.614
13263WAT     H240032   6.526   9.703   4.565
13264WAT      O40033   7.174   8.848   4.674
13264WAT     H140034   7.076   8.833   4.669
13264WAT     H240035   7.200   8.920   4.609
13265WAT      O40036   5.795   8.144   4.444
13265WAT     H140037   5.814   8.124   4.540
13265WAT     H240038   5.749   8.066   4.402
13266WAT      O40039   1.190   8.566   1.982
13266WAT     H140040   1.278   8.528   2.013
13266WAT     H240041   1.115   8.521   2.031
13267WAT      O40042   0.339   1.427   2.211
13267WAT     H140043   0.399   1.471   2.277
13267WAT     H240044   0.388   1.413   2.125
13268WAT      O40045   7.767   5.399   7.599
13268WAT     H140046   7.795   5.347   7.681
13268WAT     H240047   7.679   5.444   7.617
13269WAT      O40048   3.088   1.178   1.053
13269WAT     H140049   3.116   1.274   1.062
13269WAT     H240050   3.087   1.152   0.957
13270WAT      O40051   4.330   6.516   5.752
13270WAT     H140052   4.252   6.498   5.812
13270WAT     H240053   4.363   6.609   5.768
13271WAT      O40054   5.890   7.799   9.319
13271WAT     H140055   5.918   7.884   9.275
13271WAT     H240056   5.906   7.722   9.258
13272WAT      O40057   9.144   4.090   8.064
13272WAT     H140058   9.166   4.188   8.062
13272WAT     H240059   9.098   4.065   7.980
13273WAT      O40060   2.525   2.277   3.587
13273WAT     H140061   2.463   2.264   3.509
13273WAT     H240062   2.570   2.191   3.608
13274WAT      O40063   5.715   1.946   3.398
13274WAT     H140064   5.638   1.957   3.335
13274WAT     H240065   5.786   2.012   3.377
13275WAT      O40066   8.264   9.367   7.641
13275WAT     H140067   8.270   9.396   7.546
13275WAT     H240068   8.219   9.438   7.695
13276WAT      O40069   0.859   0.785   2.688
13276WAT     H140070   0.819   0.795   2.598
13276WAT     H240071   0.806   0.837   2.755
13277WAT      O40072   7.605   5.511   9.026
13277WAT     H140073   7.672   5.576   9.059
13277WAT     H240074   7.652   5.434   8.981
13278WAT      O40075   6.979   0.018   5.362
13278WAT     H140076   7.070  -0.023   5.366
13278WAT     H240077   6.956   0.039   5.267
13279WAT      O40078   4.036   8.838   4.360
13279WAT     H140079   4.061   8.886   4.276
13279WAT     H240080   3.939   8.811   4.356
13280WAT      O40081   1.186   0.008   3.103
13280WAT     H140082   1.172   0.107   3.101
13280WAT     H240083   1.157  -0.031   3.016
13281WAT      O40084   9.472   4.310   9.350
13281WAT     H140085   9.530   4.229   9.346
13281WAT     H240086   9.527   4.392   9.336
13282WAT      O40087   6.918   3.118   8.949
13282WAT     H140088   6.884   3.145   9.040
13282WAT     H240089   6.850   3.059   8.905
13283WAT      O40090   0.433   2.868   5.809
13283WAT     H140091   0.397   2.883   5.901
13283WAT     H240092   0.389   2.787   5.769
13284WAT      O40093   8.769   2.055   0.332
13284WAT     H140094   8.738   2.053   0.237
13284WAT     H240095   8.689   2.056   0.393
13285WAT      O40096   3.771   9.475   2.458
13285WAT     H140097   3.685   9.472   2.509
13285WAT     H240098   3.752   9.466   2.360
13286WAT      O40099   0.805   1.458   2.258
13286WAT     H140100   0.847   1.536   2.211
13286WAT     H240101   0.717   1.486   2.296
13287WAT      O40102   2.311   3.883   7.774
13287WAT     H140103   2.260   3.918   7.852
13287WAT     H240104   2.355   3.958   7.725
13288WAT      O40105   5.419   3.051   0.213
13288WAT     H140106   5.324   3.021   0.221
13288WAT     H240107   5.421   3.147   0.187
13289WAT      O40108   7.847   6.556   7.575
13289WAT     H140109   7.854   6.656   7.566
13289WAT     H240110   7.755   6.532   7.605
13290WAT      O40111   0.667   3.331   5.595
13290WAT     H140112   0.638   3.253   5.651
13290WAT     H240113   0.723   3.298   5.519
13291WAT      O40114   3.533   2.519   4.065
13291WAT     H140115   3.620   2.562   4.043
13291WAT     H240116   3.477   2.511   3.982
13292WAT      O40117   8.408   9.252   4.540
13292WAT     H140118   8.385   9.267   4.636
13292WAT     H240119   8.409   9.153   4.520
13293WAT      O40120   1.466   9.122   0.238
13293WAT     H140121   1.402   9.057   0.196
13293WAT     H240122   1.530   9.072   0.297
13294WAT      O40123   3.493   8.119   5.107
13294WAT     H140124   3.592   8.116   5.099
13294WAT     H240125   3.452   8.062   5.035
13295WAT      O40126   4.338   3.096   3.554
13295WAT     H140127   4.398   3.173   3.576
13295WAT     H240128   4.311   3.101   3.458
13296WAT      O40129   8.136   8.017   3.512
13296WAT     H140130   8.159   7.953   3.439
13296WAT     H240131   8.157   8.110   3.484
13297WAT      O40132   4.778   2.411   2.567
13297WAT     H140133   4.711   2.368   2.507
13297WAT     H240134   4.859   2.436   2.513
13298WAT      O40135   0.430   2.261   0.218
13298WAT     H140136   0.363   2.334   0.230
13298WAT     H240137   0.481   2.277   0.134
13299WAT      O40138   0.961   9.607   8.149
13299WAT     H140139   0.971   9.603   8.249
13299WAT     H240140   0.894   9.678   8.126
13300WAT      O40141   5.654   8.760   2.003
13300WAT     H140142   5.600   8.838   2.034
13300WAT     H240143   5.662   8.763   1.903
13301WAT      O40144   4.549   4.876   3.304
13301WAT     H140145   4.560   4.792   3.358
13301WAT     H240146   4.513   4.853   3.214
13302WAT      O40147   5.613   2.569   6.785
13302WAT     H140148   5.522   2.558   6.745
13302WAT     H240149   5.623   2.507   6.863
13303WAT      O40150   8.279   5.705   6.186
13303WAT     H140151   8.280   5.705   6.086
13303WAT     H240152   8.249   5.615   6.219
13304WAT      O40153   8.547   0.401   0.909
13304WAT     H140154   8.598   0.472   0.957
13304WAT     H240155   8.504   0.440   0.827
13305WAT      O40156   8.512   2.836   4.613
13305WAT     H140157   8.421   2.796   4.624
13305WAT     H240158   8.524   2.909   4.679
13306WAT      O40159   5.990   3.227   3.128
13306WAT     H140160   5.899   3.254   3.160
13306WAT     H240161   6.038   3.308   3.096
13307WAT      O40162   1.185   8.566   0.013
13307WAT     H140163   1.110   8.546  -0.050
13307WAT     H240164   1.148   8.588   0.103
13308WAT      O40165   9.809   3.663   4.459
13308WAT     H140166   9.883   3.644   4.524
13308WAT     H240167   9.843   3.653   4.366
13309WAT      O40168   6.073   8.795   8.525
13309WAT     H140169   6.075   8.731   8.602
13309WAT     H240170   5.986   8.787   8.476
13310WAT      O40171   5.096   7.225   5.716
13310WAT     H140172   5.119   7.220   5.813
13310WAT     H240173   5.057   7.138   5.687
13311WAT      O40174   5.125   4.975   9.427
13311WAT     H140175   5.106   5.027   9.343
13311WAT     H240176   5.212   5.006   9.466
13312WAT      O40177   7.731   6.528   3.078
13312WAT     H140178   7.652   6.466   3.089
13312WAT     H240179   7.751   6.539   2.981
13313WAT      O40180   5.109   2.093   8.283
13313WAT     H140181   5.106   2.058   8.190
13313WAT     H240182   5.052   2.174   8.291
13314WAT      O40183   4.399   5.241   2.444
13314WAT     H140184   4.383   5.223   2.541
13314WAT     H240185   4.497   5.249   2.427
13315WAT      O40186   7.830   8.260   5.983
13315WAT     H140187   7.811   8.296   5.892
13315WAT     H240188   7.829   8.160   5.980
13316WAT      O40189   8.375   8.333   9.246
13316WAT     H140190   8.385   8.433   9.247
13316WAT     H240191   8.358   8.302   9.152
13317WAT      O40192   4.044   7.450   2.320
13317WAT     H140193   3.955   7.460   2.275
13317WAT     H240194   4.042   7.499   2.408
13318WAT      O40195   1.608   4.101   0.029
13318WAT     H140196   1.656   4.018   0.002
13318WAT     H240197   1.528   4.078   0.083
13319WAT      O40198   3.830   6.591   2.246
13319WAT     H140199   3.907   6.594   2.182
13319WAT     H240200   3.746   6.617   2.198
13320WAT      O40201   8.459   6.013   3.642
13320WAT     H140202   8.413   6.058   3.566
13320WAT     H240203   8.511   6.081   3.694
13321WAT      O40204   7.384   5.978   4.605
13321WAT     H140205   7.369   5.979   4.704
13321WAT     H240206   7.469   5.929   4.585
13322WAT      O40207   1.855   5.512   8.224
13322WAT     H140208   1.881   5.459   8.143
13322WAT     H240209   1.913   5.484   8.302
13323WAT      O40210   7.581   2.000   5.453
13323WAT     H140211   7.679   2.013   5.434
13323WAT     H240212   7.528   2.058   5.391
13324WAT      O40213   1.430   7.093   6.826
13324WAT     H140214   1.522   7.054   6.818
13324WAT     H240215   1.436   7.192   6.813
13325WAT      O40216   6.769   6.920   3.310
13325WAT     H140217   6.736   6.962   3.395
13325WAT     H240218   6.694   6.871   3.266
13326WAT      O40219   6.682   5.096   0.971
13326WAT     H140220   6.592   5.120   1.007
13326WAT     H240221   6.674   5.072   0.874
13327WAT      O40222   4.488   6.131   1.534
13327WAT     H140223   4.410   6.084   1.493
13327WAT     H240224   4.478   6.229   1.520
13328WAT      O40225   1.169   0.181   9.855
13328WAT     H140226   1.125   0.133   9.932
13328WAT     H240227   1.106   0.249   9.817
13329WAT      O40228   4.491   2.448   9.089
13329WAT     H140229   4.451   2.540   9.086
13329WAT     H240230   4.432   2.388   9.143
13330WAT      O40231   7.838   0.809   3.916
13330WAT     H140232   7.936   0.812   3.897
13330WAT     H240233   7.814   0.880   3.982
13331WAT      O40234   4.815   5.008   8.770
13331WAT     H140235   4.805   5.077   8.699
13331WAT     H240236   4.738   4.944   8.767
13332WAT      O40237   9.199   9.491   5.792
13332WAT     H140238   9.281   9.540   5.761
13332WAT     H240239   9.139   9.555   5.841
13333WAT      O40240   6.347   7.122   7.609
13333WAT     H140241   6.364   7.209   7.564
13333WAT     H240242   6.434   7.073   7.621
13334WAT      O40243   5.719   3.111   5.480
13334WAT     H140244   5.665   3.069   5.407
13334WAT     H240245   5.692   3.071   5.568
13335WAT      O40246   0.895   1.294   5.578
13335WAT     H140247   0.850   1.362   5.636
13335WAT     H240248   0.915   1.212   5.632
13336WAT      O40249   8.857   2.869   8.423
13336WAT     H140250   8.902   2.841   8.339
13336WAT     H240251   8.759   2.851   8.417
13337WAT      O40252   0.428   0.075   2.474
13337WAT     H140253   0.465  -0.008   2.431
13337WAT     H240254   0.374   0.126   2.407
13338WAT      O40255   2.950   6.086   5.013
13338WAT     H140256   2.988   5.994   5.015
13338WAT     H240257   2.862   6.086   4.965
13339WAT      O40258   8.206   7.455   0.840
13339WAT     H140259   8.233   7.480   0.747
13339WAT     H240260   8.286   7.423   0.891
13340WAT      O40261   9.416   9.225   3.083
13340WAT     H140262   9.369   9.138   3.093
13340WAT     H240263   9.349   9.299   3.078
13341WAT      O40264   6.503   2.885   2.761
13341WAT     H140265   6.429   2.861   2.698
13341WAT     H240266   6.464   2.921   2.846
13342WAT      O40267   3.457   1.759   3.906
13342WAT     H140268   3.475   1.715   3.818
13342WAT     H240269   3.500   1.706   3.979
13343WAT      O40270   9.393   5.207   4.998
13343WAT     H140271   9.341   5.287   5.026
13343WAT     H240272   9.331   5.138   4.959
13344WAT      O40273   4.521   0.869   8.574
13344WAT     H140274   4.424   0.874   8.597
13344WAT     H240275   4.575   0.869   8.658
13345WAT      O40276   3.185   6.187   1.007
13345WAT     H140277   3.198   6.102   0.956
13345WAT     H240278   3.159   6.166   1.101
13346WAT      O40279   8.282   0.064   8.775
13346WAT     H140280   8.342   0.003   8.826
13346WAT     H240281   8.335   0.116   8.709
13347WAT      O40282   9.306   9.064   1.477
13347WAT     H140283   9.311   9.040   1.380
13347WAT     H240284   9.387   9.117   1.502
13348WAT      O40285   1.517   8.153   1.143
13348WAT     H140286   1.542   8.245   1.112
13348WAT     H240287   1.420   8.152   1.167
13349WAT      O40288   9.474   6.729   4.822
13349WAT     H140289   9.545   6.784   4.777
13349WAT     H240290   9.502   6.633   4.824
13350WAT      O40291   7.636   9.263   8.949
13350WAT     H140292   7.692   9.345   8.962
13350WAT     H240293   7.644   9.231   8.855
13351WAT      O40294   3.296   4.711   6.787
13351WAT     H140295   3.216   4.743   6.736
13351WAT     H240296   3.373   4.773   6.772
13352WAT      O40297   2.418   2.662   7.908
13352WAT     H140298   2.341   2.684   7.969
13352WAT     H240299   2.451   2.569   7.928
13353WAT      O40300   4.359   2.705   1.342
13353WAT     H140301   4.294   2.744   1.277
13353WAT     H240302   4.452   2.726   1.312
13354WAT      O40303   5.637   7.591   6.918
13354WAT     H140304   5.714   7.530   6.905
13354WAT     H240305   5.648   7.671   6.859
13355WAT      O40306   3.729   4.066   1.671
13355WAT     H140307   3.634   4.063   1.702
13355WAT     H240308   3.774   3.979   1.693
13356WAT      O40309   1.699   7.626   1.413
13356WAT     H140310   1.747   7.537   1.409
13356WAT     H240311   1.713   7.675   1.327
13357WAT      O40312   6.973   9.288   6.521
13357WAT     H140313   6.905   9.314   6.452
13357WAT     H240314   7.055   9.254   6.477
13358WAT      O40315   2.273   5.505   3.376
13358WAT     H140316   2.284   5.601   3.401
13358WAT     H240317   2.204   5.497   3.304
13359WAT      O40318   6.440   9.047   0.106
13359WAT     H140319   6.483   8.957   0.112
13359WAT     H240320   6.509   9.118   0.120
13360WAT      O40321   2.895   3.292   7.915
13360WAT     H140322   2.850   3.381   7.929
13360WAT     H240323   2.981   3.306   7.867
13361WAT      O40324   2.293   4.207   7.994
13361WAT     H140325   2.272   4.207   7.896
13361WAT     H240326   2.393   4.211   8.006
13362WAT      O40327   5.020   9.136   3.659
13362WAT     H140328   5.034   9.037   3.655
13362WAT     H240329   4.938   9.156   3.712
13363WAT      O40330   6.885   6.205   7.608
13363WAT     H140331   6.859   6.121   7.656
13363WAT     H240332   6.855   6.284   7.662
13364WAT      O40333   6.390   4.680   3.897
13364WAT     H140334   6.336   4.743   3.953
13364WAT     H240335   6.471   4.728   3.863
13365WAT      O40336   9.097   8.654   3.013
13365WAT     H140337   9.185   8.623   2.978
13365WAT     H240338   9.064   8.591   3.082
13366WAT      O40339   4.187   0.262   4.477
13366WAT     H140340   4.278   0.244   4.514
13366WAT     H240341   4.186   0.244   4.379
13367WAT      O40342   2.777   8.507   7.282
13367WAT     H140343   2.737   8.528   7.371
13367WAT     H240344   2.768   8.586   7.221
13368WAT      O40345   0.284   5.745   4.372
13368WAT     H140346   0.276   5.839   4.337
13368WAT     H240347   0.346   5.744   4.450
13369WAT      O40348   6.118   0.126   7.749
13369WAT     H140349   6.112   0.158   7.654
13369WAT     H240350   6.043   0.062   7.768
13370WAT      O40351   6.149   8.591   8.056
13370WAT     H140352   6.227   8.593   8.119
13370WAT     H240353   6.179   8.621   7.965
13371WAT      O40354   7.639   9.644   9.884
13371WAT     H140355   7.540   9.660   9.883
13371WAT     H240356   7.663   9.588   9.964
13372WAT      O40357   3.314   8.909   3.928
13372WAT     H140358   3.387   8.864   3.980
13372WAT     H240359   3.347   8.927   3.835
13373WAT      O40360   7.023   3.450   7.308
13373WAT     H140361   6.972   3.440   7.393
13373WAT     H240362   6.960   3.444   7.231
13374WAT      O40363   2.095   0.741   3.085
13374WAT     H140364   2.000   0.759   3.107
13374WAT     H240365   2.103   0.650   3.043
13375WAT      O40366   8.514   4.715   9.797
13375WAT     H140367   8.559   4.680   9.880
13375WAT     H240368   8.455   4.643   9.759
13376WAT      O40369   3.562   1.023   1.545
13376WAT     H140370   3.515   0.992   1.463
13376WAT     H240371   3.533   0.967   1.623
13377WAT      O40372   1.627   5.108   6.214
13377WAT     H140373   1.702   5.174   6.205
13377WAT     H240374   1.540   5.158   6.218
13378WAT      O40375   8.089   5.209   2.763
13378WAT     H140376   8.121   5.295   2.724
13378WAT     H240377   8.012   5.226   2.825
13379WAT      O40378   0.505   3.088   6.803
13379WAT     H140379   0.412   3.124   6.807
13379WAT     H240380   0.568   3.151   6.847
13380WAT      O40381   4.411   8.618   7.051
13380WAT     H140382   4.421   8.634   7.149
13380WAT     H240383   4.351   8.539   7.036
13381WAT      O40384   3.287   2.299   9.192
13381WAT     H140385   3.335   2.297   9.104
13381WAT     H240386   3.198   2.255   9.182
13382WAT      O40387   5.659   4.057   4.011
13382WAT     H140388   5.667   3.984   3.944
13382WAT     H240389   5.604   4.025   4.089
13383WAT      O40390   3.028   8.734   8.833
13383WAT     H140391   3.033   8.636   8.817
13383WAT     H240392   2.935   8.758   8.862
13384WAT      O40393   2.685   8.208   2.267
13384WAT     H140394   2.717   8.119   2.236
13384WAT     H240395   2.734   8.235   2.349
13385WAT      O40396   0.842   3.554   8.000
13385WAT     H140397   0.867   3.535   7.905
13385WAT     H240398   0.776   3.629   8.003
13386WAT      O40399   8.266   9.669   8.374
13386WAT     H140400   8.260   9.579   8.416
13386WAT     H240401   8.206   9.673   8.295
13387WAT      O40402   9.661   2.703   3.369
13387WAT     H140403   9.673   2.694   3.270
13387WAT     H240404   9.581   2.650   3.397
13388WAT      O40405   3.084   7.259   0.602
13388WAT     H140406   3.098   7.256   0.503
13388WAT     H240407   3.037   7.343   0.627
13389WAT      O40408   8.233   1.584   1.841
13389WAT     H140409   8.164   1.655   1.825
13389WAT     H240410   8.295   1.615   1.914
13390WAT      O40411   3.175   8.284   6.563
13390WAT     H140412   3.160   8.187   6.549
13390WAT     H240413   3.258   8.313   6.516
13391WAT      O40414   2.511   7.764   5.936
13391WAT     H140415   2.528   7.859   5.960
13391WAT     H240416   2.413   7.748   5.924
13392WAT      O40417   0.796   7.614   3.415
13392WAT     H140418   0.723   7.679   3.436
13392WAT     H240419   0.885   7.656   3.435
13393WAT      O40420   0.731   9.628   8.810
13393WAT     H140421   0.827   9.646   8.830
13393WAT     H240422   0.700   9.551   8.865
13394WAT      O40423   3.124   1.713   9.076
13394WAT     H140424   3.141   1.620   9.108
13394WAT     H240425   3.048   1.753   9.127
13395WAT      O40426   3.108   2.707   2.100
13395WAT     H140427   3.009   2.717   2.089
13395WAT     H240428   3.146   2.662   2.019
13396WAT      O40429   4.178   2.873   6.441
13396WAT     H140430   4.233   2.917   6.512
13396WAT     H240431   4.120   2.803   6.484
13397WAT      O40432   3.127   3.539   6.404
13397WAT     H140433   3.203   3.488   6.364
13397WAT     H240434   3.060   3.559   6.334
13398WAT      O40435   9.868   6.217   7.383
13398WAT     H140436   9.961   6.234   7.350
13398WAT     H240437   9.849   6.279   7.460
13399WAT      O40438   2.460   5.052   9.115
13399WAT     H140439   2.549   5.068   9.158
13399WAT     H240440   2.397   5.012   9.181
13400WAT      O40441   2.923   8.267   5.949
13400WAT     H140442   2.964   8.257   6.040
13400WAT     H240443   2.937   8.182   5.897
13401WAT      O40444   8.269   2.904   8.733
13401WAT     H140445   8.237   2.977   8.793
13401WAT     H240446   8.200   2.832   8.727
13402WAT      O40447   8.914   3.854   6.052
13402WAT     H140448   8.951   3.866   6.144
13402WAT     H240449   8.896   3.944   6.012
13403WAT      O40450   3.320   7.470   6.514
13403WAT     H140451   3.345   7.530   6.438
13403WAT     H240452   3.284   7.384   6.478
13404WAT      O40453   3.797   0.257   5.063
13404WAT     H140454   3.836   0.267   5.154
13404WAT     H240455   3.707   0.301   5.060
13405WAT      O40456   4.736   1.280   0.690
13405WAT     H140457   4.661   1.218   0.712
13405WAT     H240458   4.790   1.243   0.614
13406WAT      O40459   3.613   0.676   3.190
13406WAT     H140460   3.568   0.617   3.124
13406WAT     H240461   3.572   0.767   3.188
13407WAT      O40462   3.805   2.741   9.398
13407WAT     H140463   3.728   2.695   9.352
13407WAT     H240464   3.781   2.757   9.493
13408WAT      O40465   0.449   3.581   5.261
13408WAT     H140466   0.468   3.544   5.170
13408WAT     H240467   0.357   3.621   5.262
13409WAT      O40468   5.716   8.296   2.095
13409WAT     H140469   5.695   8.198   2.100
13409WAT     H240470   5.645   8.343   2.043
13410WAT      O40471   3.221   6.348   7.916
13410WAT     H140472   3.173   6.261   7.924
13410WAT     H240473   3.196   6.407   7.993
13411WAT      O40474   0.050   8.554   8.631
13411WAT     H140475   0.109   8.489   8.679
13411WAT     H240476  -0.012   8.506   8.570
13412WAT      O40477   9.194   2.394   1.088
13412WAT     H140478   9.150   2.388   1.177
13412WAT     H240479   9.196   2.490   1.058
13413WAT      O40480   0.114   4.887   7.825
13413WAT     H140481   0.135   4.835   7.743
13413WAT     H240482   0.198   4.924   7.864
13414WAT      O40483   1.489   5.670   1.050
13414WAT     H140484   1.442   5.721   0.978
13414WAT     H240485   1.456   5.575   1.051
13415WAT      O40486   5.893   0.120   8.563
13415WAT     H140487   5.798   0.135   8.536
13415WAT     H240488   5.898   0.040   8.624
13416WAT      O40489   2.025   1.289   6.863
13416WAT     H140490   1.984   1.205   6.898
13416WAT     H240491   2.022   1.360   6.933
13417WAT      O40492   2.858   6.429   5.258
13417WAT     H140493   2.770   6.381   5.252
13417WAT     H240494   2.852   6.503   5.324
13418WAT      O40495   3.255   9.714   8.857
13418WAT     H140496   3.230   9.628   8.901
13418WAT     H240497   3.352   9.732   8.873
13419WAT      O40498   1.255   7.884   7.609
13419WAT     H140499   1.224   7.905   7.516
13419WAT     H240500   1.292   7.791   7.611
13420WAT      O40501   5.964   2.167   1.332
13420WAT     H140502   5.880   2.205   1.372
13420WAT     H240503   5.942   2.125   1.244
13421WAT      O40504   1.486   3.446   9.041
13421WAT     H140505   1.478   3.399   8.953
13421WAT     H240506   1.457   3.384   9.115
13422WAT      O40507   2.880   5.537   9.276
13422WAT     H140508   2.961   5.596   9.280
13422WAT     H240509   2.824   5.553   9.358
13423WAT      O40510   5.159   8.275   7.879
13423WAT     H140511   5.196   8.256   7.788
13423WAT     H240512   5.068   8.236   7.887
13424WAT      O40513   0.351   2.672   1.478
13424WAT     H140514   0.443   2.634   1.485
13424WAT     H240515   0.292   2.607   1.430
13425WAT      O40516   1.807   2.590   5.590
13425WAT     H140517   1.894   2.633   5.564
13425WAT     H240518   1.733   2.657   5.581
13426WAT      O40519   2.637   9.732   4.363
13426WAT     H140520   2.545   9.767   4.348
13426WAT     H240521   2.695   9.804   4.401
13427WAT      O40522   0.576   4.739   8.311
13427WAT     H140523   0.561   4.786   8.398
13427WAT     H240524   0.653   4.781   8.263
13428WAT      O40525   7.605   2.460   6.819
13428WAT     H140526   7.649   2.419   6.739
13428WAT     H240527   7.601   2.559   6.807
13429WAT      O40528   8.826   9.585   0.223
13429WAT     H140529   8.792   9.624   0.308
13429WAT     H240530   8.888   9.650   0.179
13430WAT      O40531   4.433   2.432   5.961
13430WAT     H140532   4.484   2.513   5.929
13430WAT     H240533   4.337   2.440   5.934
13431WAT      O40534   6.023   8.962   4.669
13431WAT     H140535   6.013   9.024   4.746
13431WAT     H240536   6.083   9.003   4.600
13432WAT      O40537   9.482   2.353   1.082
13432WAT     H140538   9.384   2.347   1.102
13432WAT     H240539   9.495   2.374   0.985
13433WAT      O40540   8.263   5.434   6.056
13433WAT     H140541   8.191   5.440   6.125
13433WAT     H240542   8.247   5.502   5.985
13434WAT      O40543   4.391   3.851   0.025
13434WAT     H140544   4.413   3.796  -0.055
13434WAT     H240545   4.428   3.943   0.013
13435WAT      O40546   7.259   2.661   4.082
13435WAT     H140547   7.256   2.741   4.022
13435WAT     H240548   7.263   2.578   4.026
13436WAT      O40549   7.580   7.953   3.013
13436WAT     H140550   7.500   8.008   3.037
13436WAT     H240551   7.663   7.999   3.044
13437WAT      O40552   7.561   7.667   6.247
13437WAT     H140553   7.622   7.739   6.281
13437WAT     H240554   7.493   7.707   6.187
13438WAT      O40555   0.348   6.258   8.928
13438WAT     H140556   0.428   6.257   8.988
13438WAT     H240557   0.305   6.349   8.931
13439WAT      O40558   9.312   4.157   4.135
13439WAT     H140559   9.349   4.104   4.211
13439WAT     H240560   9.260   4.234   4.171
13440WAT      O40561   3.684   2.631   4.808
13440WAT     H140562   3.682   2.539   4.849
13440WAT     H240563   3.700   2.623   4.710
13441WAT      O40564   8.540   6.950   5.016
13441WAT     H140565   8.462   6.936   4.956
13441WAT     H240566   8.596   6.867   5.018
13442WAT      O40567   0.498   7.285   1.028
13442WAT     H140568   0.517   7.379   0.999
13442WAT     H240569   0.409   7.281   1.073
13443WAT      O40570   7.925   5.487   8.462
13443WAT     H140571   7.913   5.394   8.428
13443WAT     H240572   7.920   5.551   8.386
13444WAT      O40573   6.585   8.096   0.659
13444WAT     H140574   6.563   8.003   0.631
13444WAT     H240575   6.500   8.147   0.677
13445WAT      O40576   1.717   6.215   7.999
13445WAT     H140577   1.627   6.254   8.023
13445WAT     H240578   1.707   6.117   7.982
13446WAT      O40579   9.453   2.029   8.573
13446WAT     H140580   9.433   1.973   8.653
13446WAT     H240581   9.375   2.088   8.553
13447WAT      O40582   2.789   8.166   6.475
13447WAT     H140583   2.746   8.127   6.394
13447WAT     H240584   2.849   8.241   6.449
13448WAT      O40585   7.908   8.743   8.920
13448WAT     H140586   7.973   8.782   8.985
13448WAT     H240587   7.855   8.817   8.878
13449WAT      O40588   9.449   5.693   2.920
13449WAT     H140589   9.432   5.725   2.827
13449WAT     H240590   9.431   5.767   2.985
13450WAT      O40591   1.512   1.041   6.234
13450WAT     H140592   1.522   1.122   6.177
13450WAT     H240593   1.415   1.023   6.250
13451WAT      O40594   0.096   2.961   4.583
13451WAT     H140595   0.179   2.951   4.638
13451WAT     H240596   0.117   2.939   4.488
13452WAT      O40597   9.354   0.640   9.764
13452WAT     H140598   9.423   0.703   9.729
13452WAT     H240599   9.349   0.647   9.864
13453WAT      O40600   7.416   7.344   3.216
13453WAT     H140601   7.434   7.430   3.263
13453WAT     H240602   7.341   7.356   3.151
13454WAT      O40603   6.257   5.237   2.790
13454WAT     H140604   6.158   5.229   2.800
13454WAT     H240605   6.287   5.328   2.821
13455WAT      O40606   3.355   5.277   1.509
13455WAT     H140607   3.344   5.226   1.594
13455WAT     H240608   3.419   5.353   1.523
13456WAT      O40609   1.231   7.440   1.244
13456WAT     H140610   1.303   7.428   1.312
13456WAT     H240611   1.208   7.351   1.205
13457WAT      O40612   6.964   2.098   7.040
13457WAT     H140613   6.872   2.068   7.017
13457WAT     H240614   6.960   2.172   7.107
13458WAT      O40615   7.092   0.179   3.054
13458WAT     H140616   7.128   0.144   2.968
13458WAT     H240617   7.009   0.130   3.078
13459WAT      O40618   0.358   8.583   2.079
13459WAT     H140619   0.271   8.631   2.095
13459WAT     H240620   0.429   8.623   2.138
13460WAT      O40621   2.142   0.765   9.412
13460WAT     H140622   2.225   0.766   9.355
13460WAT     H240623   2.083   0.689   9.385
13461WAT      O40624   0.990   2.168   2.101
13461WAT     H140625   1.058   2.120   2.046
13461WAT     H240626   1.037   2.217   2.175
13462WAT      O40627   1.931   6.459   6.487
13462WAT     H140628   1.976   6.512   6.559
13462WAT     H240629   1.914   6.366   6.521
13463WAT      O40630   6.257   7.295   1.822
13463WAT     H140631   6.275   7.236   1.743
13463WAT     H240632   6.340   7.345   1.846
13464WAT      O40633   9.501   0.497   7.274
13464WAT     H140634   9.454   0.538   7.352
13464WAT     H240635   9.457   0.525   7.189
13465WAT      O40636   7.600   6.056   5.498
13465WAT     H140637   7.582   6.149   5.465
13465WAT     H240638   7.654   6.061   5.582
13466WAT      O40639   3.855   9.677   1.886
13466WAT     H140640   3.914   9.605   1.922
13466WAT     H240641   3.865   9.682   1.786
13467WAT      O40642   4.190   4.891   9.864
13467WAT     H140643   4.243   4.810   9.887
13467WAT     H240644   4.125   4.911   9.938
13468WAT      O40645   2.661   8.215   6.059
13468WAT     H140646   2.593   8.198   5.988
13468WAT     H240647   2.748   8.240   6.017
13469WAT      O40648   1.691   6.998   6.813
13469WAT     H140649   1.734   7.068   6.870
13469WAT     H240650   1.755   6.967   6.744
13470WAT      O40651   1.376   7.597   0.789
13470WAT     H140652   1.353   7.591   0.887
13470WAT     H240653   1.475   7.604   0.779
13471WAT      O40654   2.743   0.593   9.753
13471WAT     H140655   2.827   0.573   9.703
13471WAT     H240656   2.701   0.676   9.716
13472WAT      O40657   4.899   6.320   3.116
13472WAT     H140658   4.877   6.253   3.045
13472WAT     H240659   4.854   6.293   3.201
13473WAT      O40660   3.014   4.305   2.184
13473WAT     H140661   3.027   4.389   2.131
13473WAT     H240662   2.952   4.323   2.260
13474WAT      O40663   2.996   0.976   0.123
13474WAT     H140664   3.089   1.008   0.141
13474WAT     H240665   2.999   0.894   0.065
13475WAT      O40666   7.629   3.609   5.881
13475WAT     H140667   7.540   3.652   5.862
13475WAT     H240668   7.636   3.523   5.830
13476WAT      O40669   9.029   8.319   6.658
13476WAT     H140670   8.993   8.247   6.599
13476WAT     H240671   9.118   8.290   6.694
13477WAT      O40672   9.586   1.324   5.384
13477WAT     H140673   9.612   1.235   5.420
13477WAT     H240674   9.508   1.360   5.435
13478WAT      O40675   2.840   6.223   2.896
13478WAT     H140676   2.896   6.289   2.845
13478WAT     H240677   2.851   6.132   2.856
13479WAT      O40678   8.278   6.734   8.053
13479WAT     H140679   8.338   6.765   7.979
13479WAT     H240680   8.256   6.812   8.113
13480WAT      O40681   5.132   0.693   6.364
13480WAT     H140682   5.221   0.653   6.340
13480WAT     H240683   5.145   0.788   6.393
13481WAT      O40684   3.913   6.330   1.337
13481WAT     H140685   3.841   6.285   1.284
13481WAT     H240686   3.976   6.377   1.275
13482WAT      O40687   7.898   2.386   3.548
13482WAT     H140688   7.990   2.399   3.511
13482WAT     H240689   7.848   2.473   3.543
13483WAT      O40690   1.032   5.893   1.449
13483WAT     H140691   1.060   5.904   1.544
13483WAT     H240692   1.041   5.797   1.422
13484WAT      O40693   9.753   7.235   4.644
13484WAT     H140694   9.680   7.171   4.668
13484WAT     H240695   9.729   7.327   4.676
13485WAT      O40696   4.505   3.470   4.546
13485WAT     H140697   4.598   3.459   4.580
13485WAT     H240698   4.458   3.540   4.599
13486WAT      O40699   4.510   6.054   6.014
13486WAT     H140700   4.517   6.136   5.957
13486WAT     H240701   4.599   6.032   6.053
13487WAT      O40702   7.781   5.114   5.182
13487WAT     H140703   7.780   5.057   5.265
13487WAT     H240704   7.779   5.055   5.102
13488WAT      O40705   8.005   2.972   3.031
13488WAT     H140706   7.957   2.907   3.089
13488WAT     H240707   8.063   3.030   3.089
13489WAT      O40708   1.934   0.599   6.561
13489WAT     H140709   1.877   0.553   6.629
13489WAT     H240710   2.010   0.540   6.536
13490WAT      O40711   2.284   6.383   2.562
13490WAT     H140712   2.202   6.330   2.585
13490WAT     H240713   2.261   6.480   2.560
13491WAT      O40714   1.296   7.221   2.467
13491WAT     H140715   1.305   7.141   2.526
13491WAT     H240716   1.201   7.254   2.469
13492WAT      O40717   0.074   4.410   9.598
13492WAT     H140718   0.169   4.385   9.620
13492WAT     H240719   0.038   4.346   9.531
13493WAT      O40720   1.669   7.201   7.928
13493WAT     H140721   1.625   7.229   8.013
13493WAT     H240722   1.655   7.272   7.859
13494WAT      O40723   8.690   3.111   4.353
13494WAT     H140724   8.692   3.077   4.447
13494WAT     H240725   8.663   3.037   4.292
13495WAT      O40726   8.397   3.647   5.697
13495WAT     H140727   8.469   3.704   5.736
13495WAT     H240728   8.393   3.559   5.744
13496WAT      O40729   6.919   1.257   9.311
13496WAT     H140730   7.008   1.212   9.313
13496WAT     H240731   6.847   1.191   9.332
13497WAT      O40732   2.916   2.647   0.235
13497WAT     H140733   2.976   2.624   0.159
13497WAT     H240734   2.969   2.648   0.320
13498WAT      O40735   0.953   4.477   2.886
13498WAT     H140736   0.907   4.411   2.826
13498WAT     H240737   0.887   4.546   2.915
13499WAT      O40738   2.115   9.143   4.848
13499WAT     H140739   2.033   9.159   4.904
13499WAT     H240740   2.087   9.130   4.753
13500WAT      O40741   0.476   5.373   7.638
13500WAT     H140742   0.482   5.289   7.692
13500WAT     H240743   0.521   5.448   7.688
13501WAT      O40744   5.436   7.456   6.803
13501WAT     H140745   5.450   7.386   6.734
13501WAT     H240746   5.524   7.495   6.830
13502WAT      O40747   4.648   2.046   9.002
13502WAT     H140748   4.692   1.967   9.044
13502WAT     H240749   4.550   2.029   8.991
13503WAT      O40750   0.497   4.977   7.005
13503WAT     H140751   0.417   5.031   7.031
13503WAT     H240752   0.554   4.961   7.086
13504WAT      O40753   4.292   8.710   6.432
13504WAT     H140754   4.270   8.785   6.495
13504WAT     H240755   4.208   8.679   6.387
13505WAT      O40756   6.155   6.674   2.074
13505WAT     H140757   6.164   6.594   2.133
13505WAT     H240758   6.127   6.753   2.129
13506WAT      O40759   7.268   8.977   4.914
13506WAT     H140760   7.329   9.051   4.887
13506WAT     H240761   7.219   8.944   4.834
13507WAT      O40762   6.396   0.610   2.354
13507WAT     H140763   6.393   0.696   2.404
13507WAT     H240764   6.491   0.587   2.333
13508WAT      O40765   9.228   7.991   8.742
13508WAT     H140766   9.143   7.941   8.729
13508WAT     H240767   9.242   8.054   8.666
13509WAT      O40768   0.255   6.274   7.306
13509WAT     H140769   0.279   6.178   7.321
13509WAT     H240770   0.334   6.322   7.268
13510WAT      O40771   7.809   3.335   3.437
13510WAT     H140772   7.729   3.390   3.461
13510WAT     H240773   7.779   3.255   3.384
13511WAT      O40774   3.348   7.241   9.504
13511WAT     H140775   3.447   7.232   9.506
13511WAT     H240776   3.306   7.157   9.540
13512WAT      O40777   9.089   5.531   0.299
13512WAT     H140778   9.070   5.625   0.330
13512WAT     H240779   9.003   5.487   0.273
13513WAT      O40780   1.764   6.113   8.898
13513WAT     H140781   1.720   6.194   8.936
13513WAT     H240782   1.823   6.071   8.967
13514WAT      O40783   4.144   9.327   4.157
13514WAT     H140784   4.087   9.404   4.125
13514WAT     H240785   4.229   9.324   4.104
13515WAT      O40786   5.602   9.570   3.225
13515WAT     H140787   5.687   9.581   3.173
13515WAT     H240788   5.621   9.523   3.311
13516WAT      O40789   6.089   0.675   8.079
13516WAT     H140790   6.014   0.723   8.125
13516WAT     H240791   6.158   0.742   8.051
13517WAT      O40792   6.786   6.280   3.719
13517WAT     H140793   6.881   6.253   3.735
13517WAT     H240794   6.782   6.343   3.642
13518WAT      O40795   8.014   6.101   6.106
13518WAT     H140796   8.037   6.049   6.189
13518WAT     H240797   7.959   6.181   6.131
13519WAT      O40798   4.822   1.017   7.254
13519WAT     H140799   4.774   0.989   7.337
13519WAT     H240800   4.902   0.958   7.240
13520WAT      O40801   1.241   6.025   5.092
13520WAT     H140802   1.266   5.928   5.094
13520WAT     H240803   1.243   6.057   4.997
13521WAT      O40804   8.659   2.112   9.365
13521WAT     H140805   8.619   2.161   9.443
13521WAT     H240806   8.588   2.056   9.321
13522WAT      O40807   9.388   2.096   2.825
13522WAT     H140808   9.404   2.015   2.881
13522WAT     H240809   9.364   2.068   2.732
13523WAT      O40810   6.083   8.606   2.097
13523WAT     H140811   6.059   8.509   2.105
13523WAT     H240812   6.175   8.622   2.132
13524WAT      O40813   5.151   1.524   3.168
13524WAT     H140814   5.184   1.616   3.188
13524WAT     H240815   5.169   1.502   3.072
13525WAT      O40816   0.907   2.758   6.927
13525WAT     H140817   0.863   2.683   6.977
13525WAT     H240818   0.985   2.723   6.876
13526WAT      O40819   6.885   3.114   3.188
13526WAT     H140820   6.797   3.087   3.150
13526WAT     H240821   6.919   3.042   3.248
13527WAT      O40822   3.899   5.763   8.290
13527WAT     H140823   3.887   5.839   8.354
13527WAT     H240824   3.876   5.677   8.336
13528WAT      O40825   4.306   6.281   0.193
13528WAT     H140826   4.267   6.372   0.175
13528WAT     H240827   4.400   6.279   0.160
13529WAT      O40828   5.382   3.043   2.543
13529WAT     H140829   5.340   3.134   2.539
13529WAT     H240830   5.435   3.027   2.459
13530WAT      O40831   2.582   1.187   0.249
13530WAT     H140832   2.553   1.137   0.168
13530WAT     H240833   2.681   1.176   0.262
13531WAT      O40834   5.039   4.275   0.159
13531WAT     H140835   5.047   4.369   0.190
13531WAT     H240836   5.120   4.250   0.105
13532WAT      O40837   3.869   5.877   1.135
13532WAT     H140838   3.926   5.956   1.112
13532WAT     H240839   3.796   5.867   1.068
13533WAT      O40840   0.437   3.039   3.392
13533WAT     H140841   0.351   3.016   3.437
13533WAT     H240842   0.426   3.123   3.340
13534WAT      O40843   1.968   6.560   0.697
13534WAT     H140844   1.925   6.480   0.738
13534WAT     H240845   2.065   6.542   0.681
13535WAT      O40846   5.194   9.300   1.046
13535WAT     H140847   5.126   9.334   0.982
13535WAT     H240848   5.154   9.292   1.137
13536WAT      O40849   3.227   0.593   6.624
13536WAT     H140850   3.213   0.685   6.588
13536WAT     H240851   3.138   0.553   6.649
13537WAT      O40852   0.642   3.141   9.770
13537WAT     H140853   0.733   3.163   9.804
13537WAT     H240854   0.650   3.073   9.697
13538WAT      O40855   8.997   3.452   0.211
13538WAT     H140856   9.092   3.477   0.192
13538WAT     H240857   8.958   3.516   0.276
13539WAT      O40858   9.291   0.310   9.334
13539WAT     H140859   9.267   0.380   9.267
13539WAT     H240860   9.338   0.352   9.412
13540WAT      O40861   6.133   1.056   7.113
13540WAT     H140862   6.198   1.089   7.045
13540WAT     H240863   6.184   1.016   7.190
13541WAT      O40864   4.918   8.792   0.977
13541WAT     H140865   4.874   8.704   0.995
13541WAT     H240866   4.886   8.827   0.889
13542WAT      O40867   0.422   5.165   0.411
13542WAT     H140868   0.416   5.210   0.322
13542WAT     H240869   0.512   5.124   0.422
13543WAT      O40870   5.570   0.122   6.846
13543WAT     H140871   5.656   0.133   6.796
13543WAT     H240872   5.522   0.041   6.813
13544WAT      O40873   1.460   8.146   7.016
13544WAT     H140874   1.443   8.130   7.113
13544WAT     H240875   1.483   8.243   7.002
13545WAT      O40876   4.680   5.197   1.940
13545WAT     H140877   4.766   5.148   1.928
13545WAT     H240878   4.674   5.271   1.872
13546WAT      O40879   8.244   4.301   0.444
13546WAT     H140880   8.296   4.230   0.491
13546WAT     H240881   8.242   4.383   0.501
13547WAT      O40882   6.935   6.181   0.150
13547WAT     H140883   6.975   6.247   0.087
13547WAT     H240884   7.008   6.135   0.200
13548WAT      O40885   6.733   5.387   3.630
13548WAT     H140886   6.805   5.398   3.699
13548WAT     H240887   6.670   5.315   3.659
13549WAT      O40888   3.594   8.194   9.538
13549WAT     H140889   3.547   8.149   9.614
13549WAT     H240890   3.556   8.286   9.525
13550WAT      O40891   2.208   4.869   8.833
13550WAT     H140892   2.291   4.924   8.820
13550WAT     H240893   2.230   4.772   8.829
13551WAT      O40894   1.289   6.498   1.904
13551WAT     H140895   1.264   6.402   1.917
13551WAT     H240896   1.207   6.554   1.914
13552WAT      O40897   2.329   8.487   3.694
13552WAT     H140898   2.366   8.401   3.729
13552WAT     H240899   2.306   8.477   3.597
13553WAT      O40900   2.805   7.613   3.470
13553WAT     H140901   2.764   7.585   3.383
13553WAT     H240902   2.733   7.637   3.535
13554WAT      O40903   4.777   0.338   1.609
13554WAT     H140904   4.875   0.326   1.592
13554WAT     H240905   4.754   0.299   1.698
13555WAT      O40906   7.201   9.045   6.569
13555WAT     H140907   7.176   8.950   6.588
13555WAT     H240908   7.170   9.070   6.477
13556WAT      O40909   3.539   7.626   0.195
13556WAT     H140910   3.594   7.545   0.177
13556WAT     H240911   3.486   7.614   0.278
13557WAT      O40912   2.471   4.470   9.871
13557WAT     H140913   2.562   4.487   9.833
13557WAT     H240914   2.477   4.395   9.937
13558WAT      O40915   6.261   5.658   3.301
13558WAT     H140916   6.305   5.741   3.266
13558WAT     H240917   6.232   5.601   3.224
13559WAT      O40918   2.471   3.670   7.785
13559WAT     H140919   2.415   3.750   7.763
13559WAT     H240920   2.557   3.675   7.734
13560WAT      O40921   9.335   1.318   4.672
13560WAT     H140922   9.362   1.344   4.579
13560WAT     H240923   9.308   1.400   4.723
13561WAT      O40924   4.600   4.717   3.507
13561WAT     H140925   4.606   4.721   3.606
13561WAT     H240926   4.633   4.627   3.476
13562WAT      O40927   1.220   0.932   5.108
13562WAT     H140928   1.298   0.871   5.124
13562WAT     H240929   1.137   0.878   5.098
13563WAT      O40930   3.363   0.415   6.422
13563WAT     H140931   3.460   0.419   6.444
13563WAT     H240932   3.314   0.486   6.473
13564WAT      O40933   6.140   1.989   5.544
13564WAT     H140934   6.135   2.063   5.476
13564WAT     H240935   6.098   1.907   5.507
13565WAT      O40936   7.532   2.383   3.294
13565WAT     H140937   7.609   2.447   3.299
13565WAT     H240938   7.528   2.342   3.203
13566WAT      O40939   3.797   4.333   5.799
13566WAT     H140940   3.749   4.307   5.883
13566WAT     H240941   3.837   4.251   5.757
13567WAT      O40942   1.221   1.816   3.275
13567WAT     H140943   1.205   1.732   3.327
13567WAT     H240944   1.133   1.861   3.256
13568WAT      O40945   3.703   3.292   4.508
13568WAT     H140946   3.637   3.284   4.582
13568WAT     H240947   3.658   3.271   4.421
13569WAT      O40948   6.630   0.832   9.643
13569WAT     H140949   6.577   0.754   9.676
13569WAT     H240950   6.716   0.838   9.694
13570WAT      O40951   1.856   6.508   8.769
13570WAT     H140952   1.864   6.551   8.679
13570WAT     H240953   1.933   6.446   8.783
13571WAT      O40954   2.946   4.992   2.550
13571WAT     H140955   2.997   5.071   2.516
13571WAT     H240956   3.002   4.942   2.616
13572WAT      O40957   8.460   7.825   4.789
13572WAT     H140958   8.462   7.924   4.778
13572WAT     H240959   8.522   7.799   4.862
13573WAT      O40960   4.343   1.818   5.724
13573WAT     H140961   4.257   1.855   5.689
13573WAT     H240962   4.417   1.880   5.702
13574WAT      O40963   9.325   6.233   4.479
13574WAT     H140964   9.327   6.287   4.563
13574WAT     H240965   9.316   6.136   4.502
13575WAT      O40966   4.666   8.018   2.978
13575WAT     H140967   4.620   8.096   2.935
13575WAT     H240968   4.658   7.938   2.919
13576WAT      O40969   7.717   9.458   0.201
13576WAT     H140970   7.669   9.472   0.288
13576WAT     H240971   7.726   9.360   0.183
13577WAT      O40972   7.539   1.827   7.637
13577WAT     H140973   7.560   1.846   7.541
13577WAT     H240974   7.620   1.847   7.692
13578WAT      O40975   9.307   6.750   0.079
13578WAT     H140976   9.236   6.752   0.009
13578WAT     H240977   9.328   6.655   0.104
13579WAT      O40978   1.169   0.696   5.673
13579WAT     H140979   1.223   0.708   5.756
13579WAT     H240980   1.221   0.642   5.607
13580WAT      O40981   1.937   7.233   4.657
13580WAT     H140982   1.852   7.266   4.697
13580WAT     H240983   1.969   7.152   4.707
13581WAT      O40984   9.809   6.582   5.809
13581WAT     H140985   9.894   6.591   5.757
13581WAT     H240986   9.812   6.498   5.863
13582WAT      O40987   4.987   7.489   7.857
13582WAT     H140988   5.037   7.417   7.906
13582WAT     H240989   5.052   7.544   7.804
13583WAT      O40990   5.214   6.210   4.791
13583WAT     H140991   5.159   6.231   4.872
13583WAT     H240992   5.310   6.208   4.816
13584WAT      O40993   7.034   6.429   1.481
13584WAT     H140994   7.082   6.445   1.568
13584WAT     H240995   7.060   6.500   1.415
13585WAT      O40996   8.049   0.104   4.900
13585WAT     H140997   7.977   0.044   4.937
13585WAT     H240998   8.011   0.195   4.885
13586WAT      O40999   5.794   1.715   6.138
13586WAT     H141000   5.786   1.674   6.229
13586WAT     H241001   5.891   1.722   6.114
13587WAT      O41002   0.775   8.398   4.180
13587WAT     H141003   0.806   8.351   4.097
13587WAT     H241004   0.675   8.396   4.183
13588WAT      O41005   5.568   3.074   0.472
13588WAT     H141006   5.572   3.008   0.397
13588WAT     H241007   5.503   3.147   0.448
13589WAT      O41008   0.267   8.319   1.444
13589WAT     H141009   0.265   8.281   1.352
13589WAT     H241010   0.325   8.262   1.502
13590WAT      O41011   0.664   3.541   7.302
13590WAT     H141012   0.709   3.540   7.213
13590WAT     H241013   0.596   3.615   7.304
13591WAT      O41014   8.932   3.864   5.405
13591WAT     H141015   8.916   3.879   5.307
13591WAT     H241016   8.878   3.930   5.458
13592WAT      O41017   8.476   4.834   6.122
13592WAT     H141018   8.448   4.765   6.055
13592WAT     H241019   8.405   4.904   6.129
13593WAT      O41020   0.515   0.019   3.195
13593WAT     H141021   0.492   0.116   3.198
13593WAT     H241022   0.614   0.008   3.208
13594WAT      O41023   2.310   1.167   5.773
13594WAT     H141024   2.281   1.259   5.748
13594WAT     H241025   2.232   1.104   5.763
13595WAT      O41026   4.165   5.687   5.748
13595WAT     H141027   4.163   5.701   5.847
13595WAT     H241028   4.097   5.746   5.705
13596WAT      O41029   7.456   7.064   9.078
13596WAT     H141030   7.509   7.025   9.002
13596WAT     H241031   7.407   7.145   9.046
13597WAT      O41032   4.776   2.791   0.982
13597WAT     H141033   4.847   2.723   0.997
13597WAT     H241034   4.811   2.865   0.924
13598WAT      O41035   5.293   7.743   1.149
13598WAT     H141036   5.250   7.684   1.081
13598WAT     H241037   5.223   7.800   1.193
13599WAT      O41038   5.376   8.269   6.684
13599WAT     H141039   5.348   8.350   6.734
13599WAT     H241040   5.359   8.187   6.740
13600WAT      O41041   7.205   0.067   4.949
13600WAT     H141042   7.206   0.085   4.850
13600WAT     H241043   7.110   0.054   4.978
13601WAT      O41044   8.098   9.687   0.885
13601WAT     H141045   8.036   9.675   0.963
13601WAT     H241046   8.162   9.610   0.882
13602WAT      O41047   0.826   0.195   4.844
13602WAT     H141048   0.784   0.241   4.765
13602WAT     H241049   0.754   0.169   4.909
13603WAT      O41050   7.131   1.772   9.534
13603WAT     H141051   7.102   1.803   9.624
13603WAT     H241052   7.226   1.799   9.518
13604WAT      O41053   7.438   2.080   7.751
13604WAT     H141054   7.494   2.031   7.685
13604WAT     H241055   7.447   2.038   7.841
13605WAT      O41056   5.474   4.832   7.973
13605WAT     H141057   5.438   4.824   8.066
13605WAT     H241058   5.534   4.754   7.954
13606WAT      O41059   3.569   4.618   8.783
13606WAT     H141060   3.542   4.536   8.733
13606WAT     H241061   3.583   4.594   8.879
13607WAT      O41062   1.373   0.973   7.709
13607WAT     H141063   1.447   0.929   7.659
13607WAT     H241064   1.288   0.965   7.656
13608WAT      O41065   1.053   4.174   7.036
13608WAT     H141066   1.085   4.182   6.942
13608WAT     H241067   0.956   4.149   7.036
13609WAT      O41068   1.938   5.411   8.843
13609WAT     H141069   1.886   5.445   8.765
13609WAT     H241070   1.920   5.468   8.923
13610WAT      O41071   3.337   8.950   8.926
13610WAT     H141072   3.248   8.908   8.945
13610WAT     H241073   3.401   8.926   8.999
13611WAT      O41074   2.904   3.743   8.084
13611WAT     H141075   2.925   3.730   8.181
13611WAT     H241076   2.989   3.760   8.034
13612WAT      O41077   9.671   2.614   1.815
13612WAT     H141078   9.736   2.584   1.885
13612WAT     H241079   9.614   2.537   1.786
13613WAT      O41080   6.815   3.863   5.038
13613WAT     H141081   6.755   3.899   5.109
13613WAT     H241082   6.864   3.783   5.072
13614WAT      O41083   9.864   9.289   8.960
13614WAT     H141084   9.808   9.313   8.881
13614WAT     H241085   9.904   9.199   8.947
13615WAT      O41086   7.775   4.058   3.537
13615WAT     H141087   7.679   4.044   3.558
13615WAT     H241088   7.794   4.156   3.532
13616WAT      O41089   6.662   6.114   1.636
13616WAT     H141090   6.680   6.204   1.596
13616WAT     H241091   6.568   6.110   1.669
13617WAT      O41092   0.625   5.664   3.026
13617WAT     H141093   0.677   5.744   2.997
13617WAT     H241094   0.558   5.690   3.096
13618WAT      O41095   2.533   0.675   8.732
13618WAT     H141096   2.594   0.622   8.791
13618WAT     H241097   2.510   0.620   8.651
13619WAT      O41098   5.095   9.185   8.663
13619WAT     H141099   5.162   9.183   8.589
13619WAT     H241100   5.109   9.107   8.724
13620WAT      O41101   7.270   8.350   1.091
13620WAT     H141102   7.176   8.360   1.060
13620WAT     H241103   7.281   8.397   1.179
13621WAT      O41104   2.793   5.761   6.872
13621WAT     H141105   2.797   5.722   6.964
13621WAT     H241106   2.880   5.806   6.851
13622WAT      O41107   8.796   3.372   7.630
13622WAT     H141108   8.743   3.288   7.639
13622WAT     H241109   8.841   3.374   7.541
13623WAT      O41110   3.187   2.680   2.376
13623WAT     H141111   3.142   2.680   2.286
13623WAT     H241112   3.189   2.587   2.412
13624WAT      O41113   8.114   0.477   0.123
13624WAT     H141114   8.062   0.489   0.208
13624WAT     H241115   8.090   0.391   0.080
13625WAT      O41116   8.237   9.201   8.849
13625WAT     H141117   8.151   9.197   8.900
13625WAT     H241118   8.294   9.123   8.873
13626WAT      O41119   3.244   3.529   0.361
13626WAT     H141120   3.279   3.459   0.300
13626WAT     H241121   3.191   3.596   0.308
13627WAT      O41122   5.502   9.626   0.285
13627WAT     H141123   5.471   9.670   0.200
13627WAT     H241124   5.586   9.576   0.266
13628WAT      O41125   5.650   6.413   2.406
13628WAT     H141126   5.581   6.341   2.421
13628WAT     H241127   5.604   6.500   2.387
13629WAT      O41128   1.792   0.043   1.866
13629WAT     H141129   1.867  -0.007   1.909
13629WAT     H241130   1.801   0.140   1.885
13630WAT      O41131   7.229   6.857   0.023
13630WAT     H141132   7.313   6.893   0.062
13630WAT     H241133   7.151   6.886   0.078
13631WAT      O41134   5.192   4.610   5.582
13631WAT     H141135   5.163   4.568   5.668
13631WAT     H241136   5.126   4.680   5.555
13632WAT      O41137   8.083   6.995   0.482
13632WAT     H141138   7.995   7.026   0.516
13632WAT     H241139   8.144   7.074   0.469
13633WAT      O41140   3.439   9.094   2.881
13633WAT     H141141   3.370   9.023   2.865
13633WAT     H241142   3.509   9.089   2.810
13634WAT      O41143   8.309   1.568   3.154
13634WAT     H141144   8.233   1.509   3.181
13634WAT     H241145   8.387   1.512   3.127
13635WAT      O41146   7.889   8.123   2.235
13635WAT     H141147   7.820   8.051   2.222
13635WAT     H241148   7.888   8.184   2.155
13636WAT      O41149   4.997   9.141   8.123
13636WAT     H141150   5.045   9.078   8.184
13636WAT     H241151   5.064   9.189   8.067
13637WAT      O41152   8.107   5.371   4.475
13637WAT     H141153   8.114   5.350   4.378
13637WAT     H241154   8.063   5.460   4.487
13638WAT      O41155   3.443   0.733   2.395
13638WAT     H141156   3.469   0.736   2.298
13638WAT     H241157   3.525   0.742   2.451
13639WAT      O41158   4.354   3.237   1.064
13639WAT     H141159   4.331   3.140   1.050
13639WAT     H241160   4.453   3.248   1.063
13640WAT      O41161   7.636   2.938   0.630
13640WAT     H141162   7.588   2.883   0.700
13640WAT     H241163   7.585   3.022   0.613
13641WAT      O41164   3.026   9.387   1.021
13641WAT     H141165   3.011   9.379   1.119
13641WAT     H241166   2.939   9.402   0.974
13642WAT      O41167   7.480   3.196   0.560
13642WAT     H141168   7.496   3.252   0.642
13642WAT     H241169   7.396   3.143   0.572
13643WAT      O41170   1.575   7.404   4.150
13643WAT     H141171   1.486   7.437   4.117
13643WAT     H241172   1.625   7.479   4.194
13644WAT      O41173   3.290   7.276   7.634
13644WAT     H141174   3.293   7.222   7.719
13644WAT     H241175   3.319   7.218   7.558
13645WAT      O41176   4.733   0.458   8.900
13645WAT     H141177   4.659   0.459   8.833
13645WAT     H241178   4.765   0.364   8.913
13646WAT      O41179   3.416   0.878   3.117
13646WAT     H141180   3.434   0.968   3.156
13646WAT     H241181   3.472   0.866   3.034
13647WAT      O41182   3.973   4.382   3.083
13647WAT     H141183   3.985   4.385   3.183
13647WAT     H241184   4.005   4.293   3.049
13648WAT      O41185   1.806   1.701   0.268
13648WAT     H141186   1.814   1.707   0.367
13648WAT     H241187   1.714   1.672   0.244
13649WAT      O41188   0.677   0.879   4.159
13649WAT     H141189   0.688   0.947   4.087
13649WAT     H241190   0.703   0.920   4.247
13650WAT      O41191   4.632   7.865   6.275
13650WAT     H141192   4.592   7.773   6.274
13650WAT     H241193   4.716   7.864   6.330
13651WAT      O41194   4.464   7.491   2.335
13651WAT     H141195   4.413   7.566   2.378
13651WAT     H241196   4.554   7.525   2.306
13652WAT      O41197   3.655   0.037   8.313
13652WAT     H141198   3.563   0.075   8.307
13652WAT     H241199   3.655  -0.055   8.274
13653WAT      O41200   0.704   7.610   7.496
13653WAT     H141201   0.770   7.657   7.437
13653WAT     H241202   0.678   7.524   7.454
13654WAT      O41203   9.522   8.679   3.633
13654WAT     H141204   9.581   8.752   3.598
13654WAT     H241205   9.426   8.705   3.621
13655WAT      O41206   9.070   9.099   2.191
13655WAT     H141207   9.120   9.018   2.224
13655WAT     H241208   9.004   9.071   2.122
13656WAT      O41209   5.680   2.745   8.918
13656WAT     H141210   5.623   2.824   8.941
13656WAT     H241211   5.776   2.768   8.934
13657WAT      O41212   6.437   5.627   7.575
13657WAT     H141213   6.514   5.563   7.583
13657WAT     H241214   6.355   5.577   7.547
13658WAT      O41215   7.955   6.914   3.565
13658WAT     H141216   7.915   6.848   3.502
13658WAT     H241217   7.888   6.939   3.635
13659WAT      O41218   2.088   0.912   6.971
13659WAT     H141219   2.121   0.856   7.047
13659WAT     H241220   2.094   0.859   6.886
13660WAT      O41221   9.102   2.836   6.946
13660WAT     H141222   9.078   2.739   6.936
13660WAT     H241223   9.060   2.872   7.029
13661WAT      O41224   2.900   8.826   3.104
13661WAT     H141225   2.963   8.793   3.033
13661WAT     H241226   2.807   8.824   3.070
13662WAT      O41227   4.845   2.448   9.621
13662WAT     H141228   4.936   2.422   9.589
13662WAT     H241229   4.776   2.399   9.568
13663WAT      O41230   6.775   6.869   1.112
13663WAT     H141231   6.728   6.848   1.198
13663WAT     H241232   6.841   6.942   1.129
13664WAT      O41233   8.647   6.678   6.254
13664WAT     H141234   8.705   6.598   6.274
13664WAT     H241235   8.555   6.660   6.287
13665WAT      O41236   2.068   3.145   4.780
13665WAT     H141237   2.162   3.111   4.775
13665WAT     H241238   2.016   3.091   4.845
13666WAT      O41239   0.402   1.062   0.762
13666WAT     H141240   0.476   1.084   0.825
13666WAT     H241241   0.356   0.978   0.794
13667WAT      O41242   1.958   5.302   1.081
13667WAT     H141243   2.003   5.257   1.005
13667WAT     H241244   2.014   5.379   1.113
13668WAT      O41245   1.559   7.300   3.402
13668WAT     H141246   1.498   7.287   3.481
13668WAT     H241247   1.513   7.271   3.319
13669WAT      O41248   8.420   3.928   4.425
13669WAT     H141249   8.392   3.960   4.334
13669WAT     H241250   8.343   3.882   4.469
13670WAT      O41251   1.748   6.855   3.184
13670WAT     H141252   1.762   6.904   3.270
13670WAT     H241253   1.799   6.769   3.186
13671WAT      O41254   8.416   7.576   3.216
13671WAT     H141255   8.410   7.674   3.193
13671WAT     H241256   8.505   7.558   3.258
13672WAT      O41257   9.680   9.531   7.081
13672WAT     H141258   9.766   9.507   7.127
13672WAT     H241259   9.655   9.625   7.105
13673WAT      O41260   8.195   2.322   4.951
13673WAT     H141261   8.255   2.398   4.928
13673WAT     H241262   8.226   2.279   5.036
13674WAT      O41263   0.836   4.775   0.919
13674WAT     H141264   0.842   4.695   0.859
13674WAT     H241265   0.788   4.849   0.872
13675WAT      O41266   2.435   7.551   7.205
13675WAT     H141267   2.358   7.542   7.142
13675WAT     H241268   2.415   7.621   7.272
13676WAT      O41269   0.431   3.581   8.201
13676WAT     H141270   0.502   3.631   8.251
13676WAT     H241271   0.381   3.644   8.141
13677WAT      O41272   5.530   8.247   8.956
13677WAT     H141273   5.570   8.247   9.047
13677WAT     H241274   5.594   8.288   8.891
13678WAT      O41275   2.210   9.120   0.257
13678WAT     H141276   2.266   9.051   0.211
13678WAT     H241277   2.129   9.076   0.295
13679WAT      O41278   7.439   1.568   8.734
13679WAT     H141279   7.382   1.546   8.813
13679WAT     H241280   7.401   1.647   8.686
13680WAT      O41281   0.508   4.927   7.661
13680WAT     H141282   0.482   5.003   7.720
13680WAT     H241283   0.581   4.874   7.704
13681WAT      O41284   3.210   4.598   9.133
13681WAT     H141285   3.203   4.663   9.058
13681WAT     H241286   3.265   4.520   9.104
13682WAT      O41287   4.840   4.460   7.258
13682WAT     H141288   4.914   4.412   7.305
13682WAT     H241289   4.868   4.554   7.239
13683WAT      O41290   4.774   3.568   3.889
13683WAT     H141291   4.690   3.555   3.942
13683WAT     H241292   4.785   3.664   3.867
13684WAT      O41293   3.323   9.356   2.326
13684WAT     H141294   3.317   9.411   2.409
13684WAT     H241295   3.297   9.412   2.247
13685WAT      O41296   2.113   3.750   8.608
13685WAT     H141297   2.033   3.800   8.641
13685WAT     H241298   2.196   3.788   8.648
13686WAT      O41299   1.742   8.617   0.366
13686WAT     H141300   1.742   8.517   0.365
13686WAT     H241301   1.653   8.651   0.334
13687WAT      O41302   1.032   5.673   1.277
13687WAT     H141303   1.121   5.701   1.241
13687WAT     H241304   0.960   5.704   1.215
13688WAT      O41305   4.794   5.917   5.632
13688WAT     H141306   4.832   5.934   5.541
13688WAT     H241307   4.716   5.977   5.648
13689WAT      O41308   0.869   4.894   7.531
13689WAT     H141309   0.942   4.911   7.598
13689WAT     H241310   0.839   4.981   7.492
13690WAT      O41311   5.069   4.846   2.998
13690WAT     H141312   5.110   4.788   3.069
13690WAT     H241313   5.136   4.864   2.927
13691WAT      O41314   6.144   0.383   9.321
13691WAT     H141315   6.152   0.481   9.302
13691WAT     H241316   6.158   0.332   9.237
13692WAT      O41317   6.393   8.786   7.636
13692WAT     H141318   6.461   8.719   7.605
13692WAT     H241319   6.340   8.746   7.711
13693WAT      O41320   2.122   0.521   3.845
13693WAT     H141321   2.168   0.610   3.840
13693WAT     H241322   2.169   0.456   3.786
13694WAT      O41323   0.054   1.017   1.336
13694WAT     H141324   0.146   1.027   1.372
13694WAT     H241325   0.020   1.107   1.307
13695WAT      O41326   1.304   0.917   2.879
13695WAT     H141327   1.365   0.955   2.808
13695WAT     H241328   1.331   0.952   2.968
13696WAT      O41329   9.052   6.252   5.896
13696WAT     H141330   8.995   6.191   5.951
13696WAT     H241331   9.126   6.200   5.854
13697WAT      O41332   6.519   2.547   1.719
13697WAT     H141333   6.434   2.499   1.698
13697WAT     H241334   6.583   2.539   1.643
13698WAT      O41335   7.031   2.770   5.114
13698WAT     H141336   7.127   2.752   5.090
13698WAT     H241337   7.026   2.842   5.183
13699WAT      O41338   3.192   8.491   2.919
13699WAT     H141339   3.162   8.398   2.897
13699WAT     H241340   3.251   8.488   3.000
13700WAT      O41341   5.434   3.251   2.230
13700WAT     H141342   5.374   3.324   2.199
13700WAT     H241343   5.489   3.284   2.307
13701WAT      O41344   6.575   6.685   1.870
13701WAT     H141345   6.486   6.710   1.908
13701WAT     H241346   6.594   6.739   1.788
13702WAT      O41347   3.593   1.394   9.065
13702WAT     H141348   3.575   1.429   9.157
13702WAT     H241349   3.506   1.377   9.018
13703WAT      O41350   8.510   9.749   8.389
13703WAT     H141351   8.563   9.679   8.438
13703WAT     H241352   8.419   9.713   8.369
13704WAT      O41353   6.043   7.903   8.993
13704WAT     H141354   5.982   7.842   8.942
13704WAT     H241355   5.989   7.974   9.038
13705WAT      O41356   3.638   0.222   8.741
13705WAT     H141357   3.662   0.290   8.811
13705WAT     H241358   3.699   0.232   8.662
13706WAT      O41359   5.810   1.827   7.785
13706WAT     H141360   5.752   1.749   7.763
13706WAT     H241361   5.890   1.796   7.837
13707WAT      O41362   4.933   1.742   8.546
13707WAT     H141363   4.844   1.756   8.501
13707WAT     H241364   4.949   1.644   8.555
13708WAT      O41365   0.078   5.190   1.309
13708WAT     H141366  -0.007   5.226   1.348
13708WAT     H241367   0.060   5.101   1.267
13709WAT      O41368   5.744   9.606   9.082
13709WAT     H141369   5.804   9.686   9.084
13709WAT     H241370   5.661   9.625   9.134
13710WAT      O41371   8.136   4.317   1.791
13710WAT     H141372   8.226   4.277   1.808
13710WAT     H241373   8.145   4.416   1.779
13711WAT      O41374   3.318   3.414   0.804
13711WAT     H141375   3.231   3.404   0.852
13711WAT     H241376   3.382   3.467   0.860
13712WAT      O41377   8.630   8.443   0.896
13712WAT     H141378   8.627   8.492   0.808
13712WAT     H241379   8.549   8.384   0.903
13713WAT      O41380   6.826   3.554   7.582
13713WAT     H141381   6.906   3.546   7.641
13713WAT     H241382   6.743   3.549   7.637
13714WAT      O41383   0.845   5.447   6.299
13714WAT     H141384   0.826   5.417   6.392
13714WAT     H241385   0.882   5.540   6.301
13715WAT      O41386   8.286   4.588   1.628
13715WAT     H141387   8.321   4.642   1.704
13715WAT     H241388   8.361   4.537   1.586
13716WAT      O41389   5.174   0.310   0.492
13716WAT     H141390   5.087   0.325   0.538
13716WAT     H241391   5.234   0.387   0.509
13717WAT      O41392   0.502   9.781   3.824
13717WAT     H141393   0.530   9.875   3.800
13717WAT     H241394   0.462   9.781   3.916
13718WAT      O41395   0.856   0.132   0.326
13718WAT     H141396   0.793   0.090   0.260
13718WAT     H241397   0.805   0.194   0.386
13719WAT      O41398   2.360   3.980   5.443
13719WAT     H141399   2.316   3.910   5.387
13719WAT     H241400   2.292   4.019   5.506
13720WAT      O41401   5.961   2.867   8.671
13720WAT     H141402   6.053   2.851   8.637
13720WAT     H241403   5.951   2.828   8.762
13721WAT      O41404   1.456   7.511   8.862
13721WAT     H141405   1.429   7.568   8.939
13721WAT     H241406   1.409   7.423   8.868
13722WAT      O41407   6.072   5.200   7.625
13722WAT     H141408   6.044   5.296   7.620
13722WAT     H241409   6.014   5.146   7.563
13723WAT      O41410   1.754   2.280   9.263
13723WAT     H141411   1.742   2.365   9.211
13723WAT     H241412   1.755   2.202   9.200
13724WAT      O41413   3.116   4.836   0.621
13724WAT     H141414   3.094   4.769   0.691
13724WAT     H241415   3.077   4.808   0.534
13725WAT      O41416   2.297   8.936   0.046
13725WAT     H141417   2.251   9.018   0.012
13725WAT     H241418   2.330   8.882  -0.032
13726WAT      O41419   3.474   2.039   3.924
13726WAT     H141420   3.515   2.039   4.015
13726WAT     H241421   3.459   1.944   3.895
13727WAT      O41422   0.894   9.198   2.139
13727WAT     H141423   0.921   9.218   2.044
13727WAT     H241424   0.794   9.204   2.147
13728WAT      O41425   1.981   1.119   3.923
13728WAT     H141426   1.953   1.113   3.828
13728WAT     H241427   2.052   1.188   3.933
13729WAT      O41428   4.628   2.580   6.343
13729WAT     H141429   4.642   2.540   6.433
13729WAT     H241430   4.706   2.640   6.321
13730WAT      O41431   7.875   3.272   2.759
13730WAT     H141432   7.911   3.270   2.666
13730WAT     H241433   7.950   3.287   2.824
13731WAT      O41434   7.381   0.194   8.849
13731WAT     H141435   7.406   0.179   8.945
13731WAT     H241436   7.353   0.107   8.808
13732WAT      O41437   7.974   8.188   6.695
13732WAT     H141438   8.015   8.113   6.746
13732WAT     H241439   7.934   8.152   6.610
13733WAT      O41440   9.329   3.588   8.421
13733WAT     H141441   9.349   3.659   8.355
13733WAT     H241442   9.379   3.606   8.506
13734WAT      O41443   5.627   8.670   6.333
13734WAT     H141444   5.590   8.727   6.406
13734WAT     H241445   5.567   8.677   6.253
13735WAT      O41446   8.828   8.721   0.203
13735WAT     H141447   8.747   8.667   0.228
13735WAT     H241448   8.905   8.659   0.188
13736WAT      O41449   2.145   0.493   4.378
13736WAT     H141450   2.191   0.441   4.306
13736WAT     H241451   2.203   0.570   4.406
13737WAT      O41452   7.976   3.183   0.226
13737WAT     H141453   7.912   3.158   0.299
13737WAT     H241454   7.925   3.200   0.142
13738WAT      O41455   8.017   6.132   9.008
13738WAT     H141456   8.027   6.054   9.069
13738WAT     H241457   7.922   6.143   8.981
13739WAT      O41458   0.601   9.586   5.785
13739WAT     H141459   0.576   9.491   5.766
13739WAT     H241460   0.684   9.610   5.734
13740WAT      O41461   2.416   8.688   6.325
13740WAT     H141462   2.464   8.749   6.388
13740WAT     H241463   2.451   8.701   6.232
13741WAT      O41464   8.683   3.568   2.253
13741WAT     H141465   8.735   3.590   2.336
13741WAT     H241466   8.614   3.638   2.237
13742WAT      O41467   4.714   3.750   3.278
13742WAT     H141468   4.711   3.751   3.378
13742WAT     H241469   4.694   3.657   3.245
13743WAT      O41470   0.876   0.804   3.421
13743WAT     H141471   0.972   0.824   3.401
13743WAT     H241472   0.821   0.886   3.406
13744WAT      O41473   6.699   2.581   8.092
13744WAT     H141474   6.669   2.591   7.997
13744WAT     H241475   6.670   2.491   8.125
13745WAT      O41476   3.609   3.734   9.148
13745WAT     H141477   3.639   3.760   9.240
13745WAT     H241478   3.521   3.688   9.153
13746WAT      O41479   0.096   2.149   2.210
13746WAT     H141480   0.166   2.159   2.280
13746WAT     H241481   0.096   2.230   2.151
13747WAT      O41482   8.428   4.890   9.097
13747WAT     H141483   8.495   4.876   9.170
13747WAT     H241484   8.348   4.938   9.133
13748WAT      O41485   2.587   3.425   8.044
13748WAT     H141486   2.529   3.488   8.096
13748WAT     H241487   2.660   3.476   7.999
13749WAT      O41488   7.212   9.820   8.758
13749WAT     H141489   7.216   9.786   8.852
13749WAT     H241490   7.123   9.796   8.718
13750WAT      O41491   2.279   3.310   5.505
13750WAT     H141492   2.319   3.264   5.585
13750WAT     H241493   2.185   3.277   5.493
13751WAT      O41494   0.904   4.257   1.692
13751WAT     H141495   0.929   4.172   1.645
13751WAT     H241496   0.870   4.323   1.624
13752WAT      O41497   4.347   3.024   5.296
13752WAT     H141498   4.350   2.929   5.264
13752WAT     H241499   4.255   3.061   5.284
13753WAT      O41500   1.239   4.649   4.336
13753WAT     H141501   1.290   4.568   4.304
13753WAT     H241502   1.176   4.621   4.409
13754WAT      O41503   5.426   1.292   0.355
13754WAT     H141504   5.505   1.286   0.416
13754WAT     H241505   5.390   1.201   0.338
13755WAT      O41506   4.888   5.264   5.768
13755WAT     H141507   4.803   5.260   5.820
13755WAT     H241508   4.960   5.217   5.819
13756WAT      O41509   6.254   4.322   4.100
13756WAT     H141510   6.196   4.299   4.178
13756WAT     H241511   6.198   4.360   4.026
13757WAT      O41512   8.664   9.060   9.274
13757WAT     H141513   8.657   9.036   9.371
13757WAT     H241514   8.627   8.985   9.218
13758WAT      O41515   6.558   3.352   8.102
13758WAT     H141516   6.642   3.384   8.145
13758WAT     H241517   6.578   3.321   8.009
13759WAT      O41518   2.645   6.038   1.764
13759WAT     H141519   2.569   6.074   1.711
13759WAT     H241520   2.693   5.968   1.711
13760WAT      O41521   3.743   6.989   0.495
13760WAT     H141522   3.718   7.083   0.518
13760WAT     H241523   3.792   6.989   0.407
13761WAT      O41524   8.102   0.150   3.999
13761WAT     H141525   8.105   0.246   3.973
13761WAT     H241526   8.132   0.093   3.923
13762WAT      O41527   7.778   7.543   4.682
13762WAT     H141528   7.839   7.487   4.739
13762WAT     H241529   7.707   7.584   4.739
13763WAT      O41530   7.594   9.305   1.517
13763WAT     H141531   7.609   9.206   1.518
13763WAT     H241532   7.576   9.336   1.424
13764WAT      O41533   7.710   7.306   3.460
13764WAT     H141534   7.674   7.258   3.380
13764WAT     H241535   7.707   7.405   3.443
13765WAT      O41536   0.372   0.555   1.956
13765WAT     H141537   0.374   0.601   2.044
13765WAT     H241538   0.463   0.519   1.935
13766WAT      O41539   8.007   1.208   9.547
13766WAT     H141540   8.085   1.168   9.595
13766WAT     H241541   8.035   1.295   9.506
13767WAT      O41542   1.626   5.271   1.981
13767WAT     H141543   1.636   5.212   1.901
13767WAT     H241544   1.642   5.366   1.955
13768WAT      O41545   1.480   6.304   2.328
13768WAT     H141546   1.425   6.244   2.386
13768WAT     H241547   1.577   6.287   2.345
13769WAT      O41548   2.052   6.835   0.957
13769WAT     H141549   2.035   6.911   1.019
13769WAT     H241550   2.050   6.868   0.862
13770WAT      O41551   9.172   3.661   2.900
13770WAT     H141552   9.213   3.602   2.832
13770WAT     H241553   9.223   3.654   2.986
13771WAT      O41554   1.744   7.792   4.740
13771WAT     H141555   1.822   7.847   4.711
13771WAT     H241556   1.709   7.741   4.662
13772WAT      O41557   4.518   2.716   6.819
13772WAT     H141558   4.579   2.641   6.792
13772WAT     H241559   4.430   2.679   6.848
13773WAT      O41560   9.519   1.675   4.836
13773WAT     H141561   9.446   1.713   4.779
13773WAT     H241562   9.479   1.642   4.922
13774WAT      O41563   5.715   4.158   3.146
13774WAT     H141564   5.702   4.248   3.186
13774WAT     H241565   5.636   4.134   3.089
13775WAT      O41566   2.387   9.690   5.440
13775WAT     H141567   2.485   9.697   5.459
13775WAT     H241568   2.367   9.602   5.399
13776WAT      O41569   7.930   3.525   8.205
13776WAT     H141570   7.837   3.499   8.232
13776WAT     H241571   7.955   3.477   8.121
13777WAT      O41572   2.769   1.322   3.638
13777WAT     H141573   2.671   1.317   3.658
13777WAT     H241574   2.800   1.235   3.601
13778WAT      O41575   9.726   1.705   1.726
13778WAT     H141576   9.786   1.683   1.803
13778WAT     H241577   9.742   1.639   1.652
13779WAT      O41578   9.558   9.584   1.051
13779WAT     H141579   9.630   9.650   1.072
13779WAT     H241580   9.568   9.504   1.110
13780WAT      O41581   0.347   3.825   3.325
13780WAT     H141582   0.273   3.826   3.258
13780WAT     H241583   0.322   3.881   3.404
13781WAT      O41584   2.474   1.055   4.285
13781WAT     H141585   2.460   0.987   4.357
13781WAT     H241586   2.401   1.047   4.217
13782WAT      O41587   2.155   9.642   4.241
13782WAT     H141588   2.056   9.651   4.245
13782WAT     H241589   2.185   9.570   4.302
13783WAT      O41590   9.077   5.889   4.331
13783WAT     H141591   9.006   5.826   4.301
13783WAT     H241592   9.156   5.883   4.270
13784WAT      O41593   1.747   0.996   1.502
13784WAT     H141594   1.706   1.038   1.421
13784WAT     H241595   1.684   0.928   1.539
13785WAT      O41596   5.458   6.216   2.424
13785WAT     H141597   5.427   6.228   2.519
13785WAT     H241598   5.471   6.119   2.405
13786WAT      O41599   7.160   5.424   5.796
13786WAT     H141600   7.138   5.461   5.706
13786WAT     H241601   7.129   5.329   5.802
13787WAT      O41602   8.439   4.316   1.267
13787WAT     H141603   8.357   4.369   1.245
13787WAT     H241604   8.415   4.219   1.273
13788WAT      O41605   0.550   0.888   0.619
13788WAT     H141606   0.486   0.960   0.646
13788WAT     H241607   0.561   0.890   0.519
13789WAT      O41608   1.453   7.367   6.839
13789WAT     H141609   1.536   7.368   6.894
13789WAT     H241610   1.373   7.381   6.898
13790WAT      O41611   8.840   4.254   1.400
13790WAT     H141612   8.805   4.161   1.388
13790WAT     H241613   8.894   4.258   1.485
13791WAT      O41614   1.490   1.582   0.863
13791WAT     H141615   1.509   1.581   0.765
13791WAT     H241616   1.391   1.574   0.878
13792WAT      O41617   1.899   6.881   6.693
13792WAT     H141618   1.998   6.893   6.684
13792WAT     H241619   1.862   6.850   6.606
13793WAT      O41620   7.984   5.927   8.775
13793WAT     H141621   8.016   6.005   8.829
13793WAT     H241622   7.884   5.923   8.779
13794WAT      O41623   5.761   0.369   1.939
13794WAT     H141624   5.778   0.308   2.016
13794WAT     H241625   5.665   0.362   1.911
13795WAT      O41626   1.284   6.064   0.163
13795WAT     H141627   1.382   6.042   0.166
13795WAT     H241628   1.239   6.026   0.244
13796WAT      O41629   7.573   0.803   3.847
13796WAT     H141630   7.669   0.809   3.875
13796WAT     H241631   7.535   0.895   3.840
13797WAT      O41632   4.431   2.094   5.641
13797WAT     H141633   4.412   2.104   5.544
13797WAT     H241634   4.519   2.048   5.654
13798WAT      O41635   5.940   3.275   3.715
13798WAT     H141636   5.994   3.286   3.798
13798WAT     H241637   5.879   3.196   3.725
13799WAT      O41638   0.287   1.754   9.359
13799WAT     H141639   0.281   1.830   9.294
13799WAT     H241640   0.210   1.692   9.344
13800WAT      O41641   2.418   3.780   6.780
13800WAT     H141642   2.474   3.836   6.720
13800WAT     H241643   2.406   3.827   6.868
13801WAT      O41644   5.786   9.673   3.851
13801WAT     H141645   5.838   9.604   3.799
13801WAT     H241646   5.775   9.755   3.795
13802WAT      O41647   3.117   9.787   7.794
13802WAT     H141648   3.164   9.700   7.809
13802WAT     H241649   3.049   9.776   7.722
13803WAT      O41650   6.386   0.769   4.988
13803WAT     H141651   6.341   0.856   4.966
13803WAT     H241652   6.318   0.705   5.023
13804WAT      O41653   1.132   8.897   6.918
13804WAT     H141654   1.231   8.884   6.929
13804WAT     H241655   1.095   8.938   7.002
13805WAT      O41656   9.231   0.283   9.691
13805WAT     H141657   9.156   0.344   9.717
13805WAT     H241658   9.305   0.336   9.651
13806WAT      O41659   6.615   9.821   5.743
13806WAT     H141660   6.672   9.866   5.675
13806WAT     H241661   6.657   9.735   5.772
13807WAT      O41662   3.887   4.539   1.629
13807WAT     H141663   3.961   4.576   1.685
13807WAT     H241664   3.876   4.441   1.648
13808WAT      O41665   1.417   9.415   0.463
13808WAT     H141666   1.429   9.320   0.490
13808WAT     H241667   1.441   9.425   0.366
13809WAT      O41668   6.342   4.664   1.359
13809WAT     H141669   6.385   4.676   1.448
13809WAT     H241670   6.248   4.697   1.363
13810WAT      O41671   3.714   5.897   4.237
13810WAT     H141672   3.712   5.966   4.164
13810WAT     H241673   3.760   5.815   4.203
13811WAT      O41674   8.515   3.503   2.553
13811WAT     H141675   8.454   3.580   2.535
13811WAT     H241676   8.592   3.534   2.609
13812WAT      O41677   7.128   8.064   8.686
13812WAT     H141678   7.089   7.974   8.668
13812WAT     H241679   7.063   8.118   8.740
13813WAT      O41680   3.679   3.538   9.543
13813WAT     H141681   3.749   3.472   9.570
13813WAT     H241682   3.665   3.604   9.616
13814WAT      O41683   0.432   0.349   5.640
13814WAT     H141684   0.429   0.250   5.623
13814WAT     H241685   0.497   0.368   5.714
13815WAT      O41686   7.062   3.760   1.823
13815WAT     H141687   7.007   3.677   1.835
13815WAT     H241688   7.037   3.805   1.738
13816WAT      O41689   7.901   8.480   8.924
13816WAT     H141690   7.839   8.444   8.994
13816WAT     H241691   7.917   8.577   8.941
13817WAT      O41692   8.537   2.543   7.835
13817WAT     H141693   8.475   2.527   7.912
13817WAT     H241694   8.485   2.570   7.754
13818WAT      O41695   0.659   1.436   1.051
13818WAT     H141696   0.680   1.406   0.958
13818WAT     H241697   0.589   1.376   1.091
13819WAT      O41698   5.645   5.683   8.825
13819WAT     H141699   5.635   5.641   8.735
13819WAT     H241700   5.606   5.623   8.895
13820WAT      O41701   9.427   3.557   9.629
13820WAT     H141702   9.407   3.463   9.658
13820WAT     H241703   9.394   3.621   9.698
13821WAT      O41704   6.128   2.668   0.907
13821WAT     H141705   6.053   2.639   0.847
13821WAT     H241706   6.091   2.701   0.993
13822WAT      O41707   8.289   2.249   7.958
13822WAT     H141708   8.251   2.202   8.038
13822WAT     H241709   8.216   2.268   7.892
13823WAT      O41710   3.523   4.612   2.381
13823WAT     H141711   3.582   4.605   2.462
13823WAT     H241712   3.440   4.558   2.396
13824WAT      O41713   7.746   2.623   5.963
13824WAT     H141714   7.776   2.560   6.035
13824WAT     H241715   7.673   2.682   5.998
13825WAT      O41716   2.980   8.834   7.447
13825WAT     H141717   2.916   8.861   7.375
13825WAT     H241718   3.064   8.798   7.405
13826WAT      O41719   1.436   6.653   5.935
13826WAT     H141720   1.451   6.750   5.953
13826WAT     H241721   1.517   6.614   5.893
13827WAT      O41722   5.554   9.790   7.752
13827WAT     H141723   5.609   9.868   7.721
13827WAT     H241724   5.594   9.752   7.835
13828WAT      O41725   1.221   3.198   2.498
13828WAT     H141726   1.309   3.213   2.543
13828WAT     H241727   1.149   3.191   2.567
13829WAT      O41728   5.959   9.207   7.098
13829WAT     H141729   6.026   9.276   7.069
13829WAT     H241730   5.988   9.167   7.184
13830WAT      O41731   2.572   3.291   5.743
13830WAT     H141732   2.478   3.270   5.771
13830WAT     H241733   2.570   3.338   5.654
13831WAT      O41734   0.885   3.169   0.896
13831WAT     H141735   0.969   3.186   0.947
13831WAT     H241736   0.868   3.245   0.833
13832WAT      O41737   2.760   0.191   2.209
13832WAT     H141738   2.827   0.153   2.146
13832WAT     H241739   2.800   0.268   2.259
13833WAT      O41740   0.432   1.084   4.653
13833WAT     H141741   0.394   1.074   4.745
13833WAT     H241742   0.370   1.042   4.587
13834WAT      O41743   0.359   4.500   4.914
13834WAT     H141744   0.309   4.413   4.918
13834WAT     H241745   0.295   4.576   4.917
13835WAT      O41746   7.091   1.080   4.238
13835WAT     H141747   6.997   1.056   4.261
13835WAT     H241748   7.154   1.014   4.279
13836WAT      O41749   2.355   3.104   4.799
13836WAT     H141750   2.357   3.046   4.717
13836WAT     H241751   2.405   3.189   4.780
13837WAT      O41752   2.495   5.526   0.815
13837WAT     H141753   2.521   5.443   0.864
13837WAT     H241754   2.577   5.572   0.782
13838WAT      O41755   1.709   4.498   3.755
13838WAT     H141756   1.737   4.424   3.815
13838WAT     H241757   1.788   4.554   3.731
13839WAT      O41758   2.766   2.583   9.669
13839WAT     H141759   2.763   2.497   9.719
13839WAT     H241760   2.826   2.648   9.716
13840WAT      O41761   7.483   7.371   2.551
13840WAT     H141762   7.427   7.362   2.468
13840WAT     H241763   7.540   7.289   2.561
13841WAT      O41764   5.308   3.577   3.991
13841WAT     H141765   5.278   3.499   3.936
13841WAT     H241766   5.347   3.544   4.077
13842WAT      O41767   0.478   0.138   6.929
13842WAT     H141768   0.516   0.131   6.836
13842WAT     H241769   0.548   0.174   6.990
13843WAT      O41770   0.484   3.369   7.435
13843WAT     H141771   0.549   3.293   7.433
13843WAT     H241772   0.533   3.454   7.414
13844WAT      O41773   8.767   9.389   5.372
13844WAT     H141774   8.837   9.372   5.441
13844WAT     H241775   8.729   9.301   5.342
13845WAT      O41776   1.953   7.830   7.028
13845WAT     H141777   2.040   7.875   7.011
13845WAT     H241778   1.878   7.894   7.011
13846WAT      O41779   8.873   8.248   2.106
13846WAT     H141780   8.834   8.168   2.059
13846WAT     H241781   8.973   8.245   2.101
13847WAT      O41782   0.605   0.610   5.188
13847WAT     H141783   0.584   0.532   5.247
13847WAT     H241784   0.521   0.643   5.145
13848WAT      O41785   7.489   4.215   6.599
13848WAT     H141786   7.503   4.210   6.501
13848WAT     H241787   7.391   4.228   6.618
13849WAT      O41788   2.516   6.973   8.401
13849WAT     H141789   2.581   6.939   8.333
13849WAT     H241790   2.484   6.897   8.458
13850WAT      O41791   4.085   4.053   8.595
13850WAT     H141792   4.115   4.103   8.676
13850WAT     H241793   4.134   4.088   8.515
13851WAT      O41794   3.431   3.797   9.869
13851WAT     H141795   3.407   3.891   9.891
13851WAT     H241796   3.355   3.736   9.893
13852WAT      O41797   0.873   0.968   1.220
13852WAT     H141798   0.820   1.042   1.261
13852WAT     H241799   0.882   0.984   1.122
13853WAT      O41800   8.552   7.388   9.517
13853WAT     H141801   8.563   7.401   9.419
13853WAT     H241802   8.455   7.374   9.538
13854WAT      O41803   2.950   3.209   2.990
13854WAT     H141804   3.049   3.203   2.976
13854WAT     H241805   2.930   3.278   3.059
13855WAT      O41806   5.902   6.514   9.317
13855WAT     H141807   5.988   6.464   9.330
13855WAT     H241808   5.825   6.456   9.342
13856WAT      O41809   2.847   6.013   9.699
13856WAT     H141810   2.823   6.028   9.603
13856WAT     H241811   2.788   6.069   9.757
13857WAT      O41812   5.065   4.204   2.586
13857WAT     H141813   5.047   4.300   2.570
13857WAT     H241814   5.012   4.148   2.523
13858WAT      O41815   9.552   8.037   5.650
13858WAT     H141816   9.523   8.011   5.558
13858WAT     H241817   9.519   7.969   5.715
13859WAT      O41818   2.302   3.196   7.120
13859WAT     H141819   2.392   3.160   7.142
13859WAT     H241820   2.284   3.278   7.174
13860WAT      O41821   7.841   6.541   8.334
13860WAT     H141822   7.862   6.579   8.244
13860WAT     H241823   7.852   6.442   8.331
13861WAT      O41824   3.023   2.119   5.901
13861WAT     H141825   3.039   2.089   5.995
13861WAT     H241826   2.975   2.207   5.902
13862WAT      O41827   6.315   8.902   8.487
13862WAT     H141828   6.227   8.855   8.500
13862WAT     H241829   6.325   8.973   8.556
13863WAT      O41830   7.046   3.722   4.385
13863WAT     H141831   6.981   3.696   4.457
13863WAT     H241832   7.057   3.821   4.385
13864WAT      O41833   0.384   7.786   9.353
13864WAT     H141834   0.310   7.720   9.338
13864WAT     H241835   0.446   7.752   9.424
13865WAT      O41836   6.896   1.623   4.612
13865WAT     H141837   6.878   1.648   4.517
13865WAT     H241838   6.821   1.655   4.670
13866WAT      O41839   4.992   2.429   2.379
13866WAT     H141840   4.945   2.482   2.308
13866WAT     H241841   4.975   2.331   2.365
13867WAT      O41842   9.829   0.906   1.090
13867WAT     H141843   9.862   0.976   1.153
13867WAT     H241844   9.741   0.871   1.123
13868WAT      O41845   1.442   0.349   6.506
13868WAT     H141846   1.514   0.419   6.507
13868WAT     H241847   1.394   0.351   6.419
13869WAT      O41848   7.092   0.707   8.489
13869WAT     H141849   7.001   0.744   8.507
13869WAT     H241850   7.146   0.774   8.438
13870WAT      O41851   1.771   8.920   4.019
13870WAT     H141852   1.765   8.863   4.101
13870WAT     H241853   1.707   8.997   4.028
13871WAT      O41854   0.161   7.234   9.205
13871WAT     H141855   0.188   7.148   9.249
13871WAT     H241856   0.103   7.286   9.267
13872WAT      O41857   4.057   9.132   8.235
13872WAT     H141858   4.018   9.224   8.232
13872WAT     H241859   4.133   9.130   8.300
13873WAT      O41860   7.446   7.426   7.008
13873WAT     H141861   7.387   7.420   7.089
13873WAT     H241862   7.430   7.514   6.962
13874WAT      O41863   7.834   2.779   1.675
13874WAT     H141864   7.869   2.717   1.745
13874WAT     H241865   7.908   2.808   1.615
13875WAT      O41866   3.932   2.433   4.999
13875WAT     H141867   3.875   2.467   5.074
13875WAT     H241868   4.027   2.457   5.016
13876WAT      O41869   2.215   3.946   4.306
13876WAT     H141870   2.303   3.917   4.346
13876WAT     H241871   2.198   4.041   4.330
13877WAT      O41872   6.230   4.722   2.195
13877WAT     H141873   6.311   4.735   2.138
13877WAT     H241874   6.255   4.732   2.291
13878WAT      O41875   9.410   9.048   7.056
13878WAT     H141876   9.331   8.988   7.046
13878WAT     H241877   9.448   9.070   6.966
13879WAT      O41878   2.055   0.261   4.757
13879WAT     H141879   2.119   0.270   4.833
13879WAT     H241880   2.002   0.176   4.768
13880WAT      O41881   4.526   4.617   7.663
13880WAT     H141882   4.536   4.717   7.661
13880WAT     H241883   4.601   4.575   7.612
13881WAT      O41884   9.238   7.426   2.890
13881WAT     H141885   9.261   7.336   2.853
13881WAT     H241886   9.160   7.464   2.841
13882WAT      O41887   3.802   6.360   0.819
13882WAT     H141888   3.865   6.307   0.763
13882WAT     H241889   3.712   6.317   0.819
13883WAT      O41890   8.051   0.046   0.135
13883WAT     H141891   8.136   0.006   0.101
13883WAT     H241892   7.986  -0.027   0.156
13884WAT      O41893   7.577   4.751   2.328
13884WAT     H141894   7.482   4.731   2.303
13884WAT     H241895   7.585   4.847   2.354
13885WAT      O41896   6.073   2.140   1.737
13885WAT     H141897   6.095   2.153   1.834
13885WAT     H241898   5.984   2.179   1.717
13886WAT      O41899   0.554   7.121   7.367
13886WAT     H141900   0.547   7.220   7.375
13886WAT     H241901   0.640   7.097   7.323
13887WAT      O41902   9.312   9.839   1.939
13887WAT     H141903   9.230   9.790   1.969
13887WAT     H241904   9.346   9.797   1.855
13888WAT      O41905   2.268   1.470   8.202
13888WAT     H141906   2.245   1.455   8.299
13888WAT     H241907   2.366   1.458   8.189
13889WAT      O41908   6.455   7.145   2.995
13889WAT     H141909   6.508   7.168   2.914
13889WAT     H241910   6.360   7.126   2.970
13890WAT      O41911   6.162   2.349   2.543
13890WAT     H141912   6.158   2.377   2.447
13890WAT     H241913   6.141   2.428   2.601
13891WAT      O41914   5.926   5.740   9.841
13891WAT     H141915   5.901   5.833   9.814
13891WAT     H241916   5.854   5.701   9.898
13892WAT      O41917   0.768   7.975   7.053
13892WAT     H141918   0.863   7.945   7.042
13892WAT     H241919   0.708   7.918   6.997
13893WAT      O41920   4.231   4.691   2.406
13893WAT     H141921   4.179   4.607   2.389
13893WAT     H241922   4.167   4.768   2.419
13894WAT      O41923   1.915   1.923   3.809
13894WAT     H141924   1.823   1.900   3.839
13894WAT     H241925   1.967   1.839   3.793
13895WAT      O41926   1.002   0.938   2.366
13895WAT     H141927   0.974   0.845   2.389
13895WAT     H241928   0.976   0.999   2.441
13896WAT      O41929   2.601   0.467   8.905
13896WAT     H141930   2.661   0.391   8.880
13896WAT     H241931   2.585   0.465   9.004
13897WAT      O41932   9.412   2.505   9.541
13897WAT     H141933   9.362   2.440   9.598
13897WAT     H241934   9.508   2.506   9.569
13898WAT      O41935   6.206   6.485   5.076
13898WAT     H141936   6.305   6.494   5.079
13898WAT     H241937   6.182   6.389   5.059
13899WAT      O41938   8.773   7.810   3.293
13899WAT     H141939   8.730   7.756   3.221
13899WAT     H241940   8.840   7.873   3.253
13900WAT      O41941   6.378   2.588   1.414
13900WAT     H141942   6.322   2.593   1.497
13900WAT     H241943   6.341   2.519   1.352
13901WAT      O41944   9.647   1.261   0.599
13901WAT     H141945   9.557   1.271   0.640
13901WAT     H241946   9.645   1.296   0.505
13902WAT      O41947   0.272   1.817   1.749
13902WAT     H141948   0.353   1.767   1.778
13902WAT     H241949   0.270   1.822   1.649
13903WAT      O41950   3.915   4.122   1.969
13903WAT     H141951   3.937   4.209   1.924
13903WAT     H241952   3.974   4.110   2.049
13904WAT      O41953   6.562   0.482   3.773
13904WAT     H141954   6.602   0.569   3.800
13904WAT     H241955   6.506   0.494   3.691
13905WAT      O41956   5.114   2.464   7.343
13905WAT     H141957   5.185   2.517   7.389
13905WAT     H241958   5.076   2.518   7.267
13906WAT      O41959   4.507   4.320   9.209
13906WAT     H141960   4.600   4.306   9.242
13906WAT     H241961   4.499   4.413   9.171
13907WAT      O41962   0.616   4.700   7.321
13907WAT     H141963   0.598   4.672   7.227
13907WAT     H241964   0.530   4.707   7.372
13908WAT      O41965   5.191   1.268   7.131
13908WAT     H141966   5.206   1.366   7.114
13908WAT     H241967   5.113   1.257   7.192
13909WAT      O41968   1.067   2.073   0.669
13909WAT     H141969   1.057   2.078   0.769
13909WAT     H241970   0.976   2.068   0.627
13910WAT      O41971   9.064   3.507   7.229
13910WAT     H141972   8.998   3.570   7.270
13910WAT     H241973   9.018   3.422   7.202
13911WAT      O41974   5.350   3.637   1.532
13911WAT     H141975   5.361   3.541   1.506
13911WAT     H241976   5.402   3.695   1.469
13912WAT      O41977   7.109   3.149   7.252
13912WAT     H141978   7.040   3.221   7.252
13912WAT     H241979   7.108   3.102   7.341
13913WAT      O41980   4.902   3.009   4.507
13913WAT     H141981   4.848   2.926   4.522
13913WAT     H241982   4.865   3.058   4.428
13914WAT      O41983   9.595   2.619   5.071
13914WAT     H141984   9.609   2.520   5.067
13914WAT     H241985   9.671   2.666   5.028
13915WAT      O41986   6.812   5.341   5.690
13915WAT     H141987   6.819   5.441   5.686
13915WAT     H241988   6.763   5.308   5.610
13916WAT      O41989   2.517   0.735   3.908
13916WAT     H141990   2.509   0.718   3.810
13916WAT     H241991   2.449   0.804   3.936
13917WAT      O41992   2.059   3.318   7.536
13917WAT     H141993   2.086   3.354   7.625
13917WAT     H241994   1.963   3.343   7.518
13918WAT      O41995   1.626   6.675   1.977
13918WAT     H141996   1.559   6.740   2.013
13918WAT     H241997   1.582   6.617   1.909
13919WAT      O41998   7.736   5.289   2.789
13919WAT     H141999   7.694   5.380   2.798
13919WAT     H242000   7.796   5.273   2.867
13920WAT      O42001   1.008   0.505   5.387
13920WAT     H142002   0.937   0.563   5.346
13920WAT     H242003   1.092   0.558   5.396
13921WAT      O42004   3.943   8.614   0.180
13921WAT     H142005   3.967   8.661   0.265
13921WAT     H242006   3.915   8.682   0.112
13922WAT      O42007   3.441   1.460   2.989
13922WAT     H142008   3.396   1.543   3.022
13922WAT     H242009   3.522   1.441   3.044
13923WAT      O42010   2.836   5.035   4.863
13923WAT     H142011   2.854   5.078   4.951
13923WAT     H242012   2.755   5.076   4.821
13924WAT      O42013   5.218   5.168   8.107
13924WAT     H142014   5.288   5.161   8.179
13924WAT     H242015   5.163   5.085   8.106
13925WAT      O42016   5.322   2.215   4.921
13925WAT     H142017   5.287   2.132   4.965
13925WAT     H242018   5.260   2.243   4.848
13926WAT      O42019   1.238   9.407   4.037
13926WAT     H142020   1.292   9.415   3.954
13926WAT     H242021   1.141   9.417   4.015
13927WAT      O42022   9.739   3.371   1.151
13927WAT     H142023   9.714   3.287   1.200
13927WAT     H242024   9.703   3.366   1.057
13928WAT      O42025   6.141   3.204   1.200
13928WAT     H142026   6.066   3.260   1.166
13928WAT     H242027   6.193   3.167   1.123
13929WAT      O42028   6.578   4.162   2.450
13929WAT     H142029   6.663   4.145   2.500
13929WAT     H242030   6.502   4.165   2.515
13930WAT      O42031   6.994   6.472   1.952
13930WAT     H142032   6.930   6.432   1.886
13930WAT     H242033   7.063   6.404   1.978
13931WAT      O42034   3.545   5.135   8.630
13931WAT     H142035   3.466   5.081   8.657
13931WAT     H242036   3.617   5.127   8.699
13932WAT      O42037   0.813   7.321   5.991
13932WAT     H142038   0.907   7.351   6.008
13932WAT     H242039   0.808   7.277   5.901
13933WAT      O42040   4.668   4.434   2.644
13933WAT     H142041   4.575   4.426   2.609
13933WAT     H242042   4.684   4.364   2.714
13934WAT      O42043   1.289   5.752   6.128
13934WAT     H142044   1.207   5.808   6.141
13934WAT     H242045   1.371   5.808   6.144
13935WAT      O42046   2.481   6.627   6.233
13935WAT     H142047   2.398   6.580   6.264
13935WAT     H242048   2.554   6.560   6.220
13936WAT      O42049   9.411   0.053   7.245
13936WAT     H142050   9.335   0.070   7.183
13936WAT     H242051   9.462  -0.027   7.213
13937WAT      O42052   0.188   8.549   5.842
13937WAT     H142053   0.186   8.509   5.934
13937WAT     H242054   0.127   8.629   5.839
13938WAT      O42055   7.004   5.009   1.740
13938WAT     H142056   7.024   4.944   1.813
13938WAT     H242057   6.906   5.010   1.722
13939WAT      O42058   2.479   5.873   4.753
13939WAT     H142059   2.461   5.958   4.704
13939WAT     H242060   2.512   5.803   4.689
13940WAT      O42061   8.308   2.878   0.927
13940WAT     H142062   8.372   2.954   0.915
13940WAT     H242063   8.359   2.792   0.932
13941WAT      O42064   2.240   3.470   7.009
13941WAT     H142065   2.229   3.554   7.062
13941WAT     H242066   2.153   3.421   7.007
13942WAT      O42067   6.600   9.722   4.918
13942WAT     H142068   6.531   9.651   4.932
13942WAT     H242069   6.616   9.735   4.821
13943WAT      O42070   9.640   8.602   2.813
13943WAT     H142071   9.653   8.503   2.816
13943WAT     H242072   9.543   8.624   2.826
13944WAT      O42073   1.474   7.291   4.633
13944WAT     H142074   1.445   7.212   4.580
13944WAT     H242075   1.564   7.273   4.674
13945WAT      O42076   0.927   3.133   9.857
13945WAT     H142077   0.984   3.179   9.788
13945WAT     H242078   0.970   3.048   9.885
13946WAT      O42079   2.949   1.515   8.798
13946WAT     H142080   2.908   1.592   8.847
13946WAT     H242081   2.932   1.430   8.849
13947WAT      O42082   1.877   2.428   9.498
13947WAT     H142083   1.832   2.359   9.441
13947WAT     H242084   1.918   2.498   9.439
13948WAT      O42085   2.934   1.088   9.351
13948WAT     H142086   2.947   0.992   9.375
13948WAT     H242087   2.836   1.109   9.349
13949WAT      O42088   1.240   2.795   9.861
13949WAT     H142089   1.320   2.818   9.916
13949WAT     H242090   1.252   2.827   9.767
13950WAT      O42091   5.852   6.495   2.556
13950WAT     H142092   5.937   6.490   2.504
13950WAT     H242093   5.779   6.449   2.505
13951WAT      O42094   8.895   5.111   5.960
13951WAT     H142095   8.930   5.199   5.928
13951WAT     H242096   8.940   5.037   5.910
13952WAT      O42097   6.140   3.582   6.907
13952WAT     H142098   6.197   3.548   6.982
13952WAT     H242099   6.195   3.639   6.846
13953WAT      O42100   7.729   1.901   5.775
13953WAT     H142101   7.633   1.914   5.750
13953WAT     H242102   7.776   1.989   5.775
13954WAT      O42103   9.275   3.366   3.482
13954WAT     H142104   9.212   3.299   3.444
13954WAT     H242105   9.342   3.392   3.413
13955WAT      O42106   8.993   5.273   6.816
13955WAT     H142107   9.087   5.298   6.794
13955WAT     H242108   8.931   5.320   6.753
13956WAT      O42109   9.634   5.302   7.479
13956WAT     H142110   9.606   5.335   7.570
13956WAT     H242111   9.733   5.304   7.472
13957WAT      O42112   7.649   7.198   3.228
13957WAT     H142113   7.560   7.238   3.208
13957WAT     H242114   7.672   7.130   3.158
13958WAT      O42115   6.238   1.362   8.639
13958WAT     H142116   6.148   1.335   8.605
13958WAT     H242117   6.279   1.286   8.689
13959WAT      O42118   8.448   6.523   9.323
13959WAT     H142119   8.376   6.498   9.386
13959WAT     H242120   8.448   6.461   9.245
13960WAT      O42121   3.227   9.670   2.772
13960WAT     H142122   3.225   9.615   2.856
13960WAT     H242123   3.235   9.609   2.693
13961WAT      O42124   7.295   7.382   2.753
13961WAT     H142125   7.347   7.387   2.668
13961WAT     H242126   7.288   7.474   2.793
13962WAT      O42127   7.616   1.931   4.796
13962WAT     H142128   7.531   1.889   4.765
13962WAT     H242129   7.689   1.912   4.730
13963WAT      O42130   7.728   8.314   0.385
13963WAT     H142131   7.647   8.321   0.443
13963WAT     H242132   7.786   8.240   0.418
13964WAT      O42133   0.575   5.038   0.071
13964WAT     H142134   0.624   4.958   0.036
13964WAT     H242135   0.484   5.010   0.103
13965WAT      O42136   2.739   6.620   7.155
13965WAT     H142137   2.696   6.696   7.107
13965WAT     H242138   2.837   6.637   7.164
13966WAT      O42139   7.118   6.636   7.274
13966WAT     H142140   7.119   6.614   7.371
13966WAT     H242141   7.164   6.562   7.223
13967WAT      O42142   3.598   8.815   2.857
13967WAT     H142143   3.549   8.883   2.802
13967WAT     H242144   3.559   8.724   2.840
13968WAT      O42145   9.772   8.613   3.076
13968WAT     H142146   9.781   8.583   2.981
13968WAT     H242147   9.837   8.688   3.093
13969WAT      O42148   3.736   3.313   3.187
13969WAT     H142149   3.677   3.360   3.253
13969WAT     H242150   3.831   3.314   3.220
13970WAT      O42151   6.165   2.678   9.846
13970WAT     H142152   6.183   2.668   9.748
13970WAT     H242153   6.241   2.637   9.898
13971WAT      O42154   5.652   5.058   7.955
13971WAT     H142155   5.740   5.021   7.927
13971WAT     H242156   5.597   4.985   7.998
13972WAT      O42157   6.605   9.317   2.882
13972WAT     H142158   6.593   9.271   2.970
13972WAT     H242159   6.672   9.390   2.892
13973WAT      O42160   5.069   0.093   9.769
13973WAT     H142161   5.093   0.173   9.823
13973WAT     H242162   5.150   0.060   9.721
13974WAT      O42163   5.532   8.186   3.817
13974WAT     H142164   5.457   8.216   3.877
13974WAT     H242165   5.511   8.211   3.723
13975WAT      O42166   7.406   2.863   4.584
13975WAT     H142167   7.418   2.840   4.680
13975WAT     H242168   7.362   2.787   4.536
13976WAT      O42169   6.936   5.534   5.904
13976WAT     H142170   7.005   5.462   5.915
13976WAT     H242171   6.975   5.609   5.850
13977WAT      O42172   0.051   9.027   8.941
13977WAT     H142173   0.100   9.025   9.028
13977WAT     H242174   0.079   8.949   8.885
13978WAT      O42175   0.719   6.942   9.287
13978WAT     H142176   0.637   6.999   9.280
13978WAT     H242177   0.760   6.953   9.377
13979WAT      O42178   2.697   2.906   1.853
13979WAT     H142179   2.681   2.982   1.916
13979WAT     H242180   2.738   2.941   1.769
13980WAT      O42181   9.218   2.763   0.417
13980WAT     H142182   9.122   2.776   0.392
13980WAT     H242183   9.251   2.843   0.466
13981WAT      O42184   9.251   6.160   8.257
13981WAT     H142185   9.168   6.179   8.309
13981WAT     H242186   9.324   6.222   8.285
13982WAT      O42187   2.011   9.738   9.883
13982WAT     H142188   1.925   9.765   9.926
13982WAT     H242189   2.072   9.700   9.953
13983WAT      O42190   1.165   2.944   7.187
13983WAT     H142191   1.084   3.002   7.200
13983WAT     H242192   1.162   2.867   7.251
13984WAT      O42193   0.520   5.415   7.116
13984WAT     H142194   0.556   5.389   7.205
13984WAT     H242195   0.584   5.388   7.045
13985WAT      O42196   7.961   8.777   7.603
13985WAT     H142197   7.991   8.697   7.552
13985WAT     H242198   7.881   8.754   7.658
13986WAT      O42199   7.512   8.915   2.880
13986WAT     H142200   7.592   8.952   2.928
13986WAT     H242201   7.479   8.982   2.814
13987WAT      O42202   0.071   5.412   8.307
13987WAT     H142203   0.128   5.339   8.343
13987WAT     H242204   0.028   5.461   8.384
13988WAT      O42205   2.764   1.578   7.940
13988WAT     H142206   2.845   1.577   7.881
13988WAT     H242207   2.694   1.519   7.900
13989WAT      O42208   0.212   6.544   0.797
13989WAT     H142209   0.194   6.445   0.798
13989WAT     H242210   0.130   6.593   0.824
13990WAT      O42211   1.658   0.755   1.627
13990WAT     H142212   1.651   0.662   1.592
13990WAT     H242213   1.721   0.757   1.704
13991WAT      O42214   7.012   6.271   7.132
13991WAT     H142215   6.954   6.239   7.057
13991WAT     H242216   7.092   6.213   7.139
13992WAT      O42217   5.891   0.630   9.488
13992WAT     H142218   5.955   0.668   9.555
13992WAT     H242219   5.869   0.535   9.513
13993WAT      O42220   7.806   0.605   4.757
13993WAT     H142221   7.882   0.634   4.815
13993WAT     H242222   7.829   0.621   4.661
13994WAT      O42223   4.423   8.029   1.746
13994WAT     H142224   4.333   8.015   1.786
13994WAT     H242225   4.432   8.123   1.715
13995WAT      O42226   4.356   2.185   4.895
13995WAT     H142227   4.292   2.139   4.957
13995WAT     H242228   4.440   2.131   4.888
13996WAT      O42229   4.967   7.600   5.962
13996WAT     H142230   4.892   7.555   6.010
13996WAT     H242231   4.963   7.578   5.865
13997WAT      O42232   7.731   0.421   6.269
13997WAT     H142233   7.736   0.351   6.199
13997WAT     H242234   7.656   0.484   6.249
13998WAT      O42235   3.532   9.425   3.405
13998WAT     H142236   3.470   9.487   3.356
13998WAT     H242237   3.578   9.475   3.478
13999WAT      O42238   0.782   4.818   8.159
13999WAT     H142239   0.845   4.846   8.087
13999WAT     H242240   0.830   4.758   8.223
14000WAT      O42241   8.038   8.654   6.016
14000WAT     H142242   7.942   8.681   6.021
14000WAT     H242243   8.095   8.736   6.008
14001WAT      O42244   5.051   1.271   7.615
14001WAT     H142245   5.109   1.290   7.694
14001WAT     H242246   4.984   1.200   7.639
14002WAT      O42247   8.693   4.881   6.285
14002WAT     H142248   8.616   4.865   6.224
14002WAT     H242249   8.744   4.962   6.255
14003WAT      O42250   9.084   6.641   3.374
14003WAT     H142251   9.148   6.577   3.417
14003WAT     H242252   8.991   6.604   3.381
14004WAT      O42253   9.211   7.737   8.552
14004WAT     H142254   9.127   7.792   8.551
14004WAT     H242255   9.285   7.787   8.507
14005WAT      O42256   9.242   0.329   7.209
14005WAT     H142257   9.336   0.359   7.191
14005WAT     H242258   9.242   0.232   7.234
14006WAT      O42259   6.909   6.578   4.597
14006WAT     H142260   6.829   6.519   4.596
14006WAT     H242261   6.880   6.673   4.588
14007WAT      O42262   3.434   4.301   6.067
14007WAT     H142263   3.390   4.331   5.982
14007WAT     H242264   3.422   4.203   6.079
14008WAT      O42265   5.619   2.990   9.749
14008WAT     H142266   5.570   2.942   9.676
14008WAT     H242267   5.596   2.948   9.837
14009WAT      O42268   2.886   7.265   7.550
14009WAT     H142269   2.915   7.279   7.455
14009WAT     H242270   2.807   7.204   7.552
14010WAT      O42271   2.681   9.509   7.778
14010WAT     H142272   2.704   9.508   7.681
14010WAT     H242273   2.594   9.555   7.792
14011WAT      O42274   2.878   6.112   6.050
14011WAT     H142275   2.827   6.157   6.124
14011WAT     H242276   2.815   6.059   5.994
14012WAT      O42277   8.848   1.542   9.356
14012WAT     H142278   8.786   1.619   9.367
14012WAT     H242279   8.871   1.504   9.445
14013WAT      O42280   3.856   4.417   1.020
14013WAT     H142281   3.850   4.496   0.960
14013WAT     H242282   3.794   4.428   1.098
14014WAT      O42283   7.123   3.712   8.322
14014WAT     H142284   7.031   3.719   8.361
14014WAT     H242285   7.177   3.646   8.376
14015WAT      O42286   1.346   2.857   4.082
14015WAT     H142287   1.353   2.766   4.040
14015WAT     H242288   1.271   2.857   4.148
14016WAT      O42289   9.883   6.626   1.142
14016WAT     H142290   9.812   6.672   1.194
14016WAT     H242291   9.871   6.647   1.044
14017WAT      O42292   0.094   6.931   0.650
14017WAT     H142293   0.097   7.029   0.667
14017WAT     H242294  -0.002   6.902   0.643
14018WAT      O42295   5.484   0.818   8.095
14018WAT     H142296   5.416   0.760   8.051
14018WAT     H242297   5.454   0.840   8.188
14019WAT      O42298   3.596   0.432   2.738
14019WAT     H142299   3.550   0.519   2.724
14019WAT     H242300   3.695   0.445   2.741
14020WAT      O42301   1.752   9.103   5.281
14020WAT     H142302   1.818   9.029   5.290
14020WAT     H242303   1.777   9.178   5.342
14021WAT      O42304   1.858   5.175   3.880
14021WAT     H142305   1.848   5.167   3.781
14021WAT     H242306   1.776   5.216   3.919
14022WAT      O42307   6.482   5.985   9.627
14022WAT     H142308   6.407   6.043   9.596
14022WAT     H242309   6.476   5.972   9.726
14023WAT      O42310   5.012   3.066   5.141
14023WAT     H142311   5.091   3.029   5.189
14023WAT     H242312   5.039   3.149   5.091
14024WAT      O42313   1.139   2.076   4.674
14024WAT     H142314   1.128   1.979   4.650
14024WAT     H242315   1.230   2.091   4.711
14025WAT      O42316   6.242   6.982   7.346
14025WAT     H142317   6.145   7.005   7.333
14025WAT     H242318   6.279   7.035   7.422
14026WAT      O42319   8.094   4.654   8.184
14026WAT     H142320   8.043   4.653   8.098
14026WAT     H242321   8.096   4.746   8.221
14027WAT      O42322   5.045   9.333   7.701
14027WAT     H142323   5.032   9.271   7.624
14027WAT     H242324   4.956   9.369   7.731
14028WAT      O42325   1.891   4.541   5.985
14028WAT     H142326   1.794   4.525   5.966
14028WAT     H242327   1.942   4.456   5.974
14029WAT      O42328   4.169   1.587   9.322
14029WAT     H142329   4.111   1.620   9.248
14029WAT     H242330   4.238   1.524   9.286
14030WAT      O42331   5.471   2.243   3.995
14030WAT     H142332   5.408   2.166   3.985
14030WAT     H242333   5.499   2.276   3.905
14031WAT      O42334   4.225   3.967   4.680
14031WAT     H142335   4.195   3.900   4.612
14031WAT     H242336   4.175   4.053   4.667
14032WAT      O42337   0.410   5.761   3.188
14032WAT     H142338   0.314   5.779   3.209
14032WAT     H242339   0.460   5.848   3.182
14033WAT      O42340   3.018   2.987   0.395
14033WAT     H142341   3.087   2.922   0.362
14033WAT     H242342   3.007   2.978   0.494
14034WAT      O42343   3.628   2.151   6.594
14034WAT     H142344   3.618   2.098   6.678
14034WAT     H242345   3.537   2.170   6.555
14035WAT      O42346   3.387   1.851   8.920
14035WAT     H142347   3.373   1.830   8.823
14035WAT     H242348   3.311   1.815   8.974
14036WAT      O42349   6.274   3.911   5.058
14036WAT     H142350   6.242   3.844   5.125
14036WAT     H242351   6.305   3.865   4.975
14037WAT      O42352   6.513   0.378   1.922
14037WAT     H142353   6.554   0.467   1.902
14037WAT     H242354   6.586   0.312   1.942
14038WAT      O42355   1.735   1.049   3.672
14038WAT     H142356   1.732   0.994   3.756
14038WAT     H242357   1.826   1.042   3.631
14039WAT      O42358   5.595   7.353   2.576
14039WAT     H142359   5.558   7.260   2.574
14039WAT     H242360   5.568   7.398   2.662
14040WAT      O42361   4.235   5.228   1.097
14040WAT     H142362   4.224   5.193   1.190
14040WAT     H242363   4.173   5.305   1.083
14041WAT      O42364   8.315   0.097   4.267
14041WAT     H142365   8.402   0.050   4.280
14041WAT     H242366   8.249   0.065   4.336
14042WAT      O42367   0.555   8.432   4.940
14042WAT     H142368   0.548   8.482   4.854
14042WAT     H242369   0.551   8.334   4.923
14043WAT      O42370   2.318   5.450   6.753
14043WAT     H142371   2.357   5.489   6.669
14043WAT     H242372   2.223   5.481   6.763
14044WAT      O42373   4.165   9.431   3.462
14044WAT     H142374   4.131   9.503   3.522
14044WAT     H242375   4.155   9.460   3.366
14045WAT      O42376   3.618   6.904   3.446
14045WAT     H142377   3.671   6.946   3.520
14045WAT     H242378   3.641   6.947   3.359
14046WAT      O42379   6.933   3.663   5.140
14046WAT     H142380   6.970   3.648   5.232
14046WAT     H242381   6.968   3.591   5.079
14047WAT      O42382   9.008   7.448   1.033
14047WAT     H142383   9.095   7.488   1.061
14047WAT     H242384   8.962   7.510   0.970
14048WAT      O42385   2.113   6.064   8.078
14048WAT     H142386   2.210   6.052   8.056
14048WAT     H242387   2.059   5.991   8.035
14049WAT      O42388   9.391   3.044   1.294
14049WAT     H142389   9.341   2.961   1.271
14049WAT     H242390   9.469   3.021   1.353
14050WAT      O42391   3.429   6.016   2.135
14050WAT     H142392   3.427   6.111   2.167
14050WAT     H242393   3.419   5.954   2.213
14051WAT      O42394   0.015   4.737   4.376
14051WAT     H142395   0.101   4.739   4.325
14051WAT     H242396  -0.038   4.819   4.355
14052WAT      O42397   4.846   2.523   5.736
14052WAT     H142398   4.840   2.608   5.683
14052WAT     H242399   4.792   2.452   5.691
14053WAT      O42400   3.640   2.445   0.601
14053WAT     H142401   3.711   2.404   0.543
14053WAT     H242402   3.583   2.506   0.546
14054WAT      O42403   8.325   0.401   0.279
14054WAT     H142404   8.283   0.319   0.318
14054WAT     H242405   8.269   0.434   0.203
14055WAT      O42406   5.780   1.239   6.141
14055WAT     H142407   5.757   1.244   6.238
14055WAT     H242408   5.800   1.144   6.117
14056WAT      O42409   6.292   7.501   4.959
14056WAT     H142410   6.331   7.591   4.935
14056WAT     H242411   6.298   7.441   4.880
14057WAT      O42412   1.188   2.024   7.013
14057WAT     H142413   1.218   2.041   6.920
14057WAT     H242414   1.120   1.950   7.013
14058WAT      O42415   2.420   1.532   8.853
14058WAT     H142416   2.427   1.603   8.782
14058WAT     H242417   2.467   1.564   8.936
14059WAT      O42418   2.708   0.469   0.994
14059WAT     H142419   2.779   0.509   1.052
14059WAT     H242420   2.666   0.541   0.938
14060WAT      O42421   5.408   6.601   1.770
14060WAT     H142422   5.496   6.603   1.722
14060WAT     H242423   5.423   6.611   1.869
14061WAT      O42424   9.169   1.133   8.970
14061WAT     H142425   9.201   1.161   9.061
14061WAT     H242426   9.091   1.190   8.944
14062WAT      O42427   2.161   2.525   9.429
14062WAT     H142428   2.150   2.502   9.526
14062WAT     H242429   2.184   2.443   9.378
14063WAT      O42430   8.138   7.534   1.324
14063WAT     H142431   8.235   7.529   1.348
14063WAT     H242432   8.126   7.503   1.230
14064WAT      O42433   7.034   8.430   7.310
14064WAT     H142434   7.075   8.341   7.333
14064WAT     H242435   7.105   8.500   7.311
14065WAT      O42436   5.858   2.779   5.707
14065WAT     H142437   5.863   2.751   5.611
14065WAT     H242438   5.780   2.839   5.720
14066WAT      O42439   0.702   9.518   5.226
14066WAT     H142440   0.636   9.443   5.231
14066WAT     H242441   0.771   9.497   5.156
14067WAT      O42442   8.325   3.176   1.915
14067WAT     H142443   8.255   3.211   1.852
14067WAT     H242444   8.303   3.207   2.008
14068WAT      O42445   5.588   5.989   2.377
14068WAT     H142446   5.662   6.047   2.411
14068WAT     H242447   5.616   5.943   2.293
14069WAT      O42448   6.338   8.709   2.717
14069WAT     H142449   6.425   8.758   2.718
14069WAT     H242450   6.292   8.724   2.630
14070WAT      O42451   2.898   7.472   6.524
14070WAT     H142452   2.807   7.494   6.560
14070WAT     H242453   2.893   7.460   6.425
14071WAT      O42454   4.826   6.042   8.608
14071WAT     H142455   4.734   6.060   8.571
14071WAT     H242456   4.818   5.987   8.691
14072WAT      O42457   2.411   4.331   0.271
14072WAT     H142458   2.491   4.390   0.282
14072WAT     H242459   2.440   4.235   0.271
14073WAT      O42460   3.847   8.061   2.711
14073WAT     H142461   3.759   8.015   2.700
14073WAT     H242462   3.858   8.129   2.638
14074WAT      O42463   4.665   3.411   2.797
14074WAT     H142464   4.751   3.440   2.839
14074WAT     H242465   4.588   3.446   2.851
14075WAT      O42466   0.367   7.527   2.357
14075WAT     H142467   0.313   7.594   2.306
14075WAT     H242468   0.464   7.546   2.344
14076WAT      O42469   3.077   5.962   4.118
14076WAT     H142470   3.093   5.987   4.022
14076WAT     H242471   3.120   5.873   4.136
14077WAT      O42472   5.131   2.004   5.503
14077WAT     H142473   5.157   1.955   5.587
14077WAT     H242474   5.084   2.089   5.527
14078WAT      O42475   5.143   8.828   7.718
14078WAT     H142476   5.220   8.881   7.754
14078WAT     H242477   5.060   8.851   7.770
14079WAT      O42478   2.052   4.514   9.892
14079WAT     H142479   2.069   4.444   9.961
14079WAT     H242480   2.098   4.489   9.807
14080WAT      O42481   6.673   2.775   6.833
14080WAT     H142482   6.694   2.706   6.764
14080WAT     H242483   6.671   2.733   6.923
14081WAT      O42484   5.411   3.379   5.651
14081WAT     H142485   5.368   3.449   5.707
14081WAT     H242486   5.464   3.422   5.579
14082WAT      O42487   0.766   7.664   7.774
14082WAT     H142488   0.844   7.723   7.753
14082WAT     H242489   0.714   7.647   7.690
14083WAT      O42490   9.065   4.681   3.852
14083WAT     H142491   9.086   4.775   3.876
14083WAT     H242492   9.043   4.629   3.934
14084WAT      O42493   8.328   5.226   0.763
14084WAT     H142494   8.348   5.241   0.667
14084WAT     H242495   8.350   5.308   0.816
14085WAT      O42496   1.089   4.053   2.737
14085WAT     H142497   1.109   3.972   2.682
14085WAT     H242498   1.089   4.028   2.834
14086WAT      O42499   1.844   1.579   1.559
14086WAT     H142500   1.931   1.551   1.519
14086WAT     H242501   1.856   1.663   1.612
14087WAT      O42502   3.630   1.420   7.932
14087WAT     H142503   3.654   1.430   8.029
14087WAT     H242504   3.532   1.405   7.923
14088WAT      O42505   6.086   7.789   8.463
14088WAT     H142506   6.067   7.871   8.409
14088WAT     H242507   6.006   7.729   8.463
14089WAT      O42508   7.749   0.293   2.256
14089WAT     H142509   7.783   0.255   2.342
14089WAT     H242510   7.651   0.275   2.247
14090WAT      O42511   8.062   1.695   6.563
14090WAT     H142512   8.106   1.779   6.531
14090WAT     H242513   8.131   1.624   6.578
14091WAT      O42514   7.063   2.910   6.058
14091WAT     H142515   7.123   2.957   6.123
14091WAT     H242516   6.974   2.955   6.056
14092WAT      O42517   5.088   1.893   2.906
14092WAT     H142518   5.033   1.884   2.989
14092WAT     H242519   5.053   1.831   2.836
14093WAT      O42520   7.708   0.581   1.957
14093WAT     H142521   7.743   0.530   1.879
14093WAT     H242522   7.773   0.577   2.033
14094WAT      O42523   6.637   8.576   3.390
14094WAT     H142524   6.592   8.494   3.355
14094WAT     H242525   6.715   8.549   3.447
14095WAT      O42526   4.977   4.346   0.901
14095WAT     H142527   5.008   4.294   0.821
14095WAT     H242528   5.002   4.442   0.890
14096WAT      O42529   5.933   8.355   6.193
14096WAT     H142530   6.003   8.363   6.123
14096WAT     H242531   5.908   8.259   6.204
14097WAT      O42532   1.497   0.619   3.804
14097WAT     H142533   1.587   0.614   3.846
14097WAT     H242534   1.500   0.680   3.724
14098WAT      O42535   1.930   0.842   7.271
14098WAT     H142536   1.917   0.930   7.318
14098WAT     H242537   1.859   0.779   7.299
14099WAT      O42538   6.095   0.582   4.862
14099WAT     H142539   6.025   0.549   4.799
14099WAT     H242540   6.168   0.513   4.869
14100WAT      O42541   8.658   7.795   4.989
14100WAT     H142542   8.740   7.842   5.021
14100WAT     H242543   8.681   7.702   4.963
14101WAT      O42544   3.924   2.115   3.456
14101WAT     H142545   3.960   2.194   3.506
14101WAT     H242546   3.987   2.038   3.466
14102WAT      O42547   7.911   1.297   7.770
14102WAT     H142548   7.881   1.364   7.702
14102WAT     H242549   7.850   1.300   7.849
14103WAT      O42550   6.386   9.742   7.814
14103WAT     H142551   6.323   9.781   7.746
14103WAT     H242552   6.391   9.803   7.893
14104WAT      O42553   4.493   6.092   4.145
14104WAT     H142554   4.489   6.021   4.075
14104WAT     H242555   4.449   6.059   4.229
14105WAT      O42556   2.737   7.131   0.445
14105WAT     H142557   2.824   7.167   0.410
14105WAT     H242558   2.714   7.048   0.394
14106WAT      O42559   5.006   1.831   5.295
14106WAT     H142560   5.064   1.860   5.371
14106WAT     H242561   4.918   1.877   5.301
14107WAT      O42562   4.829   6.803   1.657
14107WAT     H142563   4.748   6.859   1.675
14107WAT     H242564   4.910   6.861   1.657
14108WAT      O42565   8.173   6.512   7.871
14108WAT     H142566   8.263   6.471   7.877
14108WAT     H242567   8.178   6.608   7.898
14109WAT      O42568   7.069   2.692   3.844
14109WAT     H142569   7.028   2.618   3.896
14109WAT     H242570   7.154   2.660   3.803
14110WAT      O42571   5.843   6.927   2.992
14110WAT     H142572   5.886   6.999   3.045
14110WAT     H242573   5.753   6.959   2.960
14111WAT      O42574   7.045   9.102   5.288
14111WAT     H142575   6.947   9.083   5.281
14111WAT     H242576   7.075   9.084   5.382
14112WAT      O42577   6.737   7.713   0.827
14112WAT     H142578   6.655   7.761   0.795
14112WAT     H242579   6.798   7.778   0.873
14113WAT      O42580   6.166   2.258   8.008
14113WAT     H142581   6.205   2.179   7.962
14113WAT     H242582   6.137   2.325   7.940
14114WAT      O42583   5.115   7.007   9.810
14114WAT     H142584   5.190   7.032   9.871
14114WAT     H242585   5.034   7.060   9.833
14115WAT      O42586   6.847   2.722   2.475
14115WAT     H142587   6.902   2.745   2.395
14115WAT     H242588   6.830   2.624   2.477
14116WAT      O42589   8.997   4.522   4.436
14116WAT     H142590   8.915   4.527   4.494
14116WAT     H242591   8.985   4.582   4.357
14117WAT      O42592   6.898   3.436   0.480
14117WAT     H142593   6.944   3.463   0.395
14117WAT     H242594   6.835   3.509   0.507
14118WAT      O42595   2.419   2.873   7.169
14118WAT     H142596   2.505   2.883   7.220
14118WAT     H242597   2.429   2.799   7.103
14119WAT      O42598   1.498   1.812   1.036
14119WAT     H142599   1.463   1.788   1.126
14119WAT     H242600   1.481   1.736   0.973
14120WAT      O42601   2.307   0.776   8.898
14120WAT     H142602   2.405   0.769   8.878
14120WAT     H242603   2.266   0.844   8.838
14121WAT      O42604   5.464   7.996   1.094
14121WAT     H142605   5.387   7.948   1.135
14121WAT     H242606   5.531   7.930   1.060
14122WAT      O42607   8.808   0.010   3.118
14122WAT     H142608   8.894  -0.019   3.158
14122WAT     H242609   8.755   0.062   3.185
14123WAT      O42610   0.724   4.992   0.780
14123WAT     H142611   0.635   4.946   0.788
14123WAT     H242612   0.751   4.996   0.684
14124WAT      O42613   5.412   6.928   2.534
14124WAT     H142614   5.367   6.851   2.578
14124WAT     H242615   5.343   6.983   2.487
14125WAT      O42616   7.695   5.856   9.044
14125WAT     H142617   7.748   5.788   9.095
14125WAT     H242618   7.717   5.851   8.947
14126WAT      O42619   1.219   4.791   6.840
14126WAT     H142620   1.159   4.727   6.793
14126WAT     H242621   1.186   4.806   6.933
14127WAT      O42622   9.346   1.874   8.780
14127WAT     H142623   9.392   1.787   8.767
14127WAT     H242624   9.371   1.912   8.869
14128WAT      O42625   6.716   7.423   5.753
14128WAT     H142626   6.638   7.361   5.765
14128WAT     H242627   6.786   7.402   5.820
14129WAT      O42628   3.698   6.933   4.688
14129WAT     H142629   3.766   6.985   4.740
14129WAT     H242630   3.723   6.931   4.591
14130WAT      O42631   1.658   8.521   4.361
14130WAT     H142632   1.564   8.497   4.336
14130WAT     H242633   1.694   8.452   4.423
14131WAT      O42634   2.859   2.062   8.545
14131WAT     H142635   2.833   2.159   8.545
14131WAT     H242636   2.832   2.021   8.458
14132WAT      O42637   8.252   2.530   4.131
14132WAT     H142638   8.220   2.436   4.126
14132WAT     H242639   8.266   2.566   4.039
14133WAT      O42640   1.643   4.000   1.512
14133WAT     H142641   1.673   3.942   1.588
14133WAT     H242642   1.669   4.095   1.529
14134WAT      O42643   8.957   7.866   8.596
14134WAT     H142644   8.937   7.812   8.677
14134WAT     H242645   8.925   7.960   8.610
14135WAT      O42646   2.218   9.253   2.718
14135WAT     H142647   2.302   9.278   2.670
14135WAT     H242648   2.164   9.335   2.737
14136WAT      O42649   4.953   2.974   0.445
14136WAT     H142650   4.889   3.049   0.428
14136WAT     H242651   4.918   2.890   0.404
14137WAT      O42652   9.720   0.586   2.829
14137WAT     H142653   9.796   0.524   2.848
14137WAT     H242654   9.727   0.619   2.734
14138WAT      O42655   6.735   4.863   7.623
14138WAT     H142656   6.677   4.912   7.558
14138WAT     H242657   6.829   4.862   7.590
14139WAT      O42658   4.105   0.460   2.044
14139WAT     H142659   4.099   0.521   2.124
14139WAT     H242660   4.055   0.375   2.063
14140WAT      O42661   9.705   9.679   0.412
14140WAT     H142662   9.721   9.580   0.413
14140WAT     H242663   9.702   9.714   0.506
14141WAT      O42664   8.018   1.712   4.885
14141WAT     H142665   8.038   1.779   4.814
14141WAT     H242666   7.964   1.637   4.846
14142WAT      O42667   9.468   2.753   8.350
14142WAT     H142668   9.393   2.809   8.316
14142WAT     H242669   9.538   2.811   8.390
14143WAT      O42670   6.900   7.414   5.958
14143WAT     H142671   6.891   7.315   5.970
14143WAT     H242672   6.952   7.453   6.034
14144WAT      O42673   5.105   8.155   4.008
14144WAT     H142674   5.121   8.081   3.943
14144WAT     H242675   5.043   8.123   4.080
14145WAT      O42676   3.893   6.700   3.605
14145WAT     H142677   3.905   6.657   3.694
14145WAT     H242678   3.919   6.797   3.610
14146WAT      O42679   0.514   4.417   2.968
14146WAT     H142680   0.558   4.491   3.019
14146WAT     H242681   0.438   4.380   3.021
14147WAT      O42682   8.554   6.990   5.341
14147WAT     H142683   8.653   6.981   5.337
14147WAT     H242684   8.515   6.972   5.251
14148WAT      O42685   2.975   6.351   0.483
14148WAT     H142686   3.032   6.275   0.453
14148WAT     H242687   3.016   6.394   0.563
14149WAT      O42688   8.843   3.239   9.473
14149WAT     H142689   8.897   3.252   9.390
14149WAT     H242690   8.891   3.281   9.551
14150WAT      O42691   6.981   1.477   9.144
14150WAT     H142692   6.983   1.545   9.217
14150WAT     H242693   6.945   1.391   9.179
14151WAT      O42694   8.395   9.179   7.015
14151WAT     H142695   8.304   9.197   6.977
14151WAT     H242696   8.385   9.125   7.099
14152WAT      O42697   3.148   8.294   2.277
14152WAT     H142698   3.241   8.288   2.314
14152WAT     H242699   3.095   8.217   2.311
14153WAT      O42700   7.219   7.196   0.347
14153WAT     H142701   7.294   7.175   0.411
14153WAT     H242702   7.241   7.280   0.297
14154WAT      O42703   0.123   7.302   9.867
14154WAT     H142704   0.035   7.298   9.915
14154WAT     H242705   0.175   7.380   9.902
14155WAT      O42706   2.496   5.239   6.066
14155WAT     H142707   2.445   5.324   6.049
14155WAT     H242708   2.431   5.164   6.080
14156WAT      O42709   4.862   0.909   3.557
14156WAT     H142710   4.931   0.941   3.491
14156WAT     H242711   4.811   0.988   3.591
14157WAT      O42712   6.879   7.045   7.168
14157WAT     H142713   6.945   7.094   7.224
14157WAT     H242714   6.914   6.953   7.148
14158WAT      O42715   7.627   5.846   5.317
14158WAT     H142716   7.686   5.894   5.251
14158WAT     H242717   7.627   5.897   5.403
14159WAT      O42718   5.974   1.786   3.920
14159WAT     H142719   5.912   1.863   3.938
14159WAT     H242720   5.925   1.700   3.930
14160WAT      O42721   2.423   0.138   1.043
14160WAT     H142722   2.366   0.063   1.010
14160WAT     H242723   2.493   0.160   0.976
14161WAT      O42724   5.510   7.862   9.841
14161WAT     H142725   5.464   7.911   9.915
14161WAT     H242726   5.476   7.895   9.753
14162WAT      O42727   3.737   6.972   0.226
14162WAT     H142728   3.644   6.970   0.188
14162WAT     H242729   3.803   6.991   0.154
14163WAT      O42730   9.678   7.584   3.458
14163WAT     H142731   9.714   7.507   3.406
14163WAT     H242732   9.668   7.558   3.554
14164WAT      O42733   8.489   0.876   3.421
14164WAT     H142734   8.539   0.880   3.508
14164WAT     H242735   8.542   0.922   3.350
14165WAT      O42736   3.082   4.245   5.740
14165WAT     H142737   3.031   4.317   5.787
14165WAT     H242738   3.088   4.266   5.643
14166WAT      O42739   5.774   2.679   3.638
14166WAT     H142740   5.809   2.624   3.714
14166WAT     H242741   5.841   2.683   3.565
14167WAT      O42742   9.595   4.388   2.408
14167WAT     H142743   9.655   4.467   2.422
14167WAT     H242744   9.564   4.386   2.313
14168WAT      O42745   7.110   9.781   3.293
14168WAT     H142746   7.093   9.712   3.222
14168WAT     H242747   7.042   9.853   3.286
14169WAT      O42748   8.307   5.025   6.098
14169WAT     H142749   8.247   5.007   6.019
14169WAT     H242750   8.351   5.114   6.086
14170WAT      O42751   8.690   6.450   8.842
14170WAT     H142752   8.782   6.423   8.813
14170WAT     H242753   8.676   6.422   8.937
14171WAT      O42754   8.355   9.590   4.169
14171WAT     H142755   8.266   9.599   4.122
14171WAT     H242756   8.341   9.553   4.260
14172WAT      O42757   0.327   0.346   3.593
14172WAT     H142758   0.285   0.267   3.547
14172WAT     H242759   0.279   0.429   3.566
14173WAT      O42760   1.349   0.318   5.330
14173WAT     H142761   1.286   0.340   5.255
14173WAT     H242762   1.300   0.328   5.417
14174WAT      O42763   6.804   6.007   4.973
14174WAT     H142764   6.850   6.038   5.056
14174WAT     H242765   6.828   6.068   4.898
14175WAT      O42766   2.052   0.184   7.630
14175WAT     H142767   2.018   0.180   7.536
14175WAT     H242768   2.032   0.098   7.676
14176WAT      O42769   7.395   8.157   3.011
14176WAT     H142770   7.400   8.250   3.047
14176WAT     H242771   7.329   8.153   2.936
14177WAT      O42772   2.195   4.968   5.626
14177WAT     H142773   2.228   4.886   5.672
14177WAT     H242774   2.260   5.043   5.641
14178WAT      O42775   9.350   3.580   7.759
14178WAT     H142776   9.435   3.563   7.808
14178WAT     H242777   9.304   3.659   7.798
14179WAT      O42778   0.564   4.195   9.345
14179WAT     H142779   0.586   4.275   9.400
14179WAT     H242780   0.472   4.203   9.307
14180WAT      O42781   9.206   0.433   0.786
14180WAT     H142782   9.198   0.492   0.706
14180WAT     H242783   9.212   0.489   0.869
14181WAT      O42784   6.946   8.560   1.391
14181WAT     H142785   6.884   8.637   1.405
14181WAT     H242786   7.027   8.571   1.448
14182WAT      O42787   8.403   5.535   6.487
14182WAT     H142788   8.435   5.456   6.540
14182WAT     H242789   8.466   5.611   6.499
14183WAT      O42790   1.638   1.724   4.127
14183WAT     H142791   1.700   1.731   4.206
14183WAT     H242792   1.685   1.675   4.053
14184WAT      O42793   1.908   4.950   7.492
14184WAT     H142794   1.836   4.965   7.425
14184WAT     H242795   1.868   4.907   7.574
14185WAT      O42796   1.240   4.950   6.020
14185WAT     H142797   1.303   4.954   5.943
14185WAT     H242798   1.281   4.997   6.099
14186WAT      O42799   1.135   3.638   6.201
14186WAT     H142800   1.081   3.645   6.117
14186WAT     H242801   1.125   3.721   6.255
14187WAT      O42802   0.380   8.369   1.910
14187WAT     H142803   0.283   8.353   1.891
14187WAT     H242804   0.390   8.449   1.969
14188WAT      O42805   2.083   2.478   4.317
14188WAT     H142806   2.007   2.468   4.252
14188WAT     H242807   2.051   2.526   4.399
14189WAT      O42808   9.409   5.184   2.487
14189WAT     H142809   9.473   5.257   2.466
14189WAT     H242810   9.363   5.204   2.573
14190WAT      O42811   2.539   4.899   7.769
14190WAT     H142812   2.544   4.960   7.690
14190WAT     H242813   2.527   4.804   7.737
14191WAT      O42814   9.409   6.923   1.314
14191WAT     H142815   9.329   6.880   1.274
14191WAT     H242816   9.381   6.996   1.375
14192WAT      O42817   6.915   6.017   8.182
14192WAT     H142818   6.962   6.073   8.113
14192WAT     H242819   6.982   5.975   8.243
14193WAT      O42820   8.541   5.781   6.496
14193WAT     H142821   8.600   5.839   6.440
14193WAT     H242822   8.445   5.804   6.479
14194WAT      O42823   2.861   4.754   1.000
14194WAT     H142824   2.788   4.820   1.018
14194WAT     H242825   2.841   4.703   0.916
14195WAT      O42826   0.302   8.897   9.421
14195WAT     H142827   0.272   8.952   9.499
14195WAT     H242828   0.269   8.940   9.336
14196WAT      O42829   3.411   5.771   7.859
14196WAT     H142830   3.503   5.787   7.825
14196WAT     H242831   3.385   5.844   7.923
14197WAT      O42832   2.414   7.639   7.469
14197WAT     H142833   2.473   7.562   7.494
14197WAT     H242834   2.423   7.712   7.537
14198WAT      O42835   4.167   9.711   3.257
14198WAT     H142836   4.156   9.644   3.183
14198WAT     H242837   4.081   9.720   3.307
14199WAT      O42838   3.672   1.543   5.366
14199WAT     H142839   3.606   1.588   5.305
14199WAT     H242840   3.675   1.445   5.346
14200WAT      O42841   0.307   8.849   3.235
14200WAT     H142842   0.303   8.752   3.260
14200WAT     H242843   0.373   8.896   3.293
14201WAT      O42844   2.727   9.135   0.924
14201WAT     H142845   2.783   9.218   0.926
14201WAT     H242846   2.639   9.153   0.969
14202WAT      O42847   1.607   9.835   7.752
14202WAT     H142848   1.548   9.765   7.713
14202WAT     H242849   1.570   9.864   7.840
14203WAT      O42850   3.547   4.930   5.883
14203WAT     H142851   3.466   4.965   5.930
14203WAT     H242852   3.521   4.850   5.828
14204WAT      O42853   3.956   6.718   6.160
14204WAT     H142854   3.957   6.774   6.077
14204WAT     H242855   3.899   6.638   6.145
14205WAT      O42856   8.926   7.074   9.329
14205WAT     H142857   8.958   6.998   9.273
14205WAT     H242858   8.901   7.151   9.271
14206WAT      O42859   7.590   5.368   5.763
14206WAT     H142860   7.530   5.346   5.839
14206WAT     H242861   7.590   5.466   5.747
14207WAT      O42862   8.101   6.679   5.601
14207WAT     H142863   8.009   6.673   5.640
14207WAT     H242864   8.136   6.772   5.612
14208WAT      O42865   3.410   2.530   6.788
14208WAT     H142866   3.437   2.529   6.692
14208WAT     H242867   3.445   2.448   6.833
14209WAT      O42868   2.775   1.631   5.136
14209WAT     H142869   2.771   1.676   5.225
14209WAT     H242870   2.724   1.684   5.069
14210WAT      O42871   0.178   0.049   5.542
14210WAT     H142872   0.244   0.078   5.611
14210WAT     H242873   0.088   0.040   5.583
14211WAT      O42874   6.934   8.609   1.826
14211WAT     H142875   6.887   8.530   1.863
14211WAT     H242876   6.878   8.649   1.752
14212WAT      O42877   7.858   1.316   9.753
14212WAT     H142878   7.925   1.272   9.693
14212WAT     H242879   7.850   1.265   9.838
14213WAT      O42880   6.079   5.242   4.002
14213WAT     H142881   6.067   5.279   3.909
14213WAT     H242882   6.075   5.318   4.068
14214WAT      O42883   7.011   1.138   0.374
14214WAT     H142884   6.922   1.096   0.390
14214WAT     H242885   7.007   1.235   0.396
14215WAT      O42886   9.566   1.632   6.981
14215WAT     H142887   9.563   1.696   7.057
14215WAT     H242888   9.660   1.622   6.949
14216WAT      O42889   5.204   2.725   1.097
14216WAT     H142890   5.237   2.635   1.128
14216WAT     H242891   5.118   2.746   1.143
14217WAT      O42892   7.905   7.835   8.648
14217WAT     H142893   7.915   7.890   8.565
14217WAT     H242894   7.810   7.838   8.679
14218WAT      O42895   8.070   9.715   9.294
14218WAT     H142896   8.129   9.746   9.369
14218WAT     H242897   8.072   9.782   9.221
14219WAT      O42898   8.749   6.582   8.431
14219WAT     H142899   8.832   6.610   8.480
14219WAT     H242900   8.699   6.516   8.485
14220WAT      O42901   4.058   3.607   5.920
14220WAT     H142902   4.138   3.563   5.960
14220WAT     H242903   4.077   3.704   5.905
14221WAT      O42904   2.426   5.889   0.378
14221WAT     H142905   2.475   5.831   0.313
14221WAT     H242906   2.490   5.927   0.444
14222WAT      O42907   6.216   0.350   5.767
14222WAT     H142908   6.175   0.433   5.804
14222WAT     H242909   6.253   0.295   5.841
14223WAT      O42910   0.336   1.509   0.927
14223WAT     H142911   0.397   1.441   0.966
14223WAT     H242912   0.275   1.465   0.861
14224WAT      O42913   7.339   4.871   6.185
14224WAT     H142914   7.324   4.942   6.116
14224WAT     H242915   7.365   4.913   6.272
14225WAT      O42916   4.918   4.316   2.229
14225WAT     H142917   4.906   4.387   2.160
14225WAT     H242918   4.909   4.356   2.320
14226WAT      O42919   2.255   5.779   5.332
14226WAT     H142920   2.266   5.682   5.356
14226WAT     H242921   2.329   5.807   5.271
14227WAT      O42922   6.728   3.900   1.351
14227WAT     H142923   6.651   3.837   1.363
14227WAT     H242924   6.768   3.921   1.441
14228WAT      O42925   5.751   1.771   1.918
14228WAT     H142926   5.800   1.784   2.004
14228WAT     H242927   5.774   1.845   1.855
14229WAT      O42928   5.185   4.989   3.549
14229WAT     H142929   5.171   5.013   3.453
14229WAT     H242930   5.195   4.890   3.557
14230WAT      O42931   0.089   9.148   5.172
14230WAT     H142932   0.039   9.064   5.195
14230WAT     H242933   0.157   9.128   5.101
14231WAT      O42934   0.930   2.502   7.298
14231WAT     H142935   0.932   2.466   7.392
14231WAT     H242936   0.836   2.505   7.265
14232WAT      O42937   8.113   4.246   7.875
14232WAT     H142938   8.183   4.206   7.816
14232WAT     H242939   8.025   4.245   7.827
14233WAT      O42940   4.503   3.070   0.173
14233WAT     H142941   4.507   2.994   0.239
14233WAT     H242942   4.583   3.128   0.184
14234WAT      O42943   1.447   5.523   6.037
14234WAT     H142944   1.399   5.599   6.079
14234WAT     H242945   1.541   5.550   6.016
14235WAT      O42946   7.396   8.355   0.318
14235WAT     H142947   7.437   8.265   0.304
14235WAT     H242948   7.402   8.379   0.415
14236WAT      O42949   1.251   1.482   3.175
14236WAT     H142950   1.157   1.451   3.192
14236WAT     H242951   1.252   1.582   3.167
14237WAT      O42952   3.186   0.687   3.471
14237WAT     H142953   3.221   0.780   3.475
14237WAT     H242954   3.240   0.634   3.406
14238WAT      O42955   7.780   4.067   4.634
14238WAT     H142956   7.694   4.026   4.665
14238WAT     H242957   7.768   4.103   4.541
14239WAT      O42958   9.154   8.007   1.912
14239WAT     H142959   9.166   8.049   1.822
14239WAT     H242960   9.209   7.924   1.918
14240WAT      O42961   1.796   7.171   6.480
14240WAT     H142962   1.725   7.106   6.453
14240WAT     H242963   1.807   7.169   6.579
14241WAT      O42964   0.330   8.674   9.692
14241WAT     H142965   0.356   8.588   9.648
14241WAT     H242966   0.409   8.734   9.699
14242WAT      O42967   4.202   5.714   0.973
14242WAT     H142968   4.170   5.807   0.990
14242WAT     H242969   4.158   5.677   0.891
14243WAT      O42970   4.019   4.312   8.020
14243WAT     H142971   4.095   4.353   7.970
14243WAT     H242972   4.024   4.339   8.116
14244WAT      O42973   3.524   3.972   6.679
14244WAT     H142974   3.586   3.948   6.605
14244WAT     H242975   3.436   3.927   6.666
14245WAT      O42976   2.002   6.625   4.718
14245WAT     H142977   2.080   6.611   4.780
14245WAT     H242978   1.917   6.609   4.768
14246WAT      O42979   6.087   4.536   3.130
14246WAT     H142980   6.087   4.602   3.205
14246WAT     H242981   6.178   4.493   3.124
14247WAT      O42982   0.691   9.548   1.316
14247WAT     H142983   0.628   9.472   1.305
14247WAT     H242984   0.692   9.603   1.232
14248WAT      O42985   4.685   8.264   5.211
14248WAT     H142986   4.693   8.209   5.294
14248WAT     H242987   4.671   8.203   5.133
14249WAT      O42988   5.322   2.906   3.772
14249WAT     H142989   5.242   2.850   3.752
14249WAT     H242990   5.402   2.868   3.727
14250WAT      O42991   2.563   7.112   3.250
14250WAT     H142992   2.587   7.027   3.297
14250WAT     H242993   2.588   7.105   3.154
14251WAT      O42994   6.755   1.022   0.432
14251WAT     H142995   6.682   1.091   0.425
14251WAT     H242996   6.726   0.949   0.494
14252WAT      O42997   1.334   3.102   1.510
14252WAT     H142998   1.349   3.193   1.551
14252WAT     H242999   1.307   3.038   1.581
14253WAT      O43000   2.689   3.611   5.082
14253WAT     H143001   2.729   3.672   5.013
14253WAT     H243002   2.758   3.545   5.113
14254WAT      O43003   1.903   9.156   0.828
14254WAT     H143004   1.846   9.153   0.746
14254WAT     H243005   1.998   9.136   0.802
14255WAT      O43006   6.413   6.174   7.049
14255WAT     H143007   6.456   6.160   6.959
14255WAT     H243008   6.468   6.129   7.119
14256WAT      O43009   5.499   2.225   3.355
14256WAT     H143010   5.517   2.142   3.304
14256WAT     H243011   5.402   2.248   3.349
14257WAT      O43012   9.362   3.036   6.165
14257WAT     H143013   9.461   3.049   6.150
14257WAT     H243014   9.312   3.099   6.106
14258WAT      O43015   5.753   6.006   6.545
14258WAT     H143016   5.662   6.034   6.576
14258WAT     H243017   5.822   6.060   6.593
14259WAT      O43018   0.698   4.988   8.906
14259WAT     H143019   0.721   4.953   8.815
14259WAT     H243020   0.759   4.946   8.973
14260WAT      O43021   2.116   9.638   8.361
14260WAT     H143022   2.087   9.607   8.451
14260WAT     H243023   2.039   9.679   8.313
14261WAT      O43024   2.821   7.507   2.610
14261WAT     H143025   2.823   7.502   2.710
14261WAT     H243026   2.733   7.547   2.581
14262WAT      O43027   6.894   6.514   7.758
14262WAT     H143028   6.904   6.582   7.831
14262WAT     H243029   6.844   6.435   7.793
14263WAT      O43030   0.909   4.656   2.639
14263WAT     H143031   0.976   4.641   2.566
14263WAT     H243032   0.956   4.671   2.726
14264WAT      O43033   6.423   8.272   0.074
14264WAT     H143034   6.461   8.190   0.032
14264WAT     H243035   6.497   8.329   0.109
14265WAT      O43036   3.063   0.808   0.981
14265WAT     H143037   3.029   0.779   1.070
14265WAT     H243038   3.159   0.835   0.989
14266WAT      O43039   7.396   1.620   0.803
14266WAT     H143040   7.374   1.550   0.870
14266WAT     H243041   7.316   1.637   0.745
14267WAT      O43042   1.197   6.585   6.677
14267WAT     H143043   1.140   6.614   6.754
14267WAT     H243044   1.177   6.490   6.655
14268WAT      O43045   4.609   7.338   0.479
14268WAT     H143046   4.700   7.297   0.483
14268WAT     H243047   4.550   7.295   0.548
14269WAT      O43048   7.210   1.143   3.308
14269WAT     H143049   7.142   1.137   3.381
14269WAT     H243050   7.164   1.164   3.222
14270WAT      O43051   2.960   0.053   8.926
14270WAT     H143052   2.975  -0.010   8.849
14270WAT     H243053   2.947   0.001   9.010
14271WAT      O43054   8.270   7.715   5.746
14271WAT     H143055   8.292   7.618   5.744
14271WAT     H243056   8.171   7.726   5.757
14272WAT      O43057   3.495   0.122   6.029
14272WAT     H143058   3.430   0.188   5.992
14272WAT     H243059   3.563   0.099   5.959
14273WAT      O43060   4.728   2.011   4.055
14273WAT     H143061   4.737   1.915   4.082
14273WAT     H243062   4.671   2.060   4.122
14274WAT      O43063   1.295   5.670   6.493
14274WAT     H143064   1.356   5.677   6.572
14274WAT     H243065   1.320   5.590   6.439
14275WAT      O43066   6.310   1.799   9.626
14275WAT     H143067   6.378   1.729   9.604
14275WAT     H243068   6.251   1.766   9.700
14276WAT      O43069   3.015   6.280   9.521
14276WAT     H143070   2.957   6.361   9.509
14276WAT     H243071   3.022   6.258   9.618
14277WAT      O43072   4.447   2.446   7.043
14277WAT     H143073   4.361   2.487   7.012
14277WAT     H243074   4.482   2.497   7.121
14278WAT      O43075   1.320   0.813   4.325
14278WAT     H143076   1.337   0.911   4.336
14278WAT     H243077   1.264   0.798   4.244
14279WAT      O43078   3.485   0.212   7.261
14279WAT     H143079   3.575   0.209   7.218
14279WAT     H243080   3.444   0.121   7.261
14280WAT      O43081   8.085   1.657   3.643
14280WAT     H143082   8.026   1.729   3.606
14280WAT     H243083   8.159   1.698   3.696
14281WAT      O43084   1.793   7.456   2.348
14281WAT     H143085   1.843   7.537   2.317
14281WAT     H243086   1.854   7.397   2.400
14282WAT      O43087   1.968   7.847   3.653
14282WAT     H143088   1.916   7.918   3.700
14282WAT     H243089   1.904   7.782   3.611
14283WAT      O43090   7.752   0.489   6.945
14283WAT     H143091   7.697   0.442   7.013
14283WAT     H243092   7.708   0.576   6.921
14284WAT      O43093   5.193   0.997   8.937
14284WAT     H143094   5.117   0.951   8.984
14284WAT     H243095   5.269   1.010   9.000
14285WAT      O43096   9.311   0.818   4.216
14285WAT     H143097   9.285   0.771   4.300
14285WAT     H243098   9.410   0.832   4.214
14286WAT      O43099   9.726   2.596   0.862
14286WAT     H143100   9.741   2.677   0.806
14286WAT     H243101   9.814   2.557   0.889
14287WAT      O43102   7.776   2.318   6.635
14287WAT     H143103   7.790   2.221   6.652
14287WAT     H243104   7.863   2.361   6.610
14288WAT      O43105   4.939   8.043   4.218
14288WAT     H143106   4.974   8.068   4.308
14288WAT     H243107   4.875   7.967   4.226
14289WAT      O43108   1.193   3.917   4.185
14289WAT     H143109   1.274   3.930   4.242
14289WAT     H243110   1.183   3.820   4.161
14290WAT      O43111   8.470   6.113   4.874
14290WAT     H143112   8.393   6.161   4.831
14290WAT     H243113   8.549   6.114   4.814
14291WAT      O43114   7.857   8.690   2.303
14291WAT     H143115   7.831   8.693   2.207
14291WAT     H243116   7.893   8.599   2.325
14292WAT      O43117   2.981   7.666   8.165
14292WAT     H143118   2.921   7.746   8.160
14292WAT     H243119   3.024   7.652   8.076
14293WAT      O43120   8.955   7.720   6.104
14293WAT     H143121   8.940   7.625   6.128
14293WAT     H243122   9.038   7.753   6.148
14294WAT      O43123   7.766   4.726   2.080
14294WAT     H143124   7.712   4.810   2.088
14294WAT     H243125   7.813   4.708   2.167
14295WAT      O43126   3.448   6.841   8.873
14295WAT     H143127   3.425   6.830   8.776
14295WAT     H243128   3.525   6.780   8.895
14296WAT      O43129   4.656   1.864   0.415
14296WAT     H143130   4.714   1.890   0.493
14296WAT     H243131   4.715   1.838   0.338
14297WAT      O43132   9.519   5.299   1.073
14297WAT     H143133   9.473   5.377   1.116
14297WAT     H243134   9.529   5.225   1.139
14298WAT      O43135   0.924   5.792   4.083
14298WAT     H143136   0.872   5.721   4.130
14298WAT     H243137   0.891   5.882   4.110
14299WAT      O43138   0.772   3.583   7.025
14299WAT     H143139   0.806   3.669   7.065
14299WAT     H243140   0.789   3.583   6.927
14300WAT      O43141   0.757   2.239   1.954
14300WAT     H143142   0.690   2.294   2.004
14300WAT     H243143   0.841   2.232   2.008
14301WAT      O43144   8.250   5.480   9.560
14301WAT     H143145   8.305   5.398   9.576
14301WAT     H243146   8.216   5.515   9.648
14302WAT      O43147   6.724   8.090   2.079
14302WAT     H143148   6.788   8.102   2.003
14302WAT     H243149   6.714   8.176   2.128
14303WAT      O43150   3.510   2.845   8.891
14303WAT     H143151   3.442   2.782   8.854
14303WAT     H243152   3.600   2.803   8.886
14304WAT      O43153   1.703   7.456   6.108
14304WAT     H143154   1.725   7.491   6.199
14304WAT     H243155   1.701   7.356   6.111
14305WAT      O43156   6.419   0.006   9.118
14305WAT     H143157   6.349   0.069   9.084
14305WAT     H243158   6.409  -0.004   9.217
14306WAT      O43159   7.777   6.186   2.431
14306WAT     H143160   7.691   6.217   2.472
14306WAT     H243161   7.781   6.215   2.335
14307WAT      O43162   2.185   1.611   7.762
14307WAT     H143163   2.252   1.683   7.745
14307WAT     H243164   2.152   1.618   7.856
14308WAT      O43165   5.853   9.539   6.145
14308WAT     H143166   5.808   9.594   6.215
14308WAT     H243167   5.882   9.452   6.186
14309WAT      O43168   8.653   1.389   8.208
14309WAT     H143169   8.558   1.376   8.237
14309WAT     H243170   8.659   1.377   8.109
14310WAT      O43171   8.834   4.419   8.623
14310WAT     H143172   8.791   4.329   8.628
14310WAT     H243173   8.916   4.413   8.566
14311WAT      O43174   3.065   2.768   7.858
14311WAT     H143175   3.060   2.868   7.863
14311WAT     H243176   3.153   2.737   7.894
14312WAT      O43177   2.595   0.150   5.472
14312WAT     H143178   2.693   0.164   5.486
14312WAT     H243179   2.543   0.207   5.535
14313WAT      O43180   1.010   7.227   4.657
14313WAT     H143181   1.092   7.280   4.680
14313WAT     H243182   0.993   7.232   4.559
14314WAT      O43183   3.514   0.859   8.060
14314WAT     H143184   3.438   0.800   8.032
14314WAT     H243185   3.503   0.949   8.017
14315WAT      O43186   1.945   9.417   4.913
14315WAT     H143187   1.971   9.369   4.997
14315WAT     H243188   1.849   9.445   4.918
14316WAT      O43189   4.227   0.086   8.983
14316WAT     H143190   4.250   0.046   9.072
14316WAT     H243191   4.227   0.014   8.914
14317WAT      O43192   8.662   7.118   6.006
14317WAT     H143193   8.647   7.028   6.045
14317WAT     H243194   8.596   7.135   5.933
14318WAT      O43195   2.043   5.454   9.310
14318WAT     H143196   2.009   5.546   9.331
14318WAT     H243197   1.965   5.393   9.299
14319WAT      O43198   3.429   5.754   2.271
14319WAT     H143199   3.348   5.704   2.302
14319WAT     H243200   3.459   5.718   2.182
14320WAT      O43201   6.417   5.311   1.666
14320WAT     H143202   6.382   5.237   1.609
14320WAT     H243203   6.491   5.358   1.617
14321WAT      O43204   9.538   7.202   6.530
14321WAT     H143205   9.462   7.243   6.479
14321WAT     H243206   9.569   7.119   6.484
14322WAT      O43207   7.966   8.457   2.368
14322WAT     H143208   7.887   8.407   2.403
14322WAT     H243209   8.047   8.398   2.372
14323WAT      O43210   9.589   4.329   2.128
14323WAT     H143211   9.654   4.268   2.174
14323WAT     H243212   9.638   4.390   2.065
14324WAT      O43213   4.370   4.850   4.096
14324WAT     H143214   4.298   4.871   4.162
14324WAT     H243215   4.341   4.773   4.039
14325WAT      O43216   3.005   4.378   2.497
14325WAT     H143217   2.933   4.310   2.481
14325WAT     H243218   3.092   4.331   2.510
14326WAT      O43219   7.921   1.954   8.842
14326WAT     H143220   7.999   2.010   8.817
14326WAT     H243221   7.869   1.930   8.760
14327WAT      O43222   9.585   0.056   5.603
14327WAT     H143223   9.625   0.087   5.689
14327WAT     H243224   9.510   0.117   5.578
14328WAT      O43225   5.445   2.555   4.059
14328WAT     H143226   5.454   2.542   4.158
14328WAT     H243227   5.476   2.473   4.011
14329WAT      O43228   2.387   0.755   2.876
14329WAT     H143229   2.350   0.822   2.812
14329WAT     H243230   2.371   0.785   2.969
14330WAT      O43231   5.531   6.228   6.444
14330WAT     H143232   5.506   6.168   6.520
14330WAT     H243233   5.600   6.183   6.388
14331WAT      O43234   3.880   2.277   5.319
14331WAT     H143235   3.818   2.201   5.297
14331WAT     H243236   3.837   2.364   5.293
14332WAT      O43237   9.518   6.234   7.230
14332WAT     H143238   9.560   6.324   7.239
14332WAT     H243239   9.585   6.169   7.194
14333WAT      O43240   7.112   6.174   1.414
14333WAT     H143241   7.074   6.266   1.429
14333WAT     H243242   7.173   6.176   1.335
14334WAT      O43243   0.383   6.984   2.793
14334WAT     H143244   0.398   6.913   2.725
14334WAT     H243245   0.441   6.967   2.873
14335WAT      O43246   1.949   2.719   3.172
14335WAT     H143247   2.009   2.681   3.241
14335WAT     H243248   1.994   2.795   3.126
14336WAT      O43249   9.836   8.981   4.374
14336WAT     H143250   9.836   9.014   4.469
14336WAT     H243251   9.854   9.057   4.312
14337WAT      O43252   7.029   8.606   8.235
14337WAT     H143253   7.105   8.631   8.295
14337WAT     H243254   7.000   8.686   8.182
14338WAT      O43255   2.200   3.057   8.445
14338WAT     H143256   2.105   3.076   8.422
14338WAT     H243257   2.248   3.021   8.365
14339WAT      O43258   6.849   4.472   1.169
14339WAT     H143259   6.860   4.552   1.228
14339WAT     H243260   6.765   4.424   1.192
14340WAT      O43261   8.825   4.453   3.135
14340WAT     H143262   8.814   4.354   3.147
14340WAT     H243263   8.909   4.471   3.084
14341WAT      O43264   3.439   0.666   2.709
14341WAT     H143265   3.361   0.619   2.750
14341WAT     H243266   3.421   0.678   2.611
14342WAT      O43267   7.827   8.566   7.124
14342WAT     H143268   7.855   8.634   7.192
14342WAT     H243269   7.887   8.486   7.131
14343WAT      O43270   0.233   0.027   9.415
14343WAT     H143271   0.262  -0.017   9.500
14343WAT     H243272   0.312   0.038   9.355
14344WAT      O43273   8.371   9.095   1.063
14344WAT     H143274   8.418   9.045   0.990
14344WAT     H243275   8.313   9.033   1.115
14345WAT      O43276   5.318   3.148   1.672
14345WAT     H143277   5.406   3.184   1.702
14345WAT     H243278   5.283   3.083   1.740
14346WAT      O43279   7.028   3.793   5.369
14346WAT     H143280   7.097   3.854   5.407
14346WAT     H243281   6.961   3.770   5.439
14347WAT      O43282   9.407   6.029   7.411
14347WAT     H143283   9.443   6.095   7.344
14347WAT     H243284   9.354   5.959   7.363
14348WAT      O43285   3.993   3.309   2.907
14348WAT     H143286   3.997   3.409   2.913
14348WAT     H243287   3.946   3.283   2.823
14349WAT      O43288   3.302   6.526   9.368
14349WAT     H143289   3.300   6.428   9.389
14349WAT     H243290   3.234   6.546   9.297
14350WAT      O43291   3.115   2.166   5.144
14350WAT     H143292   3.138   2.117   5.060
14350WAT     H243293   3.146   2.261   5.137
14351WAT      O43294   7.970   9.218   8.939
14351WAT     H143295   7.932   9.245   8.851
14351WAT     H243296   7.898   9.178   8.996
14352WAT      O43297   3.151   5.425   5.914
14352WAT     H143298   3.185   5.373   5.991
14352WAT     H243299   3.061   5.463   5.935
14353WAT      O43300   9.401   5.799   2.053
14353WAT     H143301   9.468   5.779   2.124
14353WAT     H243302   9.435   5.873   1.996
14354WAT      O43303   6.386   4.410   5.058
14354WAT     H143304   6.473   4.442   5.096
14354WAT     H243305   6.363   4.322   5.099
14355WAT      O43306   7.752   9.682   9.324
14355WAT     H143307   7.761   9.734   9.239
14355WAT     H243308   7.658   9.650   9.334
14356WAT      O43309   4.941   2.214   5.527
14356WAT     H143310   5.002   2.285   5.491
14356WAT     H243311   4.860   2.257   5.566
14357WAT      O43312   9.061   5.228   3.964
14357WAT     H143313   9.067   5.307   4.024
14357WAT     H243314   9.142   5.224   3.905
14358WAT      O43315   0.274   7.984   0.444
14358WAT     H143316   0.359   8.022   0.407
14358WAT     H243317   0.291   7.890   0.475
14359WAT      O43318   7.246   1.007   9.830
14359WAT     H143319   7.214   1.096   9.798
14359WAT     H243320   7.345   1.001   9.817
14360WAT      O43321   6.800   0.527   7.309
14360WAT     H143322   6.707   0.562   7.323
14360WAT     H243323   6.866   0.594   7.344
14361WAT      O43324   4.474   1.243   6.461
14361WAT     H143325   4.383   1.281   6.468
14361WAT     H243326   4.479   1.183   6.381
14362WAT      O43327   3.966   1.693   9.152
14362WAT     H143328   3.996   1.737   9.068
14362WAT     H243329   3.891   1.745   9.193
14363WAT      O43330   8.352   0.721   9.132
14363WAT     H143331   8.441   0.729   9.086
14363WAT     H243332   8.357   0.648   9.201
14364WAT      O43333   4.129   0.468   3.053
14364WAT     H143334   4.110   0.382   3.006
14364WAT     H243335   4.161   0.448   3.146
14365WAT      O43336   3.071   1.846   2.123
14365WAT     H143337   3.003   1.776   2.145
14365WAT     H243338   3.039   1.899   2.045
14366WAT      O43339   9.138   5.585   7.055
14366WAT     H143340   9.106   5.680   7.048
14366WAT     H243341   9.211   5.570   6.989
14367WAT      O43342   0.404   3.523   6.899
14367WAT     H143343   0.403   3.423   6.906
14367WAT     H243344   0.423   3.550   6.805
14368WAT      O43345   3.202   1.219   5.076
14368WAT     H143346   3.184   1.126   5.109
14368WAT     H243347   3.179   1.285   5.148
14369WAT      O43348   1.815   5.464   8.600
14369WAT     H143349   1.890   5.462   8.534
14369WAT     H243350   1.736   5.414   8.563
14370WAT      O43351   8.810   6.952   4.039
14370WAT     H143352   8.802   6.908   4.129
14370WAT     H243353   8.821   6.882   3.969
14371WAT      O43354   5.163   9.748   2.700
14371WAT     H143355   5.137   9.683   2.629
14371WAT     H243356   5.263   9.751   2.706
14372WAT      O43357   6.533   8.447   0.255
14372WAT     H143358   6.459   8.398   0.301
14372WAT     H243359   6.616   8.444   0.311
14373WAT      O43360   3.909   2.579   4.398
14373WAT     H143361   3.945   2.500   4.446
14373WAT     H243362   3.985   2.635   4.363
14374WAT      O43363   5.636   2.967   4.132
14374WAT     H143364   5.576   2.907   4.078
14374WAT     H243365   5.583   3.009   4.206
14375WAT      O43366   5.013   5.640   3.857
14375WAT     H143367   5.028   5.675   3.950
14375WAT     H243368   5.067   5.694   3.792
14376WAT      O43369   0.568   9.331   5.671
14376WAT     H143370   0.474   9.301   5.654
14376WAT     H243371   0.632   9.265   5.633
14377WAT      O43372   2.945   4.212   9.581
14377WAT     H143373   2.913   4.133   9.530
14377WAT     H243374   2.870   4.279   9.588
14378WAT      O43375   8.796   1.859   1.406
14378WAT     H143376   8.857   1.893   1.478
14378WAT     H243377   8.819   1.764   1.386
14379WAT      O43378   5.536   1.763   0.993
14379WAT     H143379   5.474   1.686   0.977
14379WAT     H243380   5.624   1.729   1.025
14380WAT      O43381   2.212   7.641   9.878
14380WAT     H143382   2.193   7.646   9.780
14380WAT     H243383   2.194   7.548   9.910
14381WAT      O43384   6.382   0.028   9.382
14381WAT     H143385   6.317  -0.031   9.430
14381WAT     H243386   6.465   0.038   9.437
14382WAT      O43387   6.641   8.350   6.789
14382WAT     H143388   6.549   8.366   6.755
14382WAT     H243389   6.706   8.409   6.741
14383WAT      O43390   8.376   1.745   1.039
14383WAT     H143391   8.403   1.674   1.104
14383WAT     H243392   8.281   1.771   1.056
14384WAT      O43393   3.418   5.421   7.612
14384WAT     H143394   3.358   5.501   7.612
14384WAT     H243395   3.487   5.431   7.540
14385WAT      O43396   8.737   5.298   1.983
14385WAT     H143397   8.710   5.394   1.971
14385WAT     H243398   8.697   5.262   2.067
14386WAT      O43399   8.232   7.005   7.582
14386WAT     H143400   8.253   6.955   7.666
14386WAT     H243401   8.266   7.099   7.590
14387WAT      O43402   2.139   8.561   6.226
14387WAT     H143403   2.173   8.507   6.303
14387WAT     H243404   2.166   8.657   6.239
14388WAT      O43405   2.070   8.776   3.446
14388WAT     H143406   1.997   8.712   3.421
14388WAT     H243407   2.089   8.768   3.544
14389WAT      O43408   8.170   5.053   8.794
14389WAT     H143409   8.222   5.106   8.861
14389WAT     H243410   8.073   5.052   8.820
14390WAT      O43411   5.953   3.741   3.401
14390WAT     H143412   5.990   3.651   3.424
14390WAT     H243413   5.896   3.774   3.476
14391WAT      O43414   6.577   5.882   2.693
14391WAT     H143415   6.585   5.977   2.724
14391WAT     H243416   6.490   5.870   2.645
14392WAT      O43417   3.508   1.145   5.000
14392WAT     H143418   3.536   1.050   5.008
14392WAT     H243419   3.422   1.150   4.948
14393WAT      O43420   8.296   6.166   1.388
14393WAT     H143421   8.373   6.229   1.401
14393WAT     H243422   8.270   6.165   1.291
14394WAT      O43423   8.378   0.952   8.879
14394WAT     H143424   8.384   1.006   8.963
14394WAT     H243425   8.301   0.888   8.886
14395WAT      O43426   2.701   6.896   0.325
14395WAT     H143427   2.777   6.846   0.366
14395WAT     H243428   2.616   6.872   0.372
14396WAT      O43429   4.782   5.901   0.278
14396WAT     H143430   4.715   5.905   0.204
14396WAT     H243431   4.739   5.864   0.360
14397WAT      O43432   2.650   8.864   5.564
14397WAT     H143433   2.676   8.796   5.496
14397WAT     H243434   2.671   8.829   5.656
14398WAT      O43435   0.446   5.085   2.559
14398WAT     H143436   0.383   5.094   2.636
14398WAT     H243437   0.440   4.993   2.521
14399WAT      O43438   4.035   9.059   2.245
14399WAT     H143439   4.044   9.009   2.159
14399WAT     H243440   4.076   9.005   2.319
14400WAT      O43441   7.971   0.661   4.551
14400WAT     H143442   8.035   0.586   4.534
14400WAT     H243443   7.931   0.690   4.464
14401WAT      O43444   7.251   7.381   1.840
14401WAT     H143445   7.226   7.416   1.931
14401WAT     H243446   7.211   7.440   1.770
14402WAT      O43447   9.582   7.496   1.465
14402WAT     H143448   9.579   7.404   1.503
14402WAT     H243449   9.668   7.508   1.415
14403WAT      O43450   7.201   2.621   0.165
14403WAT     H143451   7.191   2.557   0.241
14403WAT     H243452   7.140   2.700   0.179
14404WAT      O43453   8.815   6.472   6.449
14404WAT     H143454   8.897   6.414   6.447
14404WAT     H243455   8.806   6.514   6.540
14405WAT      O43456   1.094   1.273   2.558
14405WAT     H143457   1.027   1.204   2.586
14405WAT     H243458   1.186   1.233   2.559
14406WAT      O43459   0.737   3.756   0.894
14406WAT     H143460   0.719   3.717   0.804
14406WAT     H243461   0.652   3.758   0.948
14407WAT      O43462   9.315   1.368   2.426
14407WAT     H143463   9.356   1.317   2.350
14407WAT     H243464   9.222   1.336   2.440
14408WAT      O43465   9.483   6.564   6.119
14408WAT     H143466   9.473   6.658   6.086
14408WAT     H243467   9.413   6.546   6.188
14409WAT      O43468   7.502   2.263   3.943
14409WAT     H143469   7.517   2.273   4.041
14409WAT     H243470   7.590   2.268   3.895
14410WAT      O43471   4.541   9.376   2.479
14410WAT     H143472   4.554   9.354   2.575
14410WAT     H243473   4.628   9.405   2.439
14411WAT      O43474   6.994   1.602   3.547
14411WAT     H143475   6.958   1.538   3.480
14411WAT     H243476   7.015   1.553   3.632
14412WAT      O43477   6.644   9.217   0.143
14412WAT     H143478   6.690   9.252   0.225
14412WAT     H243479   6.682   9.262   0.062
14413WAT      O43480   1.557   5.249   1.578
14413WAT     H143481   1.548   5.315   1.503
14413WAT     H243482   1.484   5.181   1.571
14414WAT      O43483   3.980   6.791   7.557
14414WAT     H143484   3.921   6.865   7.523
14414WAT     H243485   4.074   6.825   7.566
14415WAT      O43486   4.641   3.798   5.708
14415WAT     H143487   4.598   3.734   5.644
14415WAT     H243488   4.739   3.780   5.713
14416WAT      O43489   4.185   1.360   7.937
14416WAT     H143490   4.101   1.393   7.979
14416WAT     H243491   4.242   1.316   8.006
14417WAT      O43492   7.454   0.627   1.297
14417WAT     H143493   7.412   0.556   1.354
14417WAT     H243494   7.436   0.717   1.337
14418WAT      O43495   1.091   6.000   7.329
14418WAT     H143496   1.150   5.937   7.278
14418WAT     H243497   1.010   5.950   7.361
14419WAT      O43498   4.857   9.079   3.329
14419WAT     H143499   4.787   9.074   3.257
14419WAT     H243500   4.874   9.174   3.353
14420WAT      O43501   8.382   3.892   9.141
14420WAT     H143502   8.413   3.805   9.102
14420WAT     H243503   8.461   3.948   9.163
14421WAT      O43504   7.983   0.161   9.519
14421WAT     H143505   7.964   0.259   9.512
14421WAT     H243506   8.014   0.140   9.612
14422WAT      O43507   5.975   5.431   6.660
14422WAT     H143508   6.065   5.412   6.698
14422WAT     H243509   5.908   5.438   6.735
14423WAT      O43510   9.291   0.613   5.076
14423WAT     H143511   9.309   0.674   4.999
14423WAT     H243512   9.327   0.654   5.160
14424WAT      O43513   5.853   6.817   5.520
14424WAT     H143514   5.884   6.848   5.430
14424WAT     H243515   5.922   6.840   5.588
14425WAT      O43516   3.094   7.311   5.932
14425WAT     H143517   3.168   7.245   5.917
14425WAT     H243518   3.069   7.310   6.029
14426WAT      O43519   4.034   2.971   4.608
14426WAT     H143520   3.963   2.905   4.633
14426WAT     H243521   4.121   2.944   4.648
14427WAT      O43522   1.655   1.677   1.871
14427WAT     H143523   1.584   1.638   1.812
14427WAT     H243524   1.702   1.604   1.920
14428WAT      O43525   4.831   6.162   2.883
14428WAT     H143526   4.800   6.232   2.818
14428WAT     H243527   4.806   6.072   2.848
14429WAT      O43528   4.295   8.117   3.436
14429WAT     H143529   4.242   8.090   3.355
14429WAT     H243530   4.378   8.163   3.406
14430WAT      O43531   6.813   1.342   9.616
14430WAT     H143532   6.836   1.346   9.519
14430WAT     H243533   6.720   1.308   9.627
14431WAT      O43534   4.614   0.618   2.778
14431WAT     H143535   4.687   0.551   2.765
14431WAT     H243536   4.576   0.608   2.869
14432WAT      O43537   9.376   8.960   7.910
14432WAT     H143538   9.401   8.881   7.966
14432WAT     H243539   9.278   8.977   7.919
14433WAT      O43540   2.188   8.770   2.809
14433WAT     H143541   2.158   8.859   2.843
14433WAT     H243542   2.110   8.720   2.773
14434WAT      O43543   0.977   6.131   1.209
14434WAT     H143544   1.002   6.055   1.269
14434WAT     H243545   1.044   6.138   1.135
14435WAT      O43546   4.267   7.423   4.395
14435WAT     H143547   4.300   7.383   4.309
14435WAT     H243548   4.312   7.511   4.410
14436WAT      O43549   7.678   5.305   8.864
14436WAT     H143550   7.656   5.264   8.776
14436WAT     H243551   7.680   5.235   8.935
14437WAT      O43552   2.727   5.536   1.091
14437WAT     H143553   2.682   5.462   1.140
14437WAT     H243554   2.793   5.497   1.026
14438WAT      O43555   3.210   7.610   1.859
14438WAT     H143556   3.296   7.564   1.834
14438WAT     H243557   3.206   7.622   1.958
14439WAT      O43558   8.477   2.991   9.793
14439WAT     H143559   8.516   3.038   9.715
14439WAT     H243560   8.406   3.048   9.835
14440WAT      O43561   1.986   8.902   2.601
14440WAT     H143562   2.000   8.803   2.610
14440WAT     H243563   2.012   8.948   2.686
14441WAT      O43564   0.410   3.016   5.414
14441WAT     H143565   0.359   3.072   5.479
14441WAT     H243566   0.463   3.074   5.353
14442WAT      O43567   9.288   0.192   5.310
14442WAT     H143568   9.354   0.139   5.257
14442WAT     H243569   9.328   0.216   5.399
14443WAT      O43570   4.241   3.694   9.549
14443WAT     H143571   4.326   3.719   9.597
14443WAT     H243572   4.225   3.759   9.474
14444WAT      O43573   3.485   2.114   3.643
14444WAT     H143574   3.496   2.128   3.741
14444WAT     H243575   3.475   2.203   3.598
14445WAT      O43576   3.363   8.897   9.783
14445WAT     H143577   3.334   8.990   9.804
14445WAT     H243578   3.297   8.854   9.722
14446WAT      O43579   2.477   7.435   2.700
14446WAT     H143580   2.437   7.455   2.789
14446WAT     H243581   2.434   7.354   2.661
14447WAT      O43582   8.016   1.465   0.186
14447WAT     H143583   7.953   1.540   0.207
14447WAT     H243584   7.966   1.379   0.184
14448WAT      O43585   1.975   9.110   7.449
14448WAT     H143586   1.936   9.118   7.540
14448WAT     H243587   2.074   9.123   7.453
14449WAT      O43588   8.750   9.788   2.410
14449WAT     H143589   8.749   9.861   2.479
14449WAT     H243590   8.750   9.699   2.457
14450WAT      O43591   0.567   3.699   9.387
14450WAT     H143592   0.498   3.771   9.383
14450WAT     H243593   0.648   3.726   9.335
14451WAT      O43594   5.240   0.940   6.721
14451WAT     H143595   5.295   0.990   6.788
14451WAT     H243596   5.244   0.987   6.633
14452WAT      O43597   6.158   9.704   3.013
14452WAT     H143598   6.156   9.684   2.915
14452WAT     H243599   6.204   9.791   3.029
14453WAT      O43600   6.688   6.939   7.858
14453WAT     H143601   6.676   6.959   7.955
14453WAT     H243602   6.785   6.930   7.837
14454WAT      O43603   4.652   0.478   6.000
14454WAT     H143604   4.679   0.574   6.003
14454WAT     H243605   4.686   0.430   6.081
14455WAT      O43606   5.481   9.417   8.431
14455WAT     H143607   5.452   9.372   8.346
14455WAT     H243608   5.493   9.348   8.502
14456WAT      O43609   1.286   6.642   8.541
14456WAT     H143610   1.200   6.601   8.510
14456WAT     H243611   1.270   6.694   8.625
14457WAT      O43612   0.586   1.152   4.340
14457WAT     H143613   0.567   1.204   4.257
14457WAT     H243614   0.546   1.199   4.418
14458WAT      O43615   6.526   3.254   3.625
14458WAT     H143616   6.599   3.237   3.558
14458WAT     H243617   6.445   3.289   3.579
14459WAT      O43618   5.552   6.347   9.797
14459WAT     H143619   5.641   6.338   9.754
14459WAT     H243620   5.558   6.411   9.874
14460WAT      O43621   8.252   8.508   3.412
14460WAT     H143622   8.193   8.543   3.486
14460WAT     H243623   8.269   8.581   3.346
14461WAT      O43624   3.524   8.395   9.130
14461WAT     H143625   3.522   8.295   9.133
14461WAT     H243626   3.578   8.425   9.052
14462WAT      O43627   7.288   2.777   5.872
14462WAT     H143628   7.375   2.757   5.919
14462WAT     H243629   7.216   2.789   5.940
14463WAT      O43630   8.974   7.663   5.661
14463WAT     H143631   8.973   7.733   5.732
14463WAT     H243632   9.003   7.576   5.701
14464WAT      O43633   9.339   3.500   6.773
14464WAT     H143634   9.291   3.529   6.856
14464WAT     H243635   9.298   3.414   6.740
14465WAT      O43636   5.978   5.267   2.855
14465WAT     H143637   5.912   5.334   2.887
14465WAT     H243638   5.933   5.201   2.796
14466WAT      O43639   6.768   7.450   3.910
14466WAT     H143640   6.832   7.523   3.935
14466WAT     H243641   6.774   7.432   3.811
14467WAT      O43642   0.816   9.744   7.745
14467WAT     H143643   0.865   9.820   7.705
14467WAT     H243644   0.779   9.686   7.673
14468WAT      O43645   4.248   0.684   0.658
14468WAT     H143646   4.190   0.675   0.739
14468WAT     H243647   4.248   0.780   0.628
14469WAT      O43648   9.025   8.868   9.090
14469WAT     H143649   9.060   8.903   9.177
14469WAT     H243650   9.081   8.904   9.015
14470WAT      O43651   3.377   2.656   0.940
14470WAT     H143652   3.358   2.750   0.967
14470WAT     H243653   3.313   2.628   0.868
14471WAT      O43654   6.672   5.667   7.865
14471WAT     H143655   6.653   5.723   7.784
14471WAT     H243656   6.674   5.726   7.946
14472WAT      O43657   8.968   1.624   4.158
14472WAT     H143658   8.995   1.549   4.218
14472WAT     H243659   9.002   1.711   4.195
14473WAT      O43660   3.354   8.834   8.279
14473WAT     H143661   3.442   8.881   8.264
14473WAT     H243662   3.350   8.802   8.374
14474WAT      O43663   0.882   7.533   5.380
14474WAT     H143664   0.889   7.511   5.477
14474WAT     H243665   0.966   7.507   5.333
14475WAT      O43666   9.203   9.459   4.047
14475WAT     H143667   9.116   9.489   4.085
14475WAT     H243668   9.277   9.486   4.108
14476WAT      O43669   1.663   8.548   5.175
14476WAT     H143670   1.667   8.638   5.220
14476WAT     H243671   1.601   8.553   5.097
14477WAT      O43672   7.167   9.180   6.874
14477WAT     H143673   7.261   9.155   6.900
14477WAT     H243674   7.125   9.104   6.826
14478WAT      O43675   8.331   8.054   8.735
14478WAT     H143676   8.263   7.984   8.756
14478WAT     H243677   8.296   8.115   8.664
14479WAT      O43678   8.148   1.311   5.157
14479WAT     H143679   8.128   1.319   5.255
14479WAT     H243680   8.133   1.400   5.113
14480WAT      O43681   2.904   1.250   7.316
14480WAT     H143682   2.874   1.344   7.330
14480WAT     H243683   2.825   1.190   7.307
14481WAT      O43684   2.671   3.000   8.750
14481WAT     H143685   2.628   3.060   8.818
14481WAT     H243686   2.621   3.006   8.664
14482WAT      O43687   7.775   7.931   0.953
14482WAT     H143688   7.695   7.990   0.957
14482WAT     H243689   7.790   7.890   1.043
14483WAT      O43690   4.269   5.464   2.583
14483WAT     H143691   4.171   5.456   2.568
14483WAT     H243692   4.302   5.383   2.632
14484WAT      O43693   4.123   2.726   4.290
14484WAT     H143694   4.204   2.718   4.232
14484WAT     H243695   4.082   2.817   4.278
14485WAT      O43696   7.025   4.227   7.000
14485WAT     H143697   6.951   4.295   7.003
14485WAT     H243698   7.105   4.262   7.049
14486WAT      O43699   4.793   3.287   1.333
14486WAT     H143700   4.802   3.192   1.360
14486WAT     H243701   4.697   3.316   1.342
14487WAT      O43702   4.445   5.195   8.131
14487WAT     H143703   4.367   5.257   8.125
14487WAT     H243704   4.513   5.219   8.062
14488WAT      O43705   9.216   1.766   6.933
14488WAT     H143706   9.240   1.669   6.936
14488WAT     H243707   9.298   1.820   6.913
14489WAT      O43708   7.243   6.754   0.335
14489WAT     H143709   7.160   6.705   0.309
14489WAT     H243710   7.242   6.773   0.433
14490WAT      O43711   9.394   4.465   7.682
14490WAT     H143712   9.321   4.454   7.614
14490WAT     H243713   9.481   4.434   7.642
14491WAT      O43714   2.058   0.757   0.006
14491WAT     H143715   2.122   0.829   0.034
14491WAT     H243716   2.109   0.673  -0.012
14492WAT      O43717   4.625   0.129   8.924
14492WAT     H143718   4.712   0.150   8.969
14492WAT     H243719   4.637   0.049   8.865
14493WAT      O43720   7.481   1.797   5.107
14493WAT     H143721   7.412   1.868   5.089
14493WAT     H243722   7.473   1.724   5.040
14494WAT      O43723   6.545   6.683   2.928
14494WAT     H143724   6.535   6.669   3.027
14494WAT     H243725   6.624   6.742   2.910
14495WAT      O43726   7.708   1.741   2.417
14495WAT     H143727   7.717   1.840   2.430
14495WAT     H243728   7.762   1.694   2.487
14496WAT      O43729   7.615   0.037   2.094
14496WAT     H143730   7.571   0.112   2.145
14496WAT     H243731   7.599   0.050   1.996
14497WAT      O43732   9.845   8.228   0.918
14497WAT     H143733   9.771   8.243   0.983
14497WAT     H243734   9.929   8.208   0.968
14498WAT      O43735   4.530   3.818   3.766
14498WAT     H143736   4.624   3.839   3.796
14498WAT     H243737   4.468   3.824   3.844
14499WAT      O43738   4.033   8.522   8.614
14499WAT     H143739   4.016   8.503   8.517
14499WAT     H243740   4.128   8.550   8.626
14500WAT      O43741   9.136   6.997   0.158
14500WAT     H143742   9.108   6.920   0.216
14500WAT     H243743   9.158   6.964   0.066
14501WAT      O43744   8.997   7.007   0.734
14501WAT     H143745   9.009   6.914   0.771
14501WAT     H243746   9.001   7.073   0.810
14502WAT      O43747   4.803   4.649   1.795
14502WAT     H143748   4.753   4.719   1.846
14502WAT     H243749   4.738   4.588   1.749
14503WAT      O43750   3.691   9.225   7.557
14503WAT     H143751   3.734   9.290   7.493
14503WAT     H243752   3.735   9.136   7.549
14504WAT      O43753   6.125   9.186   9.407
14504WAT     H143754   6.191   9.192   9.332
14504WAT     H243755   6.152   9.113   9.470
14505WAT      O43756   0.788   0.553   8.570
14505WAT     H143757   0.765   0.504   8.654
14505WAT     H243758   0.739   0.640   8.568
14506WAT      O43759   7.457   0.168   0.828
14506WAT     H143760   7.521   0.211   0.765
14506WAT     H243761   7.382   0.231   0.848
14507WAT      O43762   0.500   5.936   6.898
14507WAT     H143763   0.578   5.875   6.914
14507WAT     H243764   0.437   5.894   6.833
14508WAT      O43765   2.656   7.300   2.142
14508WAT     H143766   2.705   7.279   2.057
14508WAT     H243767   2.707   7.263   2.220
14509WAT      O43768   3.559   4.206   0.808
14509WAT     H143769   3.500   4.286   0.796
14509WAT     H243770   3.541   4.140   0.735
14510WAT      O43771   0.222   7.233   6.383
14510WAT     H143772   0.302   7.243   6.324
14510WAT     H243773   0.139   7.251   6.330
14511WAT      O43774   9.059   7.571   4.748
14511WAT     H143775   9.043   7.550   4.844
14511WAT     H243776   9.111   7.656   4.740
14512WAT      O43777   1.975   3.984   3.969
14512WAT     H143778   2.000   4.081   3.970
14512WAT     H243779   1.893   3.971   4.026
14513WAT      O43780   0.834   6.550   1.011
14513WAT     H143781   0.780   6.585   1.087
14513WAT     H243782   0.773   6.514   0.940
14514WAT      O43783   5.098   8.463   2.157
14514WAT     H143784   5.097   8.391   2.088
14514WAT     H243785   5.181   8.456   2.213
14515WAT      O43786   2.643   8.238   7.684
14515WAT     H143787   2.629   8.239   7.585
14515WAT     H243788   2.606   8.322   7.723
14516WAT      O43789   6.208   8.878   5.627
14516WAT     H143790   6.258   8.959   5.657
14516WAT     H243791   6.178   8.825   5.706
14517WAT      O43792   6.367   7.297   2.560
14517WAT     H143793   6.277   7.293   2.517
14517WAT     H243794   6.422   7.368   2.516
14518WAT      O43795   5.636   3.786   0.513
14518WAT     H143796   5.559   3.725   0.533
14518WAT     H243797   5.623   3.873   0.559
14519WAT      O43798   4.311   2.910   0.459
14519WAT     H143799   4.287   2.826   0.508
14519WAT     H243800   4.380   2.889   0.389
14520WAT      O43801   6.303   5.642   2.518
14520WAT     H143802   6.292   5.729   2.566
14520WAT     H243803   6.373   5.653   2.447
14521WAT      O43804   9.354   0.894   5.809
14521WAT     H143805   9.314   0.864   5.723
14521WAT     H243806   9.329   0.989   5.827
14522WAT      O43807   0.009   9.192   7.227
14522WAT     H143808   0.004   9.290   7.205
14522WAT     H243809   0.102   9.168   7.253
14523WAT      O43810   3.002   4.599   2.727
14523WAT     H143811   3.019   4.698   2.725
14523WAT     H243812   3.024   4.559   2.638
14524WAT      O43813   9.155   1.366   7.137
14524WAT     H143814   9.167   1.271   7.166
14524WAT     H243815   9.189   1.427   7.208
14525WAT      O43816   5.980   3.498   7.634
14525WAT     H143817   5.990   3.399   7.638
14525WAT     H243818   6.051   3.541   7.691
14526WAT      O43819   7.215   9.715   5.606
14526WAT     H143820   7.222   9.763   5.519
14526WAT     H243821   7.299   9.662   5.622
14527WAT      O43822   4.845   2.974   7.968
14527WAT     H143823   4.908   2.943   7.897
14527WAT     H243824   4.838   2.904   8.039
14528WAT      O43825   6.234   3.451   0.489
14528WAT     H143826   6.174   3.528   0.468
14528WAT     H243827   6.266   3.410   0.404
14529WAT      O43828   2.785   6.626   3.515
14529WAT     H143829   2.829   6.547   3.472
14529WAT     H243830   2.726   6.594   3.589
14530WAT      O43831   1.589   2.526   7.754
14530WAT     H143832   1.626   2.468   7.682
14530WAT     H243833   1.506   2.571   7.721
14531WAT      O43834   6.697   0.074   9.096
14531WAT     H143835   6.717  -0.011   9.144
14531WAT     H243836   6.600   0.078   9.074
14532WAT      O43837   2.695   6.166   6.256
14532WAT     H143838   2.713   6.111   6.337
14532WAT     H243839   2.604   6.145   6.221
14533WAT      O43840   4.702   6.015   7.893
14533WAT     H143841   4.678   5.968   7.809
14533WAT     H243842   4.786   5.976   7.931
14534WAT      O43843   6.241   0.764   0.560
14534WAT     H143844   6.166   0.789   0.622
14534WAT     H243845   6.204   0.748   0.469
14535WAT      O43846   8.335   9.416   7.381
14535WAT     H143847   8.264   9.471   7.336
14535WAT     H243848   8.331   9.322   7.346
14536WAT      O43849   9.358   1.301   1.327
14536WAT     H143850   9.280   1.337   1.378
14536WAT     H243851   9.337   1.207   1.298
14537WAT      O43852   6.181   9.329   5.513
14537WAT     H143853   6.098   9.279   5.539
14537WAT     H243854   6.199   9.315   5.415
14538WAT      O43855   1.678   0.550   2.948
14538WAT     H143856   1.739   0.527   3.024
14538WAT     H243857   1.618   0.625   2.974
14539WAT      O43858   1.857   6.010   6.244
14539WAT     H143859   1.834   5.977   6.336
14539WAT     H243860   1.798   6.087   6.220
14540WAT      O43861   5.115   1.416   1.709
14540WAT     H143862   5.073   1.330   1.737
14540WAT     H243863   5.131   1.473   1.789
14541WAT      O43864   9.730   2.133   4.339
14541WAT     H143865   9.793   2.170   4.408
14541WAT     H243866   9.636   2.158   4.363
14542WAT      O43867   9.231   5.541   3.903
14542WAT     H143868   9.188   5.505   3.986
14542WAT     H243869   9.225   5.474   3.830
14543WAT      O43870   4.278   6.941   0.597
14543WAT     H143871   4.244   6.893   0.516
14543WAT     H243872   4.228   6.910   0.678
14544WAT      O43873   7.702   7.310   4.193
14544WAT     H143874   7.708   7.316   4.093
14544WAT     H243875   7.668   7.220   4.219
14545WAT      O43876   6.442   0.259   0.088
14545WAT     H143877   6.404   0.330   0.146
14545WAT     H243878   6.446   0.291  -0.007
14546WAT      O43879   2.965   7.382   9.046
14546WAT     H143880   2.883   7.328   9.065
14546WAT     H243881   2.943   7.452   8.977
14547WAT      O43882   4.723   8.900   1.740
14547WAT     H143883   4.644   8.947   1.781
14547WAT     H243884   4.792   8.968   1.715
14548WAT      O43885   6.639   6.983   8.110
14548WAT     H143886   6.689   7.047   8.169
14548WAT     H243887   6.543   7.008   8.107
14549WAT      O43888   7.058   9.692   8.196
14549WAT     H143889   7.060   9.609   8.252
14549WAT     H243890   7.146   9.738   8.202
14550WAT      O43891   4.797   8.805   9.801
14550WAT     H143892   4.851   8.724   9.778
14550WAT     H243893   4.851   8.865   9.860
14551WAT      O43894   3.786   7.422   0.346
14551WAT     H143895   3.798   7.448   0.250
14551WAT     H243896   3.828   7.491   0.405
14552WAT      O43897   9.795   0.057   7.915
14552WAT     H143898   9.867   0.025   7.853
14552WAT     H243899   9.710   0.070   7.864
14553WAT      O43900   6.998   9.380   4.638
14553WAT     H143901   7.038   9.295   4.673
14553WAT     H243902   7.026   9.456   4.696
14554WAT      O43903   0.658   0.962   1.523
14554WAT     H143904   0.698   0.910   1.598
14554WAT     H243905   0.708   1.048   1.511
14555WAT      O43906   1.585   1.552   2.372
14555WAT     H143907   1.676   1.590   2.355
14555WAT     H243908   1.543   1.527   2.284
14556WAT      O43909   0.704   9.756   4.373
14556WAT     H143910   0.781   9.764   4.437
14556WAT     H243911   0.626   9.714   4.420
14557WAT      O43912   8.762   5.729   1.106
14557WAT     H143913   8.716   5.640   1.111
14557WAT     H243914   8.712   5.790   1.045
14558WAT      O43915   2.822   6.548   8.943
14558WAT     H143916   2.907   6.576   8.987
14558WAT     H243917   2.811   6.449   8.951
14559WAT      O43918   4.912   8.765   3.026
14559WAT     H143919   4.904   8.811   2.937
14559WAT     H243920   4.964   8.681   3.014
14560WAT      O43921   7.490   2.869   9.207
14560WAT     H143922   7.448   2.790   9.253
14560WAT     H243923   7.545   2.920   9.273
14561WAT      O43924   4.927   9.249   1.722
14561WAT     H143925   4.832   9.265   1.749
14561WAT     H243926   4.981   9.331   1.742
14562WAT      O43927   7.802   6.293   6.893
14562WAT     H143928   7.882   6.235   6.907
14562WAT     H243929   7.830   6.382   6.858
14563WAT      O43930   5.011   4.432   1.332
14563WAT     H143931   4.932   4.377   1.307
14563WAT     H243932   4.981   4.522   1.363
14564WAT      O43933   7.300   5.070   7.286
14564WAT     H143934   7.384   5.120   7.304
14564WAT     H243935   7.224   5.113   7.334
14565WAT      O43936   8.417   5.835   4.886
14565WAT     H143937   8.344   5.794   4.942
14565WAT     H243938   8.425   5.932   4.908
14566WAT      O43939   9.083   6.125   3.059
14566WAT     H143940   9.127   6.059   2.998
14566WAT     H243941   9.145   6.202   3.074
14567WAT      O43942   1.743   7.886   5.159
14567WAT     H143943   1.759   7.894   5.257
14567WAT     H243944   1.698   7.970   5.126
14568WAT      O43945   1.261   9.431   8.967
14568WAT     H143946   1.181   9.372   8.956
14568WAT     H243947   1.339   9.377   8.999
14569WAT      O43948   1.518   8.762   0.291
14569WAT     H143949   1.430   8.788   0.331
14569WAT     H243950   1.504   8.689   0.225
14570WAT      O43951   0.466   8.344   4.555
14570WAT     H143952   0.385   8.387   4.594
14570WAT     H243953   0.536   8.413   4.537
14571WAT      O43954   6.623   9.749   1.143
14571WAT     H143955   6.652   9.773   1.050
14571WAT     H243956   6.547   9.807   1.171
14572WAT      O43957   5.104   9.515   4.979
14572WAT     H143958   5.067   9.606   4.996
14572WAT     H243959   5.204   9.516   4.992
14573WAT      O43960   9.884   2.904   1.128
14573WAT     H143961   9.923   2.813   1.144
14573WAT     H243962   9.875   2.920   1.030
14574WAT      O43963   2.283   6.513   7.392
14574WAT     H143964   2.269   6.562   7.306
14574WAT     H243965   2.270   6.576   7.469
14575WAT      O43966   0.070   2.218   5.748
14575WAT     H143967  -0.017   2.203   5.793
14575WAT     H243968   0.071   2.310   5.707
14576WAT      O43969   3.096   3.674   4.250
14576WAT     H143970   3.061   3.762   4.218
14576WAT     H243971   3.195   3.670   4.235
14577WAT      O43972   6.749   2.319   6.194
14577WAT     H143973   6.688   2.295   6.119
14577WAT     H243974   6.843   2.323   6.161
14578WAT      O43975   7.241   2.087   7.031
14578WAT     H143976   7.259   2.081   7.129
14578WAT     H243977   7.142   2.093   7.015
14579WAT      O43978   1.269   6.444   9.038
14579WAT     H143979   1.351   6.500   9.024
14579WAT     H243980   1.222   6.431   8.951
14580WAT      O43981   2.583   8.489   7.781
14580WAT     H143982   2.613   8.552   7.709
14580WAT     H243983   2.624   8.517   7.868
14581WAT      O43984   6.379   6.902   6.821
14581WAT     H143985   6.382   6.978   6.756
14581WAT     H243986   6.370   6.938   6.914
14582WAT      O43987   7.514   3.737   7.233
14582WAT     H143988   7.529   3.733   7.134
14582WAT     H243989   7.495   3.645   7.268
14583WAT      O43990   4.330   3.567   7.457
14583WAT     H143991   4.412   3.622   7.475
14583WAT     H243992   4.262   3.584   7.528
14584WAT      O43993   8.038   5.423   1.732
14584WAT     H143994   7.981   5.352   1.690
14584WAT     H243995   8.028   5.509   1.682
14585WAT      O43996   0.189   4.370   8.899
14585WAT     H143997   0.248   4.445   8.868
14585WAT     H243998   0.169   4.381   8.996
14586WAT      O43999   3.974   2.834   8.848
14586WAT     H144000   3.994   2.800   8.940
14586WAT     H244001   4.059   2.842   8.796
14587WAT      O44002   9.697   7.712   7.196
14587WAT     H144003   9.766   7.710   7.124
14587WAT     H244004   9.737   7.752   7.279
14588WAT      O44005   4.281   4.762   8.888
14588WAT     H144006   4.254   4.848   8.932
14588WAT     H244007   4.265   4.686   8.950
14589WAT      O44008   4.500   6.745   6.702
14589WAT     H144009   4.567   6.782   6.767
14589WAT     H244010   4.420   6.711   6.753
14590WAT      O44011   7.694   1.607   5.906
14590WAT     H144012   7.628   1.574   5.973
14590WAT     H244013   7.720   1.701   5.928
14591WAT      O44014   6.066   8.257   6.443
14591WAT     H144015   6.005   8.302   6.508
14591WAT     H244016   6.139   8.320   6.417
14592WAT      O44017   3.951   8.849   7.832
14592WAT     H144018   3.857   8.876   7.854
14592WAT     H244019   4.013   8.888   7.900
14593WAT      O44020   7.034   8.837   0.952
14593WAT     H144021   7.024   8.849   1.051
14593WAT     H244022   7.050   8.926   0.909
14594WAT      O44023   0.287   2.183   8.206
14594WAT     H144024   0.187   2.190   8.213
14594WAT     H244025   0.314   2.195   8.111
14595WAT      O44026   5.992   1.551   8.394
14595WAT     H144027   6.020   1.626   8.456
14595WAT     H244028   6.002   1.464   8.442
14596WAT      O44029   1.575   2.978   2.293
14596WAT     H144030   1.619   2.909   2.351
14596WAT     H244031   1.560   3.061   2.345
14597WAT      O44032   2.856   8.781   0.558
14597WAT     H144033   2.788   8.716   0.590
14597WAT     H244034   2.811   8.856   0.509
14598WAT      O44035   6.692   2.002   0.378
14598WAT     H144036   6.745   2.055   0.312
14598WAT     H244037   6.597   2.035   0.378
14599WAT      O44038   3.332   8.246   4.704
14599WAT     H144039   3.289   8.234   4.793
14599WAT     H244040   3.363   8.158   4.669
14600WAT      O44041   3.360   5.151   0.294
14600WAT     H144042   3.284   5.190   0.242
14600WAT     H244043   3.440   5.141   0.234
14601WAT      O44044   9.107   5.580   7.487
14601WAT     H144045   9.129   5.677   7.483
14601WAT     H244046   9.191   5.527   7.492
14602WAT      O44047   1.550   0.763   7.955
14602WAT     H144048   1.494   0.845   7.940
14602WAT     H244049   1.538   0.700   7.879
14603WAT      O44050   7.227   2.905   3.937
14603WAT     H144051   7.230   2.993   3.889
14603WAT     H244052   7.173   2.840   3.884
14604WAT      O44053   8.127   4.055   9.123
14604WAT     H144054   8.181   4.006   9.054
14604WAT     H244055   8.033   4.021   9.122
14605WAT      O44056   5.141   2.184   9.634
14605WAT     H144057   5.174   2.253   9.699
14605WAT     H244058   5.101   2.228   9.555
14606WAT      O44059   4.992   5.760   4.105
14606WAT     H144060   4.981   5.850   4.064
14606WAT     H244061   5.007   5.770   4.203
14607WAT      O44062   2.261   6.702   4.201
14607WAT     H144063   2.349   6.697   4.249
14607WAT     H244064   2.217   6.789   4.223
14608WAT      O44065   4.715   7.086   2.163
14608WAT     H144066   4.802   7.070   2.115
14608WAT     H244067   4.718   7.176   2.207
14609WAT      O44068   2.082   6.916   4.276
14609WAT     H144069   2.023   6.890   4.200
14609WAT     H244070   2.026   6.945   4.353
14610WAT      O44071   3.958   6.033   2.439
14610WAT     H144072   3.945   6.002   2.533
14610WAT     H244073   4.004   6.121   2.439
14611WAT      O44074   7.771   1.669   0.676
14611WAT     H144075   7.851   1.632   0.628
14611WAT     H244076   7.797   1.694   0.769
14612WAT      O44077   7.438   6.275   3.014
14612WAT     H144078   7.459   6.210   3.087
14612WAT     H244079   7.505   6.266   2.940
14613WAT      O44080   3.762   9.323   4.891
14613WAT     H144081   3.848   9.373   4.876
14613WAT     H244082   3.712   9.317   4.805
14614WAT      O44083   5.140   8.540   2.716
14614WAT     H144084   5.149   8.589   2.629
14614WAT     H244085   5.230   8.524   2.755
14615WAT      O44086   2.664   6.316   1.440
14615WAT     H144087   2.675   6.217   1.435
14615WAT     H244088   2.596   6.345   1.372
14616WAT      O44089   0.028   5.110   8.177
14616WAT     H144090   0.081   5.193   8.160
14616WAT     H244091   0.079   5.050   8.239
14617WAT      O44092   5.817   0.344   6.523
14617WAT     H144093   5.757   0.418   6.491
14617WAT     H244094   5.840   0.285   6.446
14618WAT      O44095   4.770   3.342   7.706
14618WAT     H144096   4.731   3.399   7.778
14618WAT     H244097   4.728   3.251   7.709
14619WAT      O44098   6.443   7.020   5.924
14619WAT     H144099   6.527   7.072   5.907
14619WAT     H244100   6.407   7.043   6.014
14620WAT      O44101   8.688   1.710   7.604
14620WAT     H144102   8.748   1.734   7.681
14620WAT     H244103   8.680   1.611   7.598
14621WAT      O44104   5.763   1.641   8.258
14621WAT     H144105   5.700   1.645   8.336
14621WAT     H244106   5.854   1.615   8.291
14622WAT      O44107   5.509   8.197   3.550
14622WAT     H144108   5.584   8.133   3.534
14622WAT     H244109   5.449   8.197   3.470
14623WAT      O44110   8.473   3.832   7.617
14623WAT     H144111   8.551   3.771   7.630
14623WAT     H244112   8.403   3.786   7.563
14624WAT      O44113   0.522   7.554   8.946
14624WAT     H144114   0.463   7.635   8.941
14624WAT     H244115   0.516   7.513   9.037
14625WAT      O44116   0.078   0.109   8.490
14625WAT     H144117   0.019   0.030   8.508
14625WAT     H244118   0.164   0.078   8.450
14626WAT      O44119   8.711   2.909   2.329
14626WAT     H144120   8.747   2.861   2.409
14626WAT     H244121   8.651   2.848   2.278
14627WAT      O44122   6.065   1.372   7.850
14627WAT     H144123   6.073   1.469   7.825
14627WAT     H244124   6.124   1.354   7.928
14628WAT      O44125   6.878   3.498   2.988
14628WAT     H144126   6.955   3.478   3.050
14628WAT     H244127   6.836   3.412   2.959
14629WAT      O44128   7.411   5.830   3.534
14629WAT     H144129   7.376   5.803   3.623
14629WAT     H244130   7.335   5.837   3.469
14630WAT      O44131   4.155   9.591   6.992
14630WAT     H144132   4.115   9.583   7.083
14630WAT     H244133   4.224   9.520   6.979
14631WAT      O44134   7.104   1.541   3.162
14631WAT     H144135   7.055   1.470   3.212
14631WAT     H244136   7.061   1.630   3.180
14632WAT      O44137   9.172   9.296   3.456
14632WAT     H144138   9.079   9.325   3.479
14632WAT     H244139   9.212   9.360   3.391
14633WAT      O44140   6.471   7.293   5.792
14633WAT     H144141   6.389   7.298   5.849
14633WAT     H244142   6.450   7.249   5.705
14634WAT      O44143   9.063   5.053   3.570
14634WAT     H144144   8.967   5.079   3.563
14634WAT     H244145   9.070   4.956   3.591
14635WAT      O44146   5.030   1.113   0.913
14635WAT     H144147   5.075   1.160   0.837
14635WAT     H244148   4.947   1.069   0.881
14636WAT      O44149   6.147   3.520   8.587
14636WAT     H144150   6.195   3.449   8.638
14636WAT     H244151   6.211   3.567   8.526
14637WAT      O44152   6.977   0.783   2.752
14637WAT     H144153   6.903   0.732   2.797
14637WAT     H244154   7.048   0.719   2.723
14638WAT      O44155   4.700   9.744   8.743
14638WAT     H144156   4.787   9.750   8.694
14638WAT     H244157   4.691   9.654   8.786
14639WAT      O44158   2.487   5.596   8.077
14639WAT     H144159   2.483   5.573   8.174
14639WAT     H244160   2.510   5.514   8.024
14640WAT      O44161   7.760   0.392   6.531
14640WAT     H144162   7.856   0.386   6.558
14640WAT     H244163   7.753   0.410   6.433
14641WAT      O44164   6.486   2.044   7.505
14641WAT     H144165   6.398   2.001   7.487
14641WAT     H244166   6.553   1.974   7.530
14642WAT      O44167   4.094   6.834   6.352
14642WAT     H144168   4.060   6.801   6.264
14642WAT     H244169   4.170   6.896   6.337
14643WAT      O44170   6.146   1.903   7.261
14643WAT     H144171   6.191   1.919   7.173
14643WAT     H244172   6.050   1.929   7.254
14644WAT      O44173   3.169   1.583   1.583
14644WAT     H144174   3.124   1.664   1.544
14644WAT     H244175   3.101   1.527   1.631
14645WAT      O44176   0.444   9.602   7.810
14645WAT     H144177   0.421   9.652   7.727
14645WAT     H244178   0.492   9.662   7.874
14646WAT      O44179   5.235   5.923   4.937
14646WAT     H144180   5.271   6.015   4.955
14646WAT     H244181   5.145   5.914   4.979
14647WAT      O44182   7.813   4.203   1.536
14647WAT     H144183   7.766   4.116   1.553
14647WAT     H244184   7.912   4.189   1.542
14648WAT      O44185   6.361   4.294   4.681
14648WAT     H144186   6.364   4.381   4.730
14648WAT     H244187   6.399   4.222   4.740
14649WAT      O44188   8.309   0.035   0.955
14649WAT     H144189   8.243  -0.037   0.931
14649WAT     H244190   8.302   0.055   1.053
14650WAT      O44191   9.271   3.495   0.173
14650WAT     H144192   9.309   3.583   0.143
14650WAT     H244193   9.286   3.485   0.272
14651WAT      O44194   6.232   2.700   7.375
14651WAT     H144195   6.163   2.715   7.445
14651WAT     H244196   6.197   2.636   7.307
14652WAT      O44197   3.478   6.955   1.921
14652WAT     H144198   3.486   6.940   2.019
14652WAT     H244199   3.391   7.000   1.901
14653WAT      O44200   9.797   3.224   9.705
14653WAT     H144201   9.886   3.183   9.683
14653WAT     H244202   9.772   3.290   9.634
14654WAT      O44203   0.592   3.924   7.857
14654WAT     H144204   0.534   3.873   7.793
14654WAT     H244205   0.636   3.999   7.809
14655WAT      O44206   6.193   0.822   1.992
14655WAT     H144207   6.130   0.899   1.978
14655WAT     H244208   6.252   0.812   1.913
14656WAT      O44209   7.940   8.951   9.404
14656WAT     H144210   7.954   9.025   9.469
14656WAT     H244211   8.026   8.928   9.358
14657WAT      O44212   9.709   5.091   5.888
14657WAT     H144213   9.674   4.998   5.874
14657WAT     H244214   9.643   5.158   5.854
14658WAT      O44215   3.475   9.082   8.703
14658WAT     H144216   3.428   9.024   8.769
14658WAT     H244217   3.555   9.033   8.667
14659WAT      O44218   6.588   1.770   4.095
14659WAT     H144219   6.579   1.866   4.068
14659WAT     H244220   6.657   1.763   4.167
14660WAT      O44221   8.985   1.226   6.064
14660WAT     H144222   8.978   1.319   6.101
14660WAT     H244223   9.011   1.163   6.137
14661WAT      O44224   6.653   4.991   5.070
14661WAT     H144225   6.751   4.975   5.063
14661WAT     H244226   6.631   5.084   5.040
14662WAT      O44227   2.991   6.724   2.616
14662WAT     H144228   2.973   6.801   2.678
14662WAT     H244229   2.976   6.752   2.522
14663WAT      O44230   2.518   4.286   5.648
14663WAT     H144231   2.435   4.233   5.662
14663WAT     H244232   2.588   4.260   5.715
14664WAT      O44233   5.128   2.735   5.084
14664WAT     H144234   5.222   2.763   5.102
14664WAT     H244235   5.101   2.769   4.994
14665WAT      O44236   1.988   4.046   5.055
14665WAT     H144237   1.955   4.129   5.010
14665WAT     H244238   2.088   4.048   5.060
14666WAT      O44239   5.552   8.616   9.562
14666WAT     H144240   5.599   8.660   9.639
14666WAT     H244241   5.458   8.594   9.589
14667WAT      O44242   1.075   1.490   2.408
14667WAT     H144243   1.081   1.404   2.459
14667WAT     H244244   0.998   1.485   2.344
14668WAT      O44245   4.216   3.071   0.674
14668WAT     H144246   4.272   3.014   0.614
14668WAT     H244247   4.133   3.022   0.700
14669WAT      O44248   3.156   3.273   1.405
14669WAT     H144249   3.173   3.249   1.501
14669WAT     H244250   3.240   3.311   1.365
14670WAT      O44251   6.992   3.569   0.799
14670WAT     H144252   6.906   3.615   0.775
14670WAT     H244253   6.998   3.483   0.750
14671WAT      O44254   5.813   2.532   9.720
14671WAT     H144255   5.736   2.469   9.717
14671WAT     H244256   5.803   2.594   9.799
14672WAT      O44257   7.984   9.008   4.739
14672WAT     H144258   7.932   8.978   4.820
14672WAT     H244259   7.938   9.087   4.699
14673WAT      O44260   3.792   0.171   9.102
14673WAT     H144261   3.730   0.158   9.179
14673WAT     H244262   3.806   0.084   9.055
14674WAT      O44263   1.464   7.482   3.712
14674WAT     H144264   1.527   7.413   3.749
14674WAT     H244265   1.393   7.437   3.658
14675WAT      O44266   5.905   3.787   0.454
14675WAT     H144267   5.816   3.795   0.497
14675WAT     H244268   5.908   3.704   0.397
14676WAT      O44269   8.937   2.998   4.125
14676WAT     H144270   8.920   2.938   4.203
14676WAT     H244271   8.952   3.091   4.157
14677WAT      O44272   9.632   1.130   8.708
14677WAT     H144273   9.659   1.224   8.689
14677WAT     H244274   9.532   1.123   8.704
14678WAT      O44275   2.680   3.869   3.464
14678WAT     H144276   2.681   3.784   3.516
14678WAT     H244277   2.586   3.897   3.448
14679WAT      O44278   6.251   5.466   0.452
14679WAT     H144279   6.227   5.497   0.360
14679WAT     H244280   6.225   5.536   0.519
14680WAT      O44281   0.756   2.840   1.674
14680WAT     H144282   0.703   2.844   1.589
14680WAT     H244283   0.850   2.867   1.656
14681WAT      O44284   1.527   4.519   2.108
14681WAT     H144285   1.560   4.425   2.112
14681WAT     H244286   1.427   4.519   2.115
14682WAT      O44287   1.832   7.484   8.186
14682WAT     H144288   1.905   7.431   8.228
14682WAT     H244289   1.842   7.581   8.211
14683WAT      O44290   6.157   2.199   5.361
14683WAT     H144291   6.101   2.281   5.359
14683WAT     H244292   6.242   2.218   5.411
14684WAT      O44293   2.611   2.440   2.893
14684WAT     H144294   2.593   2.533   2.926
14684WAT     H244295   2.703   2.413   2.921
14685WAT      O44296   3.078   4.082   9.768
14685WAT     H144297   3.023   4.112   9.690
14685WAT     H244298   3.170   4.120   9.760
14686WAT      O44299   1.637   5.197   5.212
14686WAT     H144300   1.730   5.207   5.248
14686WAT     H244301   1.640   5.152   5.123
14687WAT      O44302   7.580   2.432   6.450
14687WAT     H144303   7.642   2.509   6.433
14687WAT     H244304   7.630   2.359   6.496
14688WAT      O44305   9.823   6.045   4.024
14688WAT     H144306   9.783   6.031   3.934
14688WAT     H244307   9.889   5.973   4.043
14689WAT      O44308   0.965   6.492   9.626
14689WAT     H144309   0.975   6.474   9.528
14689WAT     H244310   0.879   6.540   9.642
14690WAT      O44311   5.981   8.330   2.108
14690WAT     H144312   6.040   8.255   2.082
14690WAT     H244313   5.885   8.301   2.102
14691WAT      O44314   1.351   7.976   8.778
14691WAT     H144315   1.300   7.919   8.714
14691WAT     H244316   1.445   7.987   8.745
14692WAT      O44317   2.054   6.325   1.669
14692WAT     H144318   2.023   6.230   1.671
14692WAT     H244319   1.975   6.386   1.662
14693WAT      O44320   5.812   6.498   8.283
14693WAT     H144321   5.866   6.577   8.253
14693WAT     H244322   5.732   6.529   8.334
14694WAT      O44323   5.760   0.618   2.286
14694WAT     H144324   5.662   0.616   2.266
14694WAT     H244325   5.809   0.660   2.210
14695WAT      O44326   3.048   6.237   5.204
14695WAT     H144327   3.006   6.182   5.132
14695WAT     H244328   2.978   6.290   5.252
14696WAT      O44329   0.340   5.849   7.455
14696WAT     H144330   0.359   5.862   7.358
14696WAT     H244331   0.407   5.899   7.509
14697WAT      O44332   6.510   5.855   3.717
14697WAT     H144333   6.496   5.769   3.670
14697WAT     H244334   6.422   5.900   3.733
14698WAT      O44335   0.369   5.362   7.975
14698WAT     H144336   0.453   5.343   8.026
14698WAT     H244337   0.351   5.460   7.975
14699WAT      O44338   6.393   6.558   1.207
14699WAT     H144339   6.402   6.645   1.255
14699WAT     H244340   6.297   6.531   1.205
14700WAT      O44341   4.141   9.187   9.302
14700WAT     H144342   4.043   9.171   9.300
14700WAT     H244343   4.188   9.099   9.316
14701WAT      O44344   7.174   0.349   6.702
14701WAT     H144345   7.186   0.438   6.744
14701WAT     H244346   7.256   0.294   6.716
14702WAT      O44347   8.730   0.969   0.293
14702WAT     H144348   8.721   0.988   0.391
14702WAT     H244349   8.825   0.979   0.266
14703WAT      O44350   6.412   9.539   2.462
14703WAT     H144351   6.403   9.441   2.474
14703WAT     H244352   6.506   9.567   2.484
14704WAT      O44353   9.134   6.382   5.048
14704WAT     H144354   9.164   6.318   5.118
14704WAT     H244355   9.169   6.473   5.068
14705WAT      O44356   3.373   2.727   5.671
14705WAT     H144357   3.275   2.725   5.651
14705WAT     H244358   3.424   2.692   5.592
14706WAT      O44359   5.180   7.671   3.732
14706WAT     H144360   5.212   7.583   3.766
14706WAT     H244361   5.172   7.668   3.632
14707WAT      O44362   5.031   6.375   8.981
14707WAT     H144363   5.026   6.327   9.069
14707WAT     H244364   4.944   6.421   8.964
14708WAT      O44365   2.294   4.003   5.030
14708WAT     H144366   2.278   3.919   5.083
14708WAT     H244367   2.297   3.981   4.933
14709WAT      O44368   9.228   4.146   5.903
14709WAT     H144369   9.200   4.233   5.862
14709WAT     H244370   9.235   4.157   6.002
14710WAT      O44371   9.182   3.580   8.129
14710WAT     H144372   9.193   3.666   8.179
14710WAT     H244373   9.271   3.535   8.121
14711WAT      O44374   9.232   0.541   5.683
14711WAT     H144375   9.285   0.516   5.764
14711WAT     H244376   9.144   0.495   5.686
14712WAT      O44377   8.649   0.569   1.164
14712WAT     H144378   8.591   0.646   1.135
14712WAT     H244379   8.591   0.489   1.181
14713WAT      O44380   9.341   1.599   0.988
14713WAT     H144381   9.379   1.559   0.905
14713WAT     H244382   9.416   1.627   1.048
14714WAT      O44383   2.711   2.740   6.470
14714WAT     H144384   2.794   2.692   6.496
14714WAT     H244385   2.631   2.687   6.499
14715WAT      O44386   5.378   2.141   6.971
14715WAT     H144387   5.473   2.158   6.998
14715WAT     H244388   5.327   2.106   7.050
14716WAT      O44389   1.771   2.015   0.440
14716WAT     H144390   1.756   2.099   0.492
14716WAT     H244391   1.838   2.033   0.368
14717WAT      O44392   7.345   1.804   8.684
14717WAT     H144393   7.246   1.809   8.674
14717WAT     H244394   7.386   1.893   8.665
14718WAT      O44395   2.606   1.954   8.889
14718WAT     H144396   2.700   1.960   8.855
14718WAT     H244397   2.572   2.046   8.910
14719WAT      O44398   0.455   6.552   0.287
14719WAT     H144399   0.392   6.474   0.281
14719WAT     H244400   0.408   6.635   0.257
14720WAT      O44401   7.381   9.779   0.092
14720WAT     H144402   7.365   9.770   0.190
14720WAT     H244403   7.303   9.744   0.042
14721WAT      O44404   7.215   2.464   4.280
14721WAT     H144405   7.198   2.527   4.205
14721WAT     H244406   7.128   2.442   4.324
14722WAT      O44407   1.171   6.742   4.042
14722WAT     H144408   1.127   6.719   3.955
14722WAT     H244409   1.138   6.832   4.072
14723WAT      O44410   5.314   9.500   9.063
14723WAT     H144411   5.376   9.565   9.107
14723WAT     H244412   5.361   9.455   8.987
14724WAT      O44413   0.260   7.449   0.167
14724WAT     H144414   0.209   7.507   0.231
14724WAT     H244415   0.273   7.359   0.207
14725WAT      O44416   0.792   4.555   4.528
14725WAT     H144417   0.705   4.552   4.481
14725WAT     H244418   0.786   4.618   4.605
14726WAT      O44419   5.423   9.355   2.879
14726WAT     H144420   5.331   9.368   2.841
14726WAT     H244421   5.425   9.269   2.931
14727WAT      O44422   2.394   2.659   0.683
14727WAT     H144423   2.345   2.686   0.600
14727WAT     H244424   2.462   2.590   0.660
14728WAT      O44425   7.565   3.249   9.251
14728WAT     H144426   7.468   3.274   9.253
14728WAT     H244427   7.580   3.169   9.309
14729WAT      O44428   0.336   9.747   6.111
14729WAT     H144429   0.419   9.801   6.123
14729WAT     H244430   0.276   9.760   6.190
14730WAT      O44431   9.545   8.861   2.480
14730WAT     H144432   9.560   8.926   2.555
14730WAT     H244433   9.468   8.801   2.502
14731WAT      O44434   6.698   5.420   0.974
14731WAT     H144435   6.634   5.461   0.909
14731WAT     H244436   6.763   5.363   0.925
14732WAT      O44437   4.432   1.268   2.539
14732WAT     H144438   4.503   1.267   2.468
14732WAT     H244439   4.364   1.338   2.517
14733WAT      O44440   0.676   8.330   9.739
14733WAT     H144441   0.680   8.404   9.673
14733WAT     H244442   0.719   8.359   9.825
14734WAT      O44443   4.937   2.023   7.236
14734WAT     H144444   4.909   2.077   7.157
14734WAT     H244445   5.029   2.051   7.264
14735WAT      O44446   5.338   2.228   1.673
14735WAT     H144447   5.384   2.316   1.662
14735WAT     H244448   5.239   2.240   1.667
14736WAT      O44449   2.224   8.084   3.808
14736WAT     H144450   2.129   8.112   3.796
14736WAT     H244451   2.228   8.004   3.868
14737WAT      O44452   0.832   5.791   8.740
14737WAT     H144453   0.734   5.775   8.751
14737WAT     H244454   0.876   5.709   8.704
14738WAT      O44455   0.204   0.433   9.687
14738WAT     H144456   0.254   0.405   9.769
14738WAT     H244457   0.154   0.355   9.650
14739WAT      O44458   2.594   6.866   2.814
14739WAT     H144459   2.597   6.887   2.716
14739WAT     H244460   2.528   6.793   2.829
14740WAT      O44461   8.042   5.300   6.491
14740WAT     H144462   8.061   5.221   6.433
14740WAT     H244463   8.116   5.312   6.558
14741WAT      O44464   9.142   6.659   1.159
14741WAT     H144465   9.056   6.627   1.119
14741WAT     H244466   9.140   6.641   1.258
14742WAT      O44467   4.295   5.126   8.962
14742WAT     H144468   4.276   5.199   9.027
14742WAT     H244469   4.244   5.142   8.877
14743WAT      O44470   8.924   6.012   5.395
14743WAT     H144471   8.984   6.031   5.473
14743WAT     H244472   8.941   5.919   5.362
14744WAT      O44473   6.101   7.616   1.268
14744WAT     H144474   6.155   7.669   1.334
14744WAT     H244475   6.028   7.568   1.317
14745WAT      O44476   0.940   2.242   7.821
14745WAT     H144477   1.012   2.173   7.824
14745WAT     H244478   0.974   2.328   7.859
14746WAT      O44479   4.914   1.514   4.601
14746WAT     H144480   4.985   1.443   4.611
14746WAT     H244481   4.954   1.596   4.560
14747WAT      O44482   9.697   4.519   8.304
14747WAT     H144483   9.785   4.511   8.257
14747WAT     H244484   9.641   4.438   8.284
14748WAT      O44485   5.400   3.129   4.871
14748WAT     H144486   5.476   3.194   4.874
14748WAT     H244487   5.314   3.177   4.887
14749WAT      O44488   9.221   2.778   6.565
14749WAT     H144489   9.199   2.842   6.639
14749WAT     H244490   9.164   2.798   6.486
14750WAT      O44491   6.123   6.082   2.701
14750WAT     H144492   6.135   6.166   2.648
14750WAT     H244493   6.026   6.058   2.702
14751WAT      O44494   6.743   7.646   4.227
14751WAT     H144495   6.813   7.631   4.157
14751WAT     H244496   6.784   7.691   4.306
14752WAT      O44497   6.973   1.421   2.831
14752WAT     H144498   6.980   1.504   2.886
14752WAT     H244499   6.929   1.348   2.884
14753WAT      O44500   6.698   1.769   9.706
14753WAT     H144501   6.680   1.866   9.694
14753WAT     H244502   6.704   1.748   9.804
14754WAT      O44503   1.118   2.371   6.717
14754WAT     H144504   1.115   2.302   6.646
14754WAT     H244505   1.047   2.353   6.785
14755WAT      O44506   7.496   9.053   9.670
14755WAT     H144507   7.471   9.102   9.753
14755WAT     H244508   7.514   9.118   9.596
14756WAT      O44509   0.376   4.605   8.554
14756WAT     H144510   0.407   4.543   8.483
14756WAT     H244511   0.403   4.699   8.531
14757WAT      O44512   3.489   2.571   0.349
14757WAT     H144513   3.526   2.522   0.270
14757WAT     H244514   3.525   2.664   0.350
14758WAT      O44515   3.713   7.457   0.064
14758WAT     H144516   3.711   7.361   0.035
14758WAT     H244517   3.774   7.508   0.003
14759WAT      O44518   6.810   9.082   4.047
14759WAT     H144519   6.757   9.078   4.132
14759WAT     H244520   6.792   9.000   3.993
14760WAT      O44521   4.165   9.283   2.706
14760WAT     H144522   4.070   9.263   2.727
14760WAT     H244523   4.222   9.205   2.732
14761WAT      O44524   5.453   3.415   3.356
14761WAT     H144525   5.427   3.383   3.264
14761WAT     H244526   5.372   3.451   3.403
14762WAT      O44527   5.584   9.555   5.316
14762WAT     H144528   5.594   9.505   5.229
14762WAT     H244529   5.616   9.498   5.391
14763WAT      O44530   1.486   9.396   0.207
14763WAT     H144531   1.465   9.410   0.110
14763WAT     H244532   1.473   9.300   0.230
14764WAT      O44533   1.896   8.019   5.907
14764WAT     H144534   1.802   8.045   5.887
14764WAT     H244535   1.936   7.974   5.828
14765WAT      O44536   0.956   4.285   2.657
14765WAT     H144537   0.995   4.205   2.703
14765WAT     H244538   1.027   4.329   2.603
14766WAT      O44539   2.684   6.533   9.751
14766WAT     H144540   2.584   6.529   9.749
14766WAT     H244541   2.713   6.605   9.814
14767WAT      O44542   2.505   7.152   9.273
14767WAT     H144543   2.604   7.143   9.281
14767WAT     H244544   2.480   7.149   9.176
14768WAT      O44545   0.797   4.045   6.479
14768WAT     H144546   0.799   3.955   6.522
14768WAT     H244547   0.883   4.061   6.431
14769WAT      O44548   5.374   1.317   6.917
14769WAT     H144549   5.469   1.286   6.929
14769WAT     H244550   5.316   1.274   6.986
14770WAT      O44551   0.501   7.041   6.001
14770WAT     H144552   0.432   7.014   6.068
14770WAT     H244553   0.590   7.003   6.027
14771WAT      O44554   8.709   6.946   0.800
14771WAT     H144555   8.805   6.945   0.775
14771WAT     H244556   8.654   6.915   0.723
14772WAT      O44557   9.746   5.761   1.659
14772WAT     H144558   9.808   5.831   1.694
14772WAT     H244559   9.653   5.798   1.655
14773WAT      O44560   1.788   3.259   1.736
14773WAT     H144561   1.703   3.247   1.787
14773WAT     H244562   1.853   3.187   1.761
14774WAT      O44563   6.535   8.358   7.566
14774WAT     H144564   6.528   8.454   7.539
14774WAT     H244565   6.539   8.301   7.484
14775WAT      O44566   2.723   2.077   3.059
14775WAT     H144567   2.785   2.002   3.038
14775WAT     H244568   2.764   2.136   3.130
14776WAT      O44569   0.283   9.235   0.582
14776WAT     H144570   0.245   9.268   0.495
14776WAT     H244571   0.209   9.192   0.635
14777WAT      O44572   3.524   1.281   0.388
14777WAT     H144573   3.518   1.336   0.305
14777WAT     H244574   3.432   1.268   0.426
14778WAT      O44575   0.949   2.166   7.292
14778WAT     H144576   1.006   2.223   7.232
14778WAT     H244577   0.982   2.072   7.290
14779WAT      O44578   8.305   9.674   0.473
14779WAT     H144579   8.225   9.684   0.531
14779WAT     H244580   8.279   9.633   0.385
14780WAT      O44581   5.238   4.813   4.927
14780WAT     H144582   5.279   4.872   4.858
14780WAT     H244583   5.221   4.865   5.010
14781WAT      O44584   9.488   2.545   8.744
14781WAT     H144585   9.511   2.449   8.728
14781WAT     H244586   9.553   2.584   8.810
14782WAT      O44587   3.900   5.022   1.195
14782WAT     H144588   3.981   5.028   1.253
14782WAT     H244589   3.855   5.111   1.192
14783WAT      O44590   9.679   4.931   6.979
14783WAT     H144591   9.741   4.977   6.916
14783WAT     H244592   9.726   4.914   7.065
14784WAT      O44593   9.413   9.665   3.718
14784WAT     H144594   9.323   9.628   3.697
14784WAT     H244595   9.439   9.730   3.646
14785WAT      O44596   6.461   7.022   0.169
14785WAT     H144597   6.480   6.960   0.093
14785WAT     H244598   6.540   7.026   0.229
14786WAT      O44599   0.325   2.018   4.275
14786WAT     H144600   0.234   1.976   4.276
14786WAT     H244601   0.365   2.012   4.366
14787WAT      O44602   0.757   1.283   2.587
14787WAT     H144603   0.777   1.380   2.575
14787WAT     H244604   0.662   1.265   2.562
14788WAT      O44605   0.963   1.083   5.752
14788WAT     H144606   1.059   1.063   5.733
14788WAT     H244607   0.951   1.102   5.849
14789WAT      O44608   9.305   3.295   1.420
14789WAT     H144609   9.242   3.327   1.349
14789WAT     H244610   9.349   3.211   1.388
14790WAT      O44611   5.260   6.098   4.306
14790WAT     H144612   5.219   6.060   4.389
14790WAT     H244613   5.359   6.091   4.311
14791WAT      O44614   6.829   9.540   3.510
14791WAT     H144615   6.918   9.511   3.544
14791WAT     H244616   6.837   9.565   3.413
14792WAT      O44617   4.360   3.172   6.907
14792WAT     H144618   4.357   3.245   6.975
14792WAT     H244619   4.282   3.111   6.921
14793WAT      O44620   6.309   4.791   8.332
14793WAT     H144621   6.301   4.692   8.322
14793WAT     H244622   6.218   4.832   8.328
14794WAT      O44623   3.320   7.877   2.384
14794WAT     H144624   3.373   7.794   2.367
14794WAT     H244625   3.226   7.852   2.409
14795WAT      O44626   5.700   4.087   9.776
14795WAT     H144627   5.719   4.050   9.867
14795WAT     H244628   5.757   4.041   9.709
14796WAT      O44629   8.693   1.461   4.203
14796WAT     H144630   8.634   1.528   4.247
14796WAT     H244631   8.778   1.504   4.175
14797WAT      O44632   8.368   0.393   4.159
14797WAT     H144633   8.343   0.466   4.222
14797WAT     H244634   8.409   0.317   4.210
14798WAT      O44635   7.143   4.894   9.365
14798WAT     H144636   7.204   4.972   9.353
14798WAT     H244637   7.065   4.902   9.302
14799WAT      O44638   0.859   8.661   0.618
14799WAT     H144639   0.897   8.751   0.640
14799WAT     H244640   0.828   8.616   0.702
14800WAT      O44641   1.642   6.024   0.157
14800WAT     H144642   1.666   5.999   0.251
14800WAT     H244643   1.646   5.942   0.099
14801WAT      O44644   5.869   4.272   2.500
14801WAT     H144645   5.900   4.180   2.477
14801WAT     H244646   5.886   4.334   2.423
14802WAT      O44647   5.508   0.304   7.591
14802WAT     H144648   5.425   0.347   7.556
14802WAT     H244649   5.553   0.254   7.516
14803WAT      O44650   6.361   9.704   4.124
14803WAT     H144651   6.279   9.682   4.070
14803WAT     H244652   6.442   9.685   4.069
14804WAT      O44653   6.594   1.038   0.062
14804WAT     H144654   6.678   1.092   0.063
14804WAT     H244655   6.613   0.948   0.023
14805WAT      O44656   4.641   0.439   5.569
14805WAT     H144657   4.595   0.528   5.564
14805WAT     H244658   4.737   0.450   5.543
14806WAT      O44659   5.826   8.067   5.057
14806WAT     H144660   5.754   8.035   5.120
14806WAT     H244661   5.854   8.159   5.083
14807WAT      O44662   4.096   0.845   6.966
14807WAT     H144663   4.195   0.851   6.965
14807WAT     H244664   4.057   0.911   6.902
14808WAT      O44665   6.150   7.878   0.307
14808WAT     H144666   6.112   7.803   0.360
14808WAT     H244667   6.161   7.959   0.365
14809WAT      O44668   7.299   4.296   0.416
14809WAT     H144669   7.369   4.233   0.383
14809WAT     H244670   7.251   4.254   0.493
14810WAT      O44671   1.293   3.878   2.300
14810WAT     H144672   1.304   3.820   2.380
14810WAT     H244673   1.198   3.875   2.269
14811WAT      O44674   1.830   3.316   0.401
14811WAT     H144675   1.850   3.349   0.493
14811WAT     H244676   1.870   3.225   0.389
14812WAT      O44677   0.339   5.347   6.396
14812WAT     H144678   0.275   5.364   6.320
14812WAT     H244679   0.409   5.282   6.367
14813WAT      O44680   7.635   5.412   6.608
14813WAT     H144681   7.586   5.470   6.673
14813WAT     H244682   7.733   5.428   6.615
14814WAT      O44683   3.019   2.900   4.199
14814WAT     H144684   3.030   2.832   4.127
14814WAT     H244685   2.949   2.966   4.173
14815WAT      O44686   5.152   6.280   5.055
14815WAT     H144687   5.179   6.372   5.084
14815WAT     H244688   5.196   6.212   5.115
14816WAT      O44689   7.193   5.890   4.292
14816WAT     H144690   7.156   5.933   4.374
14816WAT     H244691   7.167   5.793   4.291
14817WAT      O44692   5.106   8.764   5.434
14817WAT     H144693   5.030   8.829   5.440
14817WAT     H244694   5.190   8.809   5.466
14818WAT      O44695   5.324   2.759   4.593
14818WAT     H144696   5.352   2.674   4.637
14818WAT     H244697   5.304   2.742   4.496
14819WAT      O44698   6.916   2.451   0.142
14819WAT     H144699   6.855   2.425   0.217
14819WAT     H244700   6.921   2.551   0.137
14820WAT      O44701   5.045   0.270   6.101
14820WAT     H144702   4.962   0.247   6.150
14820WAT     H244703   5.022   0.301   6.009
14821WAT      O44704   4.919   0.628   5.863
14821WAT     H144705   4.907   0.540   5.816
14821WAT     H244706   5.005   0.626   5.914
14822WAT      O44707   3.759   2.970   7.356
14822WAT     H144708   3.774   2.873   7.373
14822WAT     H244709   3.732   3.015   7.441
14823WAT      O44710   5.702   3.919   2.045
14823WAT     H144711   5.769   3.845   2.053
14823WAT     H244712   5.655   3.931   2.132
14824WAT      O44713   1.413   8.588   2.215
14824WAT     H144714   1.323   8.582   2.259
14824WAT     H244715   1.470   8.653   2.265
14825WAT      O44716   8.424   2.812   7.657
14825WAT     H144717   8.387   2.887   7.712
14825WAT     H244718   8.363   2.733   7.663
14826WAT      O44719   2.201   6.660   5.171
14826WAT     H144720   2.110   6.620   5.179
14826WAT     H244721   2.268   6.599   5.212
14827WAT      O44722   6.649   9.068   0.865
14827WAT     H144723   6.619   9.013   0.787
14827WAT     H244724   6.574   9.127   0.895
14828WAT      O44725   6.882   0.111   3.260
14828WAT     H144726   6.917   0.205   3.253
14828WAT     H244727   6.782   0.113   3.264
14829WAT      O44728   8.035   8.695   9.212
14829WAT     H144729   8.034   8.773   9.150
14829WAT     H244730   7.951   8.694   9.266
14830WAT      O44731   8.762   6.475   4.143
14830WAT     H144732   8.819   6.487   4.224
14830WAT     H244733   8.684   6.416   4.165
14831WAT      O44734   1.430   5.763   0.077
14831WAT     H144735   1.361   5.756   0.148
14831WAT     H244736   1.386   5.790  -0.009
14832WAT      O44737   0.109   1.945   0.597
14832WAT     H144738   0.064   1.856   0.589
14832WAT     H244739   0.040   2.017   0.599
14833WAT      O44740   1.826   9.140   9.435
14833WAT     H144741   1.773   9.059   9.460
14833WAT     H244742   1.828   9.203   9.513
14834WAT      O44743   2.205   6.353   6.379
14834WAT     H144744   2.111   6.389   6.375
14834WAT     H244745   2.245   6.374   6.468
14835WAT      O44746   3.255   2.883   4.494
14835WAT     H144747   3.156   2.885   4.484
14835WAT     H244748   3.297   2.943   4.426
14836WAT      O44749   7.355   7.310   8.879
14836WAT     H144750   7.268   7.263   8.884
14836WAT     H244751   7.410   7.271   8.804
14837WAT      O44752   7.113   2.516   9.170
14837WAT     H144753   7.175   2.443   9.139
14837WAT     H244754   7.142   2.548   9.260
14838WAT      O44755   3.420   6.347   2.940
14838WAT     H144756   3.507   6.365   2.895
14838WAT     H244757   3.353   6.317   2.873
14839WAT      O44758   9.267   3.645   3.161
14839WAT     H144759   9.338   3.678   3.223
14839WAT     H244760   9.183   3.627   3.213
14840WAT      O44761   3.257   7.033   4.189
14840WAT     H144762   3.294   7.091   4.117
14840WAT     H244763   3.208   7.089   4.256
14841WAT      O44764   8.465   9.072   3.231
14841WAT     H144765   8.534   9.136   3.198
14841WAT     H244766   8.419   9.029   3.153
14842WAT      O44767   0.905   4.788   5.562
14842WAT     H144768   0.980   4.820   5.504
14842WAT     H244769   0.914   4.829   5.653
14843WAT      O44770   3.925   6.182   0.653
14843WAT     H144771   4.001   6.232   0.612
14843WAT     H244772   3.839   6.218   0.617
14844WAT      O44773   0.661   8.626   1.305
14844WAT     H144774   0.608   8.700   1.263
14844WAT     H244775   0.600   8.570   1.361
14845WAT      O44776   9.862   5.932   7.832
14845WAT     H144777   9.831   5.848   7.876
14845WAT     H244778   9.845   6.010   7.892
14846WAT      O44779   6.435   4.279   9.212
14846WAT     H144780   6.515   4.299   9.155
14846WAT     H244781   6.352   4.289   9.157
14847WAT      O44782   6.326   6.705   6.673
14847WAT     H144783   6.331   6.726   6.576
14847WAT     H244784   6.362   6.783   6.726
14848WAT      O44785   0.599   7.853   6.883
14848WAT     H144786   0.530   7.790   6.918
14848WAT     H244787   0.569   7.892   6.797
14849WAT      O44788   1.845   9.332   5.430
14849WAT     H144789   1.790   9.375   5.502
14849WAT     H244790   1.863   9.399   5.358
14850WAT      O44791   5.474   7.750   2.825
14850WAT     H144792   5.413   7.808   2.770
14850WAT     H244793   5.470   7.656   2.790
14851WAT      O44794   4.343   4.088   7.120
14851WAT     H144795   4.289   4.140   7.054
14851WAT     H244796   4.437   4.080   7.088
14852WAT      O44797   6.816   9.752   1.847
14852WAT     H144798   6.755   9.758   1.769
14852WAT     H244799   6.901   9.801   1.827
14853WAT      O44800   1.863   6.190   6.555
14853WAT     H144801   1.927   6.115   6.535
14853WAT     H244802   1.769   6.159   6.541
14854WAT      O44803   6.583   6.820   1.308
14854WAT     H144804   6.490   6.794   1.332
14854WAT     H244805   6.644   6.797   1.384
14855WAT      O44806   2.887   7.206   2.288
14855WAT     H144807   2.909   7.178   2.381
14855WAT     H244808   2.972   7.222   2.237
14856WAT      O44809   7.131   1.988   3.643
14856WAT     H144810   7.072   1.946   3.713
14856WAT     H244811   7.219   2.012   3.684
14857WAT      O44812   5.246   9.698   4.159
14857WAT     H144813   5.332   9.720   4.111
14857WAT     H244814   5.263   9.625   4.225
14858WAT      O44815   7.279   2.785   7.385
14858WAT     H144816   7.354   2.719   7.390
14858WAT     H244817   7.269   2.817   7.291
14859WAT      O44818   6.060   2.469   7.849
14859WAT     H144819   5.985   2.508   7.901
14859WAT     H244820   6.026   2.437   7.761
14860WAT      O44821   7.879   8.436   6.615
14860WAT     H144822   7.936   8.512   6.646
14860WAT     H244823   7.903   8.353   6.665
14861WAT      O44824   0.181   8.804   4.324
14861WAT     H144825   0.135   8.723   4.287
14861WAT     H244826   0.114   8.875   4.343
14862WAT      O44827   1.725   6.412   0.358
14862WAT     H144828   1.771   6.356   0.289
14862WAT     H244829   1.778   6.496   0.373
14863WAT      O44830   8.324   0.767   4.058
14863WAT     H144831   8.360   0.840   4.117
14863WAT     H244832   8.371   0.770   3.970
14864WAT      O44833   5.513   2.164   9.864
14864WAT     H144834   5.511   2.241   9.928
14864WAT     H244835   5.420   2.134   9.845
14865WAT      O44836   6.730   4.981   5.506
14865WAT     H144837   6.695   5.068   5.470
14865WAT     H244838   6.682   4.958   5.590
14866WAT      O44839   8.303   6.187   7.966
14866WAT     H144840   8.234   6.181   7.894
14866WAT     H244841   8.366   6.263   7.945
14867WAT      O44842   8.012   2.388   8.033
14867WAT     H144843   8.029   2.331   8.114
14867WAT     H244844   7.947   2.461   8.057
14868WAT      O44845   6.136   3.113   0.757
14868WAT     H144846   6.041   3.139   0.775
14868WAT     H244847   6.190   3.122   0.841
14869WAT      O44848   1.227   1.995   8.864
14869WAT     H144849   1.272   1.959   8.782
14869WAT     H244850   1.232   1.928   8.938
14870WAT      O44851   9.648   6.541   8.963
14870WAT     H144852   9.711   6.473   8.926
14870WAT     H244853   9.560   6.536   8.916
14871WAT      O44854   8.739   6.078   7.274
14871WAT     H144855   8.677   6.023   7.219
14871WAT     H244856   8.697   6.166   7.294
14872WAT      O44857   7.765   0.335   9.852
14872WAT     H144858   7.694   0.361   9.787
14872WAT     H244859   7.764   0.397   9.930
14873WAT      O44860   3.306   6.888   0.133
14873WAT     H144861   3.377   6.958   0.142
14873WAT     H244862   3.315   6.842   0.045
14874WAT      O44863   6.152   1.578   5.719
14874WAT     H144864   6.058   1.584   5.752
14874WAT     H244865   6.213   1.626   5.781
14875WAT      O44866   6.936   0.496   7.681
14875WAT     H144867   7.030   0.486   7.648
14875WAT     H244868   6.891   0.407   7.681
14876WAT      O44869   3.704   8.022   4.823
14876WAT     H144870   3.773   8.036   4.753
14876WAT     H244871   3.725   8.078   4.903
14877WAT      O44872   8.729   6.572   9.337
14877WAT     H144873   8.753   6.663   9.373
14877WAT     H244874   8.630   6.559   9.346
14878WAT      O44875   4.909   6.664   0.632
14878WAT     H144876   4.884   6.661   0.729
14878WAT     H244877   5.005   6.636   0.622
14879WAT      O44878   1.298   5.253   3.971
14879WAT     H144879   1.253   5.342   3.965
14879WAT     H244880   1.318   5.232   4.067
14880WAT      O44881   2.424   0.708   6.191
14880WAT     H144882   2.512   0.721   6.145
14880WAT     H244883   2.387   0.618   6.167
14881WAT      O44884   5.348   6.492   6.480
14881WAT     H144885   5.364   6.470   6.384
14881WAT     H244886   5.313   6.411   6.528
14882WAT      O44887   3.959   9.119   7.684
14882WAT     H144888   3.922   9.078   7.600
14882WAT     H244889   3.972   9.047   7.753
14883WAT      O44890   1.906   5.712   9.279
14883WAT     H144891   1.972   5.787   9.276
14883WAT     H244892   1.816   5.746   9.252
14884WAT      O44893   9.610   1.834   6.241
14884WAT     H144894   9.630   1.912   6.183
14884WAT     H244895   9.689   1.814   6.299
14885WAT      O44896   1.814   7.029   5.875
14885WAT     H144897   1.873   7.073   5.942
14885WAT     H244898   1.865   7.013   5.790
14886WAT      O44899   7.146   4.640   1.738
14886WAT     H144900   7.105   4.711   1.794
14886WAT     H244901   7.106   4.643   1.646
14887WAT      O44902   7.113   4.901   7.354
14887WAT     H144903   7.149   4.825   7.408
14887WAT     H244904   7.188   4.946   7.307
14888WAT      O44905   6.589   5.060   3.996
14888WAT     H144906   6.650   5.094   3.925
14888WAT     H244907   6.495   5.090   3.977
14889WAT      O44908   9.617   2.579   4.327
14889WAT     H144909   9.709   2.562   4.293
14889WAT     H244910   9.606   2.677   4.346
14890WAT      O44911   0.192   2.903   6.886
14890WAT     H144912   0.141   2.959   6.822
14890WAT     H244913   0.271   2.862   6.840
14891WAT      O44914   0.671   0.136   7.270
14891WAT     H144915   0.593   0.198   7.271
14891WAT     H244916   0.638   0.042   7.260
14892WAT      O44917   7.230   4.344   1.044
14892WAT     H144918   7.300   4.370   1.111
14892WAT     H244919   7.235   4.406   0.965
14893WAT      O44920   9.671   4.119   8.515
14893WAT     H144921   9.666   4.119   8.615
14893WAT     H244922   9.658   4.026   8.481
14894WAT      O44923   9.249   5.570   2.637
14894WAT     H144924   9.190   5.563   2.555
14894WAT     H244925   9.328   5.627   2.616
14895WAT      O44926   0.570   2.133   6.509
14895WAT     H144927   0.549   2.035   6.505
14895WAT     H244928   0.550   2.175   6.421
14896WAT      O44929   2.978   3.606   4.030
14896WAT     H144930   2.978   3.512   3.996
14896WAT     H244931   3.030   3.611   4.116
14897WAT      O44932   5.733   3.372   4.429
14897WAT     H144933   5.744   3.409   4.337
14897WAT     H244934   5.789   3.424   4.493
14898WAT      O44935   3.916   7.286   6.920
14898WAT     H144936   3.830   7.238   6.900
14898WAT     H244937   3.993   7.229   6.895
14899WAT      O44938   1.733   5.882   6.464
14899WAT     H144939   1.679   5.949   6.514
14899WAT     H244940   1.782   5.824   6.528
14900WAT      O44941   7.112   6.530   3.018
14900WAT     H144942   7.128   6.457   2.952
14900WAT     H244943   7.200   6.566   3.049
14901WAT      O44944   0.285   4.818   1.911
14901WAT     H144945   0.274   4.917   1.900
14901WAT     H244946   0.213   4.771   1.860
14902WAT      O44947   6.024   9.023   0.443
14902WAT     H144948   6.102   9.060   0.392
14902WAT     H244949   5.972   9.097   0.484
14903WAT      O44950   4.431   8.959   7.752
14903WAT     H144951   4.424   9.014   7.835
14903WAT     H244952   4.525   8.962   7.718
14904WAT      O44953   4.484   1.988   9.515
14904WAT     H144954   4.481   1.927   9.594
14904WAT     H244955   4.470   2.082   9.546
14905WAT      O44956   5.448   7.350   7.732
14905WAT     H144957   5.369   7.289   7.721
14905WAT     H244958   5.507   7.315   7.805
14906WAT      O44959   7.321   2.595   6.143
14906WAT     H144960   7.251   2.581   6.213
14906WAT     H244961   7.396   2.531   6.156
14907WAT      O44962   1.869   7.393   1.390
14907WAT     H144963   1.782   7.344   1.394
14907WAT     H244964   1.921   7.360   1.311
14908WAT      O44965   2.911   0.321   4.420
14908WAT     H144966   2.846   0.397   4.425
14908WAT     H244967   2.888   0.263   4.342
14909WAT      O44968   5.580   8.306   2.658
14909WAT     H144969   5.578   8.240   2.733
14909WAT     H244970   5.658   8.368   2.670
14910WAT      O44971   3.704   6.875   0.767
14910WAT     H144972   3.725   6.885   0.670
14910WAT     H244973   3.750   6.794   0.803
14911WAT      O44974   6.446   2.472   7.002
14911WAT     H144975   6.467   2.449   6.907
14911WAT     H244976   6.518   2.531   7.039
14912WAT      O44977   0.930   9.596   9.240
14912WAT     H144978   1.019   9.608   9.285
14912WAT     H244979   0.907   9.499   9.236
14913WAT      O44980   3.871   3.216   9.848
14913WAT     H144981   3.895   3.133   9.798
14913WAT     H244982   3.779   3.245   9.823
14914WAT      O44983   4.334   2.319   9.259
14914WAT     H144984   4.267   2.263   9.210
14914WAT     H244985   4.313   2.319   9.357
14915WAT      O44986   5.924   8.392   7.090
14915WAT     H144987   5.923   8.481   7.044
14915WAT     H244988   5.834   8.374   7.130
14916WAT      O44989   6.206   8.553   5.133
14916WAT     H144990   6.173   8.493   5.059
14916WAT     H244991   6.296   8.588   5.109
14917WAT      O44992   7.248   7.259   3.437
14917WAT     H144993   7.328   7.265   3.376
14917WAT     H244994   7.169   7.299   3.391
14918WAT      O44995   3.210   7.658   2.140
14918WAT     H144996   3.157   7.574   2.151
14918WAT     H244997   3.294   7.653   2.194
14919WAT      O44998   8.427   6.972   3.136
14919WAT     H144999   8.447   6.890   3.081
14919WAT     H245000   8.337   7.007   3.112
14920WAT      O45001   5.474   7.359   9.632
14920WAT     H145002   5.491   7.293   9.559
14920WAT     H245003   5.471   7.451   9.593
14921WAT      O45004   4.531   7.581   6.062
14921WAT     H145005   4.484   7.566   5.975
14921WAT     H245006   4.463   7.594   6.135
14922WAT      O45007   3.523   5.172   0.043
14922WAT     H145008   3.603   5.177  -0.018
14922WAT     H245009   3.471   5.090   0.022
14923WAT      O45010   7.853   3.189   6.546
14923WAT     H145011   7.927   3.225   6.488
14923WAT     H245012   7.839   3.250   6.623
14924WAT      O45013   7.545   3.648   0.975
14924WAT     H145014   7.542   3.692   0.885
14924WAT     H245015   7.513   3.553   0.966
14925WAT      O45016   2.315   5.668   9.131
14925WAT     H145017   2.306   5.639   9.226
14925WAT     H245018   2.362   5.597   9.079
14926WAT      O45019   5.114   6.125   6.987
14926WAT     H145020   5.034   6.183   6.976
14926WAT     H245021   5.086   6.038   7.029
14927WAT      O45022   9.699   2.691   9.245
14927WAT     H145023   9.794   2.709   9.218
14927WAT     H245024   9.640   2.763   9.208
14928WAT      O45025   2.750   6.102   5.565
14928WAT     H145026   2.746   6.136   5.659
14928WAT     H245027   2.657   6.086   5.532
14929WAT      O45028   7.005   2.579   5.526
14929WAT     H145029   6.968   2.545   5.613
14929WAT     H245030   6.935   2.631   5.478
14930WAT      O45031   7.295   5.470   2.594
14930WAT     H145032   7.395   5.477   2.585
14930WAT     H245033   7.262   5.395   2.537
14931WAT      O45034   9.468   4.924   4.578
14931WAT     H145035   9.492   4.827   4.566
14931WAT     H245036   9.547   4.974   4.611
14932WAT      O45037   2.126   5.918   8.455
14932WAT     H145038   2.150   6.013   8.436
14932WAT     H245039   2.028   5.910   8.471
14933WAT      O45040   8.365   6.554   8.494
14933WAT     H145041   8.459   6.522   8.510
14933WAT     H245042   8.346   6.555   8.396
14934WAT      O45043   1.340   5.187   4.239
14934WAT     H145044   1.290   5.102   4.257
14934WAT     H245045   1.281   5.265   4.260
14935WAT      O45046   4.969   0.313   5.835
14935WAT     H145047   4.984   0.360   5.747
14935WAT     H245048   4.921   0.227   5.819
14936WAT      O45049   2.155   4.474   5.174
14936WAT     H145050   2.151   4.391   5.229
14936WAT     H245051   2.065   4.519   5.176
14937WAT      O45052   8.498   5.604   5.126
14937WAT     H145053   8.553   5.684   5.149
14937WAT     H245054   8.522   5.528   5.187
14938WAT      O45055   2.813   5.664   7.120
14938WAT     H145056   2.739   5.597   7.122
14938WAT     H245057   2.793   5.739   7.184
14939WAT      O45058   7.909   1.527   6.056
14939WAT     H145059   7.940   1.617   6.027
14939WAT     H245060   7.832   1.499   5.999
14940WAT      O45061   8.945   4.588   1.148
14940WAT     H145062   8.871   4.609   1.213
14940WAT     H245063   8.971   4.492   1.157
14941WAT      O45064   8.130   4.994   0.397
14941WAT     H145065   8.125   5.091   0.422
14941WAT     H245066   8.184   4.984   0.313
14942WAT      O45067   0.258   4.540   0.984
14942WAT     H145068   0.202   4.472   1.032
14942WAT     H245069   0.217   4.559   0.895
14943WAT      O45070   7.536   3.717   5.256
14943WAT     H145071   7.606   3.649   5.281
14943WAT     H245072   7.505   3.700   5.162
14944WAT      O45073   9.285   8.773   2.445
14944WAT     H145074   9.252   8.715   2.519
14944WAT     H245075   9.216   8.777   2.373
14945WAT      O45076   7.407   1.110   1.161
14945WAT     H145077   7.437   1.022   1.127
14945WAT     H245078   7.338   1.148   1.100
14946WAT      O45079   5.552   6.846   6.837
14946WAT     H145080   5.567   6.864   6.740
14946WAT     H245081   5.514   6.928   6.881
14947WAT      O45082   6.288   3.736   8.724
14947WAT     H145083   6.378   3.700   8.699
14947WAT     H245084   6.280   3.739   8.823
14948WAT      O45085   6.160   1.331   5.577
14948WAT     H145086   6.159   1.420   5.622
14948WAT     H245087   6.254   1.308   5.552
14949WAT      O45088   5.691   8.285   5.797
14949WAT     H145089   5.634   8.330   5.728
14949WAT     H245090   5.788   8.302   5.776
14950WAT      O45091   3.926   9.717   3.414
14950WAT     H145092   3.942   9.816   3.412
14950WAT     H245093   3.943   9.683   3.506
14951WAT      O45094   7.961   6.806   2.812
14951WAT     H145095   7.987   6.793   2.907
14951WAT     H245096   7.923   6.721   2.775
14952WAT      O45097   4.536   9.268   5.928
14952WAT     H145098   4.450   9.269   5.877
14952WAT     H245099   4.529   9.202   6.003
14953WAT      O45100   7.955   4.669   6.700
14953WAT     H145101   7.908   4.647   6.614
14953WAT     H245102   8.039   4.718   6.681
14954WAT      O45103   1.667   3.979   6.409
14954WAT     H145104   1.710   4.022   6.488
14954WAT     H245105   1.720   3.897   6.383
14955WAT      O45106   2.715   3.648   3.616
14955WAT     H145107   2.705   3.567   3.558
14955WAT     H245108   2.799   3.641   3.670
14956WAT      O45109   8.987   5.436   8.618
14956WAT     H145110   9.009   5.385   8.535
14956WAT     H245111   9.022   5.530   8.610
14957WAT      O45112   2.629   4.061   9.230
14957WAT     H145113   2.570   4.095   9.303
14957WAT     H245114   2.656   4.137   9.171
14958WAT      O45115   2.871   0.539   1.188
14958WAT     H145116   2.786   0.570   1.230
14958WAT     H245117   2.948   0.591   1.226
14959WAT      O45118   1.904   3.573   1.023
14959WAT     H145119   1.879   3.631   1.100
14959WAT     H245120   1.845   3.593   0.945
14960WAT      O45121   4.400   5.126   5.002
14960WAT     H145122   4.420   5.153   5.096
14960WAT     H245123   4.417   5.203   4.941
14961WAT      O45124   3.572   9.541   1.577
14961WAT     H145125   3.649   9.565   1.518
14961WAT     H245126   3.606   9.524   1.670
14962WAT      O45127   4.145   8.931   4.589
14962WAT     H145128   4.128   9.024   4.621
14962WAT     H245129   4.091   8.915   4.505
14963WAT      O45130   5.484   9.395   1.606
14963WAT     H145131   5.546   9.471   1.590
14963WAT     H245132   5.412   9.395   1.537
14964WAT      O45133   9.684   9.735   1.868
14964WAT     H145134   9.773   9.770   1.898
14964WAT     H245135   9.678   9.740   1.768
14965WAT      O45136   0.417   3.987   1.321
14965WAT     H145137   0.455   4.024   1.406
14965WAT     H245138   0.354   4.053   1.281
14966WAT      O45139   2.073   9.089   9.285
14966WAT     H145140   1.994   9.125   9.335
14966WAT     H245141   2.104   9.005   9.329
14967WAT      O45142   2.749   3.712   0.333
14967WAT     H145143   2.763   3.727   0.235
14967WAT     H245144   2.697   3.628   0.347
14968WAT      O45145   9.291   4.549   2.563
14968WAT     H145146   9.194   4.572   2.553
14968WAT     H245147   9.304   4.450   2.550
14969WAT      O45148   8.615   0.193   9.142
14969WAT     H145149   8.636   0.208   9.045
14969WAT     H245150   8.697   0.161   9.189
14970WAT      O45151   7.282   6.438   9.315
14970WAT     H145152   7.324   6.353   9.349
14970WAT     H245153   7.348   6.488   9.259
14971WAT      O45154   7.829   1.838   0.904
14971WAT     H145155   7.751   1.900   0.899
14971WAT     H245156   7.914   1.890   0.910
14972WAT      O45157   2.728   1.580   9.639
14972WAT     H145158   2.732   1.661   9.697
14972WAT     H245159   2.714   1.499   9.695
14973WAT      O45160   9.591   0.756   0.624
14973WAT     H145161   9.655   0.829   0.652
14973WAT     H245162   9.553   0.778   0.535
14974WAT      O45163   4.704   2.328   5.626
14974WAT     H145164   4.642   2.308   5.701
14974WAT     H245165   4.658   2.387   5.559
14975WAT      O45166   8.011   9.610   6.849
14975WAT     H145167   8.020   9.586   6.752
14975WAT     H245168   7.918   9.592   6.879
14976WAT      O45169   3.304   3.572   2.399
14976WAT     H145170   3.317   3.611   2.490
14976WAT     H245171   3.290   3.646   2.333
14977WAT      O45172   8.446   8.669   4.303
14977WAT     H145173   8.516   8.665   4.374
14977WAT     H245174   8.488   8.647   4.215
14978WAT      O45175   1.006   0.945   6.759
14978WAT     H145176   1.046   1.036   6.772
14978WAT     H245177   1.059   0.878   6.809
14979WAT      O45178   7.972   8.221   0.094
14979WAT     H145179   7.926   8.267   0.018
14979WAT     H245180   7.936   8.255   0.181
14980WAT      O45181   0.954   3.439   3.720
14980WAT     H145182   1.024   3.508   3.739
14980WAT     H245183   0.869   3.466   3.765
14981WAT      O45184   8.726   3.158   5.775
14981WAT     H145185   8.814   3.165   5.728
14981WAT     H245186   8.673   3.083   5.735
14982WAT      O45187   4.676   0.958   8.050
14982WAT     H145188   4.586   0.936   8.088
14982WAT     H245189   4.698   1.054   8.071
14983WAT      O45190   3.603   3.635   4.845
14983WAT     H145191   3.642   3.546   4.867
14983WAT     H245192   3.658   3.679   4.774
14984WAT      O45193   8.954   2.713   0.101
14984WAT     H145194   8.947   2.696   0.199
14984WAT     H245195   8.865   2.743   0.066
14985WAT      O45196   8.841   1.546   6.377
14985WAT     H145197   8.750   1.541   6.334
14985WAT     H245198   8.908   1.505   6.316
14986WAT      O45199   0.077   3.757   7.046
14986WAT     H145200   0.008   3.709   6.992
14986WAT     H245201   0.058   3.743   7.144
14987WAT      O45202   5.519   1.113   8.042
14987WAT     H145203   5.582   1.151   7.974
14987WAT     H245204   5.541   1.017   8.058
14988WAT      O45205   5.730   4.285   7.573
14988WAT     H145206   5.795   4.210   7.563
14988WAT     H245207   5.647   4.265   7.520
14989WAT      O45208   1.469   5.142   4.490
14989WAT     H145209   1.422   5.190   4.416
14989WAT     H245210   1.457   5.192   4.576
14990WAT      O45211   2.784   0.526   3.131
14990WAT     H145212   2.839   0.608   3.118
14990WAT     H245213   2.697   0.537   3.083
14991WAT      O45214   4.347   1.836   7.885
14991WAT     H145215   4.373   1.929   7.912
14991WAT     H245216   4.305   1.789   7.963
14992WAT      O45217   8.663   0.607   5.560
14992WAT     H145218   8.610   0.531   5.525
14992WAT     H245219   8.715   0.649   5.485
14993WAT      O45220   3.781   5.185   9.824
14993WAT     H145221   3.833   5.249   9.882
14993WAT     H245222   3.843   5.115   9.788
14994WAT      O45223   8.976   5.475   6.329
14994WAT     H145224   8.951   5.502   6.236
14994WAT     H245225   8.934   5.387   6.350
14995WAT      O45226   7.548   4.812   9.474
14995WAT     H145227   7.540   4.895   9.529
14995WAT     H245228   7.521   4.831   9.380
14996WAT      O45229   1.964   9.637   6.710
14996WAT     H145230   2.022   9.602   6.637
14996WAT     H245231   1.886   9.687   6.670
14997WAT      O45232   3.172   1.250   7.205
14997WAT     H145233   3.257   1.206   7.234
14997WAT     H245234   3.096   1.212   7.259
14998WAT      O45235   6.567   2.809   0.455
14998WAT     H145236   6.543   2.811   0.358
14998WAT     H245237   6.521   2.733   0.500
14999WAT      O45238   1.280   1.710   7.084
14999WAT     H145239   1.285   1.797   7.133
14999WAT     H245240   1.195   1.706   7.031
15000WAT      O45241   3.831   4.168   9.176
15000WAT     H145242   3.921   4.155   9.218
15000WAT     H245243   3.798   4.080   9.139
15001WAT      O45244   4.068   2.856   0.725
15001WAT     H145245   4.129   2.792   0.772
15001WAT     H245246   4.022   2.810   0.649
15002WAT      O45247   1.215   4.000   6.641
15002WAT     H145248   1.233   4.019   6.544
15002WAT     H245249   1.301   3.977   6.686
15003WAT      O45250   1.579   3.619   6.431
15003WAT     H145251   1.556   3.526   6.402
15003WAT     H245252   1.606   3.618   6.528
15004WAT      O45253   5.900   9.041   5.209
15004WAT     H145254   5.947   8.960   5.176
15004WAT     H245255   5.959   9.091   5.273
15005WAT      O45256   5.233   1.689   6.823
15005WAT     H145257   5.309   1.693   6.888
15005WAT     H245258   5.200   1.782   6.805
15006WAT      O45259   9.072   2.558   2.106
15006WAT     H145260   9.122   2.644   2.110
15006WAT     H245261   9.030   2.548   2.016
15007WAT      O45262   3.628   6.660   6.033
15007WAT     H145263   3.700   6.636   6.098
15007WAT     H245264   3.648   6.619   5.944
15008WAT      O45265   8.951   7.725   5.145
15008WAT     H145266   8.909   7.815   5.130
15008WAT     H245267   8.931   7.694   5.238
15009WAT      O45268   3.372   9.522   4.956
15009WAT     H145269   3.393   9.614   4.922
15009WAT     H245270   3.455   9.480   4.993
15010WAT      O45271   4.935   8.638   6.246
15010WAT     H145272   5.003   8.708   6.271
15010WAT     H245273   4.959   8.598   6.157
15011WAT      O45274   3.747   0.390   9.859
15011WAT     H145275   3.661   0.440   9.853
15011WAT     H245276   3.753   0.323   9.785
15012WAT      O45277   0.041   0.183   4.626
15012WAT     H145278   0.080   0.174   4.718
15012WAT     H245279  -0.013   0.267   4.621
15013WAT      O45280   0.372   8.949   3.957
15013WAT     H145281   0.328   8.999   4.031
15013WAT     H245282   0.336   8.856   3.954
15014WAT      O45283   3.584   5.409   3.392
15014WAT     H145284   3.545   5.332   3.341
15014WAT     H245285   3.639   5.466   3.332
15015WAT      O45286   3.800   5.623   2.628
15015WAT     H145287   3.733   5.658   2.562
15015WAT     H245288   3.891   5.656   2.605
15016WAT      O45289   6.789   6.866   6.814
15016WAT     H145290   6.771   6.793   6.748
15016WAT     H245291   6.751   6.841   6.903
15017WAT      O45292   5.727   8.548   1.040
15017WAT     H145293   5.715   8.515   0.947
15017WAT     H245294   5.736   8.648   1.040
15018WAT      O45295   2.386   8.776   2.327
15018WAT     H145296   2.302   8.828   2.313
15018WAT     H245297   2.408   8.773   2.424
15019WAT      O45298   6.040   5.437   4.184
15019WAT     H145299   5.947   5.414   4.210
15019WAT     H245300   6.043   5.529   4.145
15020WAT      O45301   3.775   9.543   5.698
15020WAT     H145302   3.758   9.461   5.754
15020WAT     H245303   3.867   9.538   5.659
15021WAT      O45304   6.089   0.181   3.290
15021WAT     H145305   6.021   0.239   3.245
15021WAT     H245306   6.042   0.120   3.355
15022WAT      O45307   3.299   4.254   7.501
15022WAT     H145308   3.373   4.320   7.511
15022WAT     H245309   3.327   4.167   7.541
15023WAT      O45310   0.618   5.624   1.674
15023WAT     H145311   0.643   5.616   1.578
15023WAT     H245312   0.521   5.605   1.685
15024WAT      O45313   1.978   0.327   8.267
15024WAT     H145314   2.001   0.374   8.182
15024WAT     H245315   2.048   0.257   8.287
15025WAT      O45316   4.021   4.461   6.943
15025WAT     H145317   3.991   4.372   6.977
15025WAT     H245318   4.120   4.470   6.956
15026WAT      O45319   9.574   9.582   6.251
15026WAT     H145320   9.593   9.534   6.165
15026WAT     H245321   9.598   9.678   6.241
15027WAT      O45322   1.735   2.223   3.918
15027WAT     H145323   1.824   2.194   3.954
15027WAT     H245324   1.742   2.237   3.819
15028WAT      O45325   0.797   1.496   3.456
15028WAT     H145326   0.807   1.591   3.486
15028WAT     H245327   0.787   1.492   3.357
15029WAT      O45328   3.317   1.213   2.990
15029WAT     H145329   3.325   1.195   2.892
15029WAT     H245330   3.312   1.311   3.006
15030WAT      O45331   6.193   4.537   3.730
15030WAT     H145332   6.251   4.578   3.801
15030WAT     H245333   6.152   4.453   3.765
15031WAT      O45334   8.180   5.862   7.731
15031WAT     H145335   8.246   5.829   7.663
15031WAT     H245336   8.091   5.821   7.714
15032WAT      O45337   5.644   5.039   9.125
15032WAT     H145338   5.661   4.968   9.057
15032WAT     H245339   5.625   4.996   9.214
15033WAT      O45340   1.321   1.914   0.610
15033WAT     H145341   1.226   1.941   0.624
15033WAT     H245342   1.381   1.985   0.648
15034WAT      O45343   2.798   8.520   2.478
15034WAT     H145344   2.733   8.595   2.477
15034WAT     H245345   2.858   8.525   2.399
15035WAT      O45346   1.845   4.749   6.770
15035WAT     H145347   1.862   4.829   6.827
15035WAT     H245348   1.899   4.757   6.686
15036WAT      O45349   4.247   8.777   5.698
15036WAT     H145350   4.292   8.854   5.742
15036WAT     H245351   4.155   8.805   5.669
15037WAT      O45352   1.882   0.454   8.495
15037WAT     H145353   1.904   0.408   8.409
15037WAT     H245354   1.825   0.534   8.475
15038WAT      O45355   2.272   2.998   0.002
15038WAT     H145356   2.335   3.051  -0.055
15038WAT     H245357   2.247   3.052   0.082
15039WAT      O45358   6.896   4.815   1.254
15039WAT     H145359   6.813   4.812   1.310
15039WAT     H245360   6.956   4.888   1.287
15040WAT      O45361   0.033   0.200   9.646
15040WAT     H145362  -0.023   0.164   9.571
15040WAT     H245363   0.085   0.124   9.687
15041WAT      O45364   8.703   0.018   9.534
15041WAT     H145365   8.662   0.106   9.510
15041WAT     H245366   8.752   0.026   9.621
15042WAT      O45367   7.616   9.202   7.676
15042WAT     H145368   7.687   9.186   7.608
15042WAT     H245369   7.609   9.123   7.737
15043WAT      O45370   3.562   1.377   1.477
15043WAT     H145371   3.627   1.331   1.416
15043WAT     H245372   3.607   1.455   1.519
15044WAT      O45373   9.487   4.277   1.768
15044WAT     H145374   9.483   4.177   1.774
15044WAT     H245375   9.562   4.310   1.825
15045WAT      O45376   8.732   6.866   9.081
15045WAT     H145377   8.822   6.855   9.123
15045WAT     H245378   8.718   6.962   9.055
15046WAT      O45379   3.662   8.669   2.587
15046WAT     H145380   3.636   8.730   2.661
15046WAT     H245381   3.758   8.684   2.563
15047WAT      O45382   4.708   4.035   0.723
15047WAT     H145383   4.763   4.077   0.651
15047WAT     H245384   4.763   4.026   0.806
15048WAT      O45385   0.477   3.742   7.277
15048WAT     H145386   0.394   3.735   7.331
15048WAT     H245387   0.454   3.735   7.179
15049WAT      O45388   7.741   2.256   3.720
15049WAT     H145389   7.813   2.313   3.680
15049WAT     H245390   7.778   2.205   3.797
15050WAT      O45391   2.269   6.115   9.788
15050WAT     H145392   2.229   6.178   9.854
15050WAT     H245393   2.365   6.100   9.811
15051WAT      O45394   3.855   1.550   6.936
15051WAT     H145395   3.955   1.550   6.927
15051WAT     H245396   3.830   1.579   7.028
15052WAT      O45397   8.299   0.371   7.674
15052WAT     H145398   8.290   0.460   7.720
15052WAT     H245399   8.385   0.369   7.623
15053WAT      O45400   0.158   6.027   3.095
15053WAT     H145401   0.131   5.967   3.020
15053WAT     H245402   0.084   6.035   3.161
15054WAT      O45403   3.609   8.609   7.500
15054WAT     H145404   3.569   8.693   7.536
15054WAT     H245405   3.549   8.532   7.520
15055WAT      O45406   1.154   1.136   3.286
15055WAT     H145407   1.186   1.117   3.194
15055WAT     H245408   1.172   1.057   3.345
15056WAT      O45409   0.195   2.437   9.212
15056WAT     H145410   0.103   2.420   9.178
15056WAT     H245411   0.216   2.373   9.286
15057WAT      O45412   5.419   4.009   4.874
15057WAT     H145413   5.414   3.959   4.788
15057WAT     H245414   5.339   3.987   4.931
15058WAT      O45415   3.022   6.323   1.612
15058WAT     H145416   2.927   6.355   1.607
15058WAT     H245417   3.055   6.331   1.706
15059WAT      O45418   1.325   6.114   2.014
15059WAT     H145419   1.244   6.146   2.063
15059WAT     H245420   1.397   6.184   2.018
15060WAT      O45421   9.422   3.518   8.065
15060WAT     H145422   9.491   3.568   8.013
15060WAT     H245423   9.443   3.420   8.063
15061WAT      O45424   7.402   0.550   1.712
15061WAT     H145425   7.380   0.568   1.808
15061WAT     H245426   7.493   0.510   1.705
15062WAT      O45427   0.585   7.841   9.157
15062WAT     H145428   0.510   7.808   9.215
15062WAT     H245429   0.672   7.824   9.203
15063WAT      O45430   1.961   8.931   5.312
15063WAT     H145431   2.010   8.906   5.396
15063WAT     H245432   2.027   8.938   5.237
15064WAT      O45433   9.484   8.823   5.076
15064WAT     H145434   9.393   8.792   5.050
15064WAT     H245435   9.550   8.749   5.062
15065WAT      O45436   6.081   1.738   1.019
15065WAT     H145437   6.018   1.692   0.956
15065WAT     H245438   6.039   1.744   1.109
15066WAT      O45439   6.964   9.271   7.708
15066WAT     H145440   6.909   9.260   7.625
15066WAT     H245441   7.016   9.356   7.702
15067WAT      O45442   9.674   3.898   8.122
15067WAT     H145443   9.724   3.985   8.114
15067WAT     H245444   9.576   3.915   8.110
15068WAT      O45445   6.642   8.786   3.661
15068WAT     H145446   6.571   8.855   3.676
15068WAT     H245447   6.631   8.745   3.571
15069WAT      O45448   6.824   1.871   1.804
15069WAT     H145449   6.909   1.823   1.825
15069WAT     H245450   6.825   1.961   1.848
15070WAT      O45451   2.289   2.736   1.795
15070WAT     H145452   2.336   2.802   1.853
15070WAT     H245453   2.355   2.692   1.734
15071WAT      O45454   0.284   7.098  -0.001
15071WAT     H145455   0.225   7.177  -0.013
15071WAT     H245456   0.243   7.035   0.065
15072WAT      O45457   7.548   8.320   3.598
15072WAT     H145458   7.554   8.235   3.651
15072WAT     H245459   7.543   8.299   3.501
15073WAT      O45460   3.113   4.932   5.510
15073WAT     H145461   3.058   4.885   5.579
15073WAT     H245462   3.056   4.954   5.431
15074WAT      O45463   0.067   3.421   4.812
15074WAT     H145464   0.008   3.345   4.780
15074WAT     H245465   0.153   3.384   4.846
15075WAT      O45466   8.649   3.929   9.657
15075WAT     H145467   8.551   3.949   9.648
15075WAT     H245468   8.690   3.989   9.725
15076WAT      O45469   1.408   2.595   9.217
15076WAT     H145470   1.464   2.664   9.263
15076WAT     H245471   1.383   2.524   9.282
15077WAT      O45472   6.237   1.514   2.401
15077WAT     H145473   6.222   1.462   2.317
15077WAT     H245474   6.232   1.612   2.381
15078WAT      O45475   5.621   0.108   9.627
15078WAT     H145476   5.721   0.100   9.636
15078WAT     H245477   5.593   0.202   9.648
15079WAT      O45478   0.421   0.268   0.246
15079WAT     H145479   0.355   0.251   0.319
15079WAT     H245480   0.438   0.183   0.196
15080WAT      O45481   5.409   6.241   5.682
15080WAT     H145482   5.366   6.240   5.773
15080WAT     H245483   5.397   6.153   5.638
15081WAT      O45484   8.518   6.453   5.054
15081WAT     H145485   8.578   6.533   5.060
15081WAT     H245486   8.460   6.449   5.135
15082WAT      O45487   8.657   3.365   9.285
15082WAT     H145488   8.679   3.320   9.372
15082WAT     H245489   8.560   3.351   9.265
15083WAT      O45490   2.746   6.876   6.249
15083WAT     H145491   2.774   6.869   6.154
15083WAT     H245492   2.826   6.896   6.306
15084WAT      O45493   9.615   3.585   7.875
15084WAT     H145494   9.652   3.493   7.886
15084WAT     H245495   9.690   3.650   7.864
15085WAT      O45496   4.750   4.435   6.121
15085WAT     H145497   4.684   4.417   6.194
15085WAT     H245498   4.721   4.515   6.069
15086WAT      O45499   4.479   8.032   2.642
15086WAT     H145500   4.381   8.015   2.651
15086WAT     H245501   4.523   7.953   2.599
15087WAT      O45502   1.092   2.580   9.814
15087WAT     H145503   1.135   2.664   9.849
15087WAT     H245504   1.164   2.518   9.781
15088WAT      O45505   9.518   4.655   4.629
15088WAT     H145506   9.433   4.605   4.612
15088WAT     H245507   9.541   4.649   4.726
15089WAT      O45508   3.483   2.712   2.636
15089WAT     H145509   3.526   2.757   2.558
15089WAT     H245510   3.407   2.656   2.604
15090WAT      O45511   1.498   1.619   8.177
15090WAT     H145512   1.495   1.519   8.180
15090WAT     H245513   1.405   1.655   8.183
15091WAT      O45514   6.198   6.864   8.358
15091WAT     H145515   6.297   6.852   8.354
15091WAT     H245516   6.173   6.898   8.449
15092WAT      O45517   6.446   0.283   6.724
15092WAT     H145518   6.447   0.381   6.746
15092WAT     H245519   6.355   0.258   6.692
15093WAT      O45520   0.169   7.258   3.859
15093WAT     H145521   0.192   7.355   3.872
15093WAT     H245522   0.070   7.249   3.846
15094WAT      O45523   4.836   9.521   0.542
15094WAT     H145524   4.802   9.460   0.613
15094WAT     H245525   4.782   9.605   0.542
15095WAT      O45526   0.274   8.389   4.171
15095WAT     H145527   0.237   8.342   4.091
15095WAT     H245528   0.355   8.442   4.145
15096WAT      O45529   6.546   5.745   1.938
15096WAT     H145530   6.622   5.778   1.882
15096WAT     H245531   6.468   5.724   1.879
15097WAT      O45532   7.233   8.814   8.300
15097WAT     H145533   7.230   8.759   8.384
15097WAT     H245534   7.172   8.893   8.310
15098WAT      O45535   3.270   0.861   4.557
15098WAT     H145536   3.211   0.934   4.523
15098WAT     H245537   3.312   0.890   4.643
15099WAT      O45538   9.525   4.332   2.859
15099WAT     H145539   9.507   4.247   2.810
15099WAT     H245540   9.517   4.409   2.795
15100WAT      O45541   0.131   9.166   5.457
15100WAT     H145542   0.167   9.190   5.367
15100WAT     H245543   0.140   9.067   5.471
15101WAT      O45544   0.506   2.094   3.846
15101WAT     H145545   0.511   2.081   3.747
15101WAT     H245546   0.417   2.133   3.869
15102WAT      O45547   0.410   6.067   7.228
15102WAT     H145548   0.443   6.150   7.184
15102WAT     H245549   0.403   5.994   7.161
15103WAT      O45550   7.141   7.538   1.628
15103WAT     H145551   7.174   7.629   1.652
15103WAT     H245552   7.090   7.543   1.542
15104WAT      O45553   8.840   4.731   6.631
15104WAT     H145554   8.893   4.798   6.683
15104WAT     H245555   8.743   4.742   6.651
15105WAT      O45556   4.185   4.293   8.795
15105WAT     H145557   4.233   4.378   8.818
15105WAT     H245558   4.221   4.218   8.851
15106WAT      O45559   0.051   9.124   6.574
15106WAT     H145560  -0.004   9.206   6.558
15106WAT     H245561   0.071   9.080   6.486
15107WAT      O45562   2.379   3.199   2.580
15107WAT     H145563   2.455   3.151   2.535
15107WAT     H245564   2.402   3.214   2.677
15108WAT      O45565   1.469   8.391   6.662
15108WAT     H145566   1.545   8.392   6.726
15108WAT     H245567   1.387   8.426   6.707
15109WAT      O45568   3.607   7.219   7.276
15109WAT     H145569   3.634   7.279   7.352
15109WAT     H245570   3.686   7.200   7.219
15110WAT      O45571   7.563   8.095   0.027
15110WAT     H145572   7.572   8.140  -0.062
15110WAT     H245573   7.643   8.037   0.044
15111WAT      O45574   7.337   6.307   8.776
15111WAT     H145575   7.355   6.365   8.696
15111WAT     H245576   7.368   6.214   8.757
15112WAT      O45577   2.855   5.163   1.003
15112WAT     H145578   2.894   5.146   0.913
15112WAT     H245579   2.927   5.156   1.072
15113WAT      O45580   2.618   2.981   9.551
15113WAT     H145581   2.636   2.995   9.648
15113WAT     H245582   2.619   2.883   9.531
15114WAT      O45583   3.064   4.876   2.765
15114WAT     H145584   2.995   4.904   2.832
15114WAT     H245585   3.152   4.863   2.811
15115WAT      O45586   3.876   3.462   3.958
15115WAT     H145587   3.911   3.556   3.952
15115WAT     H245588   3.791   3.455   3.906
15116WAT      O45589   2.116   4.267   0.675
15116WAT     H145590   2.017   4.259   0.680
15116WAT     H245591   2.141   4.326   0.598
15117WAT      O45592   2.426   5.827   8.506
15117WAT     H145593   2.478   5.817   8.591
15117WAT     H245594   2.330   5.804   8.523
15118WAT      O45595   8.870   8.589   4.974
15118WAT     H145596   8.921   8.659   4.925
15118WAT     H245597   8.780   8.624   4.999
15119WAT      O45598   7.840   4.092   1.976
15119WAT     H145599   7.784   4.076   2.058
15119WAT     H245600   7.920   4.147   2.001
15120WAT      O45601   8.459   8.816   9.388
15120WAT     H145602   8.506   8.736   9.351
15120WAT     H245603   8.524   8.872   9.439
15121WAT      O45604   1.076   5.125   8.289
15121WAT     H145605   1.025   5.210   8.277
15121WAT     H245606   1.073   5.072   8.204
15122WAT      O45607   9.116   9.010   5.000
15122WAT     H145608   9.117   8.911   5.005
15122WAT     H245609   9.100   9.039   4.905
15123WAT      O45610   6.293   3.452   9.826
15123WAT     H145611   6.229   3.414   9.759
15123WAT     H245612   6.386   3.420   9.806
15124WAT      O45613   0.028   7.536   7.572
15124WAT     H145614   0.118   7.540   7.615
15124WAT     H245615   0.036   7.494   7.481
15125WAT      O45616   5.675   7.477   3.267
15125WAT     H145617   5.600   7.542   3.260
15125WAT     H245618   5.761   7.526   3.286
15126WAT      O45619   0.031   8.064   9.243
15126WAT     H145620   0.007   8.158   9.267
15126WAT     H245621   0.126   8.047   9.269
15127WAT      O45622   5.833   1.094   3.209
15127WAT     H145623   5.777   1.176   3.197
15127WAT     H245624   5.785   1.028   3.266
15128WAT      O45625   9.449   1.295   6.295
15128WAT     H145626   9.387   1.373   6.304
15128WAT     H245627   9.411   1.231   6.227
15129WAT      O45628   0.734   0.334   4.632
15129WAT     H145629   0.752   0.430   4.615
15129WAT     H245630   0.636   0.317   4.634
15130WAT      O45631   4.560   1.247   1.884
15130WAT     H145632   4.569   1.149   1.904
15130WAT     H245633   4.483   1.261   1.822
15131WAT      O45634   9.187   8.516   8.388
15131WAT     H145635   9.222   8.475   8.305
15131WAT     H245636   9.103   8.567   8.368
15132WAT      O45637   2.521   4.748   2.702
15132WAT     H145638   2.591   4.819   2.692
15132WAT     H245639   2.435   4.781   2.665
15133WAT      O45640   6.109   8.031   8.282
15133WAT     H145641   6.023   8.070   8.247
15133WAT     H245642   6.149   7.972   8.212
15134WAT      O45643   4.858   0.505   0.238
15134WAT     H145644   4.830   0.523   0.333
15134WAT     H245645   4.878   0.592   0.192
15135WAT      O45646   8.101   4.706   4.647
15135WAT     H145647   8.137   4.790   4.689
15135WAT     H245648   8.033   4.666   4.708
15136WAT      O45649   4.540   5.660   2.385
15136WAT     H145650   4.517   5.572   2.342
15136WAT     H245651   4.527   5.653   2.484
15137WAT      O45652   1.636   5.464   6.519
15137WAT     H145653   1.553   5.431   6.474
15137WAT     H245654   1.687   5.522   6.456
15138WAT      O45655   6.040   8.121   6.030
15138WAT     H145656   6.007   8.194   5.971
15138WAT     H245657   6.137   8.106   6.013
15139WAT      O45658   6.132   6.552   2.894
15139WAT     H145659   6.193   6.490   2.944
15139WAT     H245660   6.183   6.635   2.869
15140WAT      O45661   2.290   8.373   4.364
15140WAT     H145662   2.267   8.287   4.319
15140WAT     H245663   2.205   8.424   4.382
15141WAT      O45664   9.336   0.151   4.796
15141WAT     H145665   9.321   0.189   4.705
15141WAT     H245666   9.248   0.123   4.836
15142WAT      O45667   1.431   3.449   9.730
15142WAT     H145668   1.471   3.384   9.666
15142WAT     H245669   1.501   3.480   9.795
15143WAT      O45670   7.537   5.610   3.065
15143WAT     H145671   7.444   5.576   3.052
15143WAT     H245672   7.590   5.595   2.981
15144WAT      O45673   4.466   1.143   4.333
15144WAT     H145674   4.478   1.120   4.236
15144WAT     H245675   4.523   1.083   4.389
15145WAT      O45676   9.347   2.916   4.881
15145WAT     H145677   9.256   2.888   4.911
15145WAT     H245678   9.363   3.012   4.908
15146WAT      O45679   5.970   8.239   3.523
15146WAT     H145680   5.928   8.277   3.440
15146WAT     H245681   6.019   8.156   3.501
15147WAT      O45682   1.023   7.320   0.645
15147WAT     H145683   0.938   7.347   0.599
15147WAT     H245684   1.004   7.299   0.741
15148WAT      O45685   5.504   5.443   0.059
15148WAT     H145686   5.586   5.398   0.025
15148WAT     H245687   5.433   5.442  -0.012
15149WAT      O45688   7.802   4.269   2.624
15149WAT     H145689   7.839   4.180   2.650
15149WAT     H245690   7.869   4.341   2.646
15150WAT      O45691   2.077   8.141   7.275
15150WAT     H145692   1.984   8.114   7.251
15150WAT     H245693   2.128   8.061   7.308
15151WAT      O45694   2.611   8.642   3.386
15151WAT     H145695   2.528   8.695   3.401
15151WAT     H245696   2.620   8.619   3.289
15152WAT      O45697   9.164   6.863   5.811
15152WAT     H145698   9.078   6.831   5.771
15152WAT     H245699   9.153   6.957   5.844
15153WAT      O45700   5.232   9.436   7.540
15153WAT     H145701   5.300   9.500   7.575
15153WAT     H245702   5.172   9.407   7.615
15154WAT      O45703   5.143   8.224   6.504
15154WAT     H145704   5.226   8.225   6.560
15154WAT     H245705   5.102   8.316   6.504
15155WAT      O45706   9.288   0.807   3.513
15155WAT     H145707   9.275   0.864   3.594
15155WAT     H245708   9.212   0.743   3.505
15156WAT      O45709   7.240   0.679   0.137
15156WAT     H145710   7.332   0.641   0.150
15156WAT     H245711   7.235   0.722   0.047
15157WAT      O45712   9.660   5.871   1.022
15157WAT     H145713   9.694   5.958   1.057
15157WAT     H245714   9.604   5.887   0.941
15158WAT      O45715   7.503   2.901   0.854
15158WAT     H145716   7.504   2.981   0.914
15158WAT     H245717   7.487   2.819   0.908
15159WAT      O45718   4.279   2.735   8.265
15159WAT     H145719   4.224   2.818   8.252
15159WAT     H245720   4.237   2.677   8.335
15160WAT      O45721   5.223   6.966   9.571
15160WAT     H145722   5.186   6.967   9.663
15160WAT     H245723   5.156   6.927   9.508
15161WAT      O45724   0.561   2.772   4.120
15161WAT     H145725   0.632   2.807   4.180
15161WAT     H245726   0.484   2.836   4.120
15162WAT      O45727   1.209   5.718   9.507
15162WAT     H145728   1.295   5.743   9.463
15162WAT     H245729   1.137   5.712   9.437
15163WAT      O45730   1.022   1.647   1.487
15163WAT     H145731   1.109   1.601   1.505
15163WAT     H245732   0.950   1.606   1.543
15164WAT      O45733   6.339   8.934   1.283
15164WAT     H145734   6.311   8.866   1.215
15164WAT     H245735   6.356   8.889   1.371
15165WAT      O45736   7.260   8.028   0.072
15165WAT     H145737   7.337   8.075   0.029
15165WAT     H245738   7.253   7.935   0.036
15166WAT      O45739   4.904   8.612   0.132
15166WAT     H145740   4.893   8.692   0.191
15166WAT     H245741   4.848   8.537   0.168
15167WAT      O45742   8.120   1.428   3.272
15167WAT     H145743   8.053   1.431   3.198
15167WAT     H245744   8.075   1.400   3.357
15168WAT      O45745   8.143   7.905   9.256
15168WAT     H145746   8.047   7.921   9.282
15168WAT     H245747   8.201   7.973   9.300
15169WAT      O45748   4.331   0.989   2.553
15169WAT     H145749   4.311   0.949   2.642
15169WAT     H245750   4.404   1.056   2.562
15170WAT      O45751   5.769   0.199   4.979
15170WAT     H145752   5.700   0.139   5.019
15170WAT     H245753   5.859   0.175   5.017
15171WAT      O45754   9.208   3.814   7.255
15171WAT     H145755   9.125   3.803   7.310
15171WAT     H245756   9.273   3.743   7.280
15172WAT      O45757   5.114   9.399   2.790
15172WAT     H145758   5.057   9.317   2.785
15172WAT     H245759   5.098   9.455   2.709
15173WAT      O45760   2.200   9.645   0.172
15173WAT     H145761   2.275   9.704   0.201
15173WAT     H245762   2.232   9.550   0.169
15174WAT      O45763   0.384   2.335   3.047
15174WAT     H145764   0.341   2.316   2.959
15174WAT     H245765   0.417   2.430   3.048
15175WAT      O45766   7.573   4.021   9.391
15175WAT     H145767   7.568   3.951   9.462
15175WAT     H245768   7.669   4.037   9.367
15176WAT      O45769   9.734   8.316   2.211
15176WAT     H145770   9.665   8.245   2.199
15176WAT     H245771   9.720   8.388   2.143
15177WAT      O45772   6.951   3.216   9.474
15177WAT     H145773   7.041   3.252   9.500
15177WAT     H245774   6.892   3.290   9.444
15178WAT      O45775   7.992   3.374   0.704
15178WAT     H145776   8.053   3.436   0.656
15178WAT     H245777   7.900   3.382   0.667
15179WAT      O45778   7.825   9.106   6.642
15179WAT     H145779   7.768   9.029   6.612
15179WAT     H245780   7.920   9.090   6.615
15180WAT      O45781   5.286   1.009   6.453
15180WAT     H145782   5.275   1.059   6.367
15180WAT     H245783   5.380   0.975   6.460
15181WAT      O45784   0.574   1.356   6.122
15181WAT     H145785   0.531   1.285   6.067
15181WAT     H245786   0.622   1.421   6.061
15182WAT      O45787   7.774   0.566   9.388
15182WAT     H145788   7.857   0.598   9.434
15182WAT     H245789   7.716   0.645   9.366
15183WAT      O45790   1.267   4.355   1.588
15183WAT     H145791   1.358   4.335   1.551
15183WAT     H245792   1.236   4.277   1.643
15184WAT      O45793   7.899   2.138   3.912
15184WAT     H145794   7.860   2.166   3.999
15184WAT     H245795   7.995   2.166   3.907
15185WAT      O45796   8.314   9.657   8.981
15185WAT     H145797   8.229   9.670   9.032
15185WAT     H245798   8.376   9.732   9.002
15186WAT      O45799   5.222   0.643   4.246
15186WAT     H145800   5.274   0.727   4.231
15186WAT     H245801   5.159   0.628   4.170
15187WAT      O45802   4.016   3.240   9.333
15187WAT     H145803   4.093   3.299   9.309
15187WAT     H245804   4.018   3.157   9.277
15188WAT      O45805   3.353   5.663   1.776
15188WAT     H145806   3.306   5.598   1.836
15188WAT     H245807   3.303   5.670   1.689
15189WAT      O45808   4.382   0.926   9.740
15189WAT     H145809   4.403   0.833   9.707
15189WAT     H245810   4.286   0.946   9.723
15190WAT      O45811   3.942   2.963   7.667
15190WAT     H145812   3.854   3.007   7.648
15190WAT     H245813   3.930   2.894   7.739
15191WAT      O45814   9.230   2.873   7.790
15191WAT     H145815   9.146   2.820   7.802
15191WAT     H245816   9.207   2.970   7.778
15192WAT      O45817   1.564   2.846   6.070
15192WAT     H145818   1.610   2.903   6.138
15192WAT     H245819   1.497   2.900   6.020
15193WAT      O45820   4.765   0.055   5.835
15193WAT     H145821   4.769   0.043   5.934
15193WAT     H245822   4.711   0.137   5.813
15194WAT      O45823   3.829   6.995   1.994
15194WAT     H145824   3.850   6.901   1.966
15194WAT     H245825   3.912   7.050   1.992
15195WAT      O45826   6.616   2.398   4.134
15195WAT     H145827   6.558   2.316   4.142
15195WAT     H245828   6.599   2.458   4.212
15196WAT      O45829   6.774   4.243   7.920
15196WAT     H145830   6.720   4.262   8.002
15196WAT     H245831   6.863   4.206   7.946
15197WAT      O45832   8.727   3.051   0.964
15197WAT     H145833   8.769   3.035   0.875
15197WAT     H245834   8.685   2.966   0.997
15198WAT      O45835   1.744   3.931   1.785
15198WAT     H145836   1.680   3.937   1.862
15198WAT     H245837   1.825   3.986   1.805
15199WAT      O45838   0.882   2.497   8.836
15199WAT     H145839   0.789   2.477   8.806
15199WAT     H245840   0.881   2.517   8.934
15200WAT      O45841   1.128   9.688   0.869
15200WAT     H145842   1.193   9.612   0.861
15200WAT     H245843   1.164   9.767   0.819
15201WAT      O45844   8.398   8.154   1.767
15201WAT     H145845   8.328   8.166   1.838
15201WAT     H245846   8.428   8.243   1.734
15202WAT      O45847   1.887   3.166   3.853
15202WAT     H145848   1.987   3.167   3.848
15202WAT     H245849   1.850   3.219   3.777
15203WAT      O45850   6.612   8.814   3.227
15203WAT     H145851   6.670   8.882   3.273
15203WAT     H245852   6.605   8.732   3.284
15204WAT      O45853   2.143   1.837   9.796
15204WAT     H145854   2.055   1.841   9.844
15204WAT     H245855   2.217   1.852   9.861
15205WAT      O45856   2.693   1.428   6.618
15205WAT     H145857   2.684   1.507   6.679
15205WAT     H245858   2.713   1.460   6.525
15206WAT      O45859   3.681   4.592   3.962
15206WAT     H145860   3.631   4.678   3.970
15206WAT     H245861   3.682   4.545   4.050
15207WAT      O45862   3.742   1.512   9.888
15207WAT     H145863   3.696   1.424   9.877
15207WAT     H245864   3.767   1.547   9.798
15208WAT      O45865   1.981   9.609   9.018
15208WAT     H145866   2.048   9.600   8.944
15208WAT     H245867   1.937   9.699   9.012
15209WAT      O45868   7.046   3.473   4.986
15209WAT     H145869   7.070   3.483   4.890
15209WAT     H245870   7.097   3.396   5.026
15210WAT      O45871   8.727   2.148   4.425
15210WAT     H145872   8.707   2.147   4.523
15210WAT     H245873   8.765   2.059   4.398
15211WAT      O45874   0.382   0.984   8.624
15211WAT     H145875   0.300   1.036   8.645
15211WAT     H245876   0.405   0.996   8.527
15212WAT      O45877   8.389   6.847   4.425
15212WAT     H145878   8.294   6.817   4.413
15212WAT     H245879   8.392   6.947   4.429
15213WAT      O45880   4.630   7.326   6.889
15213WAT     H145881   4.631   7.352   6.792
15213WAT     H245882   4.564   7.383   6.938
15214WAT      O45883   5.929   1.825   9.350
15214WAT     H145884   5.963   1.846   9.258
15214WAT     H245885   5.946   1.903   9.410
15215WAT      O45886   2.970   2.603   6.153
15215WAT     H145887   3.064   2.572   6.139
15215WAT     H245888   2.960   2.695   6.115
15216WAT      O45889   9.674   2.039   8.376
15216WAT     H145890   9.659   2.116   8.314
15216WAT     H245891   9.617   2.051   8.457
15217WAT      O45892   4.152   1.619   0.475
15217WAT     H145893   4.058   1.654   0.479
15217WAT     H245894   4.189   1.611   0.567
15218WAT      O45895   2.787   6.067   1.333
15218WAT     H145896   2.846   6.073   1.414
15218WAT     H245897   2.821   5.994   1.273
15219WAT      O45898   3.709   8.048   9.890
15219WAT     H145899   3.624   8.048   9.837
15219WAT     H245900   3.738   7.954   9.907
15220WAT      O45901   0.080   7.107   7.426
15220WAT     H145902   0.152   7.069   7.368
15220WAT     H245903   0.002   7.045   7.427
15221WAT      O45904   1.619   1.317   0.838
15221WAT     H145905   1.569   1.279   0.760
15221WAT     H245906   1.595   1.413   0.850
15222WAT      O45907   5.045   4.561   0.004
15222WAT     H145908   5.067   4.551   0.101
15222WAT     H245909   4.983   4.638  -0.008
15223WAT      O45910   8.308   1.658   8.457
15223WAT     H145911   8.237   1.671   8.389
15223WAT     H245912   8.298   1.725   8.530
15224WAT      O45913   9.680   4.840   3.603
15224WAT     H145914   9.754   4.904   3.624
15224WAT     H245915   9.673   4.828   3.504
15225WAT      O45916   1.056   3.083   9.034
15225WAT     H145917   1.135   3.024   9.045
15225WAT     H245918   1.003   3.054   8.954
15226WAT      O45919   6.036   9.069   8.609
15226WAT     H145920   6.031   8.971   8.627
15226WAT     H245921   6.070   9.117   8.690
15227WAT      O45922   4.294   3.325   1.641
15227WAT     H145923   4.315   3.254   1.574
15227WAT     H245924   4.374   3.340   1.699
15228WAT      O45925   3.356   2.970   2.916
15228WAT     H145926   3.417   2.904   2.960
15228WAT     H245927   3.378   2.977   2.819
15229WAT      O45928   3.481   0.551   4.532
15229WAT     H145929   3.466   0.579   4.627
15229WAT     H245930   3.401   0.503   4.498
15230WAT      O45931   1.850   0.491   4.790
15230WAT     H145932   1.802   0.573   4.822
15230WAT     H245933   1.945   0.513   4.770
15231WAT      O45934   0.784   2.515   5.704
15231WAT     H145935   0.711   2.509   5.636
15231WAT     H245936   0.818   2.609   5.709
15232WAT      O45937   5.721   5.219   3.066
15232WAT     H145938   5.729   5.316   3.041
15232WAT     H245939   5.774   5.202   3.149
15233WAT      O45940   6.652   5.508   9.587
15233WAT     H145941   6.590   5.572   9.543
15233WAT     H245942   6.672   5.538   9.680
15234WAT      O45943   7.757   8.625   9.279
15234WAT     H145944   7.683   8.685   9.248
15234WAT     H245945   7.755   8.619   9.379
15235WAT      O45946   2.691   5.889   2.807
15235WAT     H145947   2.750   5.858   2.881
15235WAT     H245948   2.743   5.891   2.722
15236WAT      O45949   7.300   4.737   5.685
15236WAT     H145950   7.273   4.727   5.781
15236WAT     H245951   7.252   4.669   5.630
15237WAT      O45952   3.356   2.467   5.339
15237WAT     H145953   3.368   2.372   5.367
15237WAT     H245954   3.401   2.483   5.252
15238WAT      O45955   4.821   8.190   1.916
15238WAT     H145956   4.772   8.262   1.866
15238WAT     H245957   4.819   8.105   1.864
15239WAT      O45958   1.311   5.001   4.741
15239WAT     H145959   1.277   4.951   4.661
15239WAT     H245960   1.345   5.090   4.713
15240WAT      O45961   1.875   2.892   8.945
15240WAT     H145962   1.884   2.975   9.000
15240WAT     H245963   1.953   2.832   8.963
15241WAT      O45964   8.588   8.795   1.934
15241WAT     H145965   8.538   8.783   2.020
15241WAT     H245966   8.523   8.795   1.858
15242WAT      O45967   9.120   2.097   8.799
15242WAT     H145968   9.208   2.051   8.812
15242WAT     H245969   9.111   2.171   8.865
15243WAT      O45970   3.510   5.374   5.107
15243WAT     H145971   3.450   5.306   5.150
15243WAT     H245972   3.559   5.332   5.031
15244WAT      O45973   2.585   5.006   4.084
15244WAT     H145974   2.564   4.911   4.061
15244WAT     H245975   2.542   5.029   4.171
15245WAT      O45976   5.156   5.251   1.234
15245WAT     H145977   5.211   5.333   1.252
15245WAT     H245978   5.059   5.276   1.233
15246WAT      O45979   8.330   6.009   9.199
15246WAT     H145980   8.350   6.010   9.101
15246WAT     H245981   8.392   5.946   9.245
15247WAT      O45982   3.547   8.794   3.502
15247WAT     H145983   3.464   8.740   3.483
15247WAT     H245984   3.624   8.732   3.514
15248WAT      O45985   4.592   5.009   7.060
15248WAT     H145986   4.505   5.041   7.020
15248WAT     H245987   4.625   4.930   7.008
15249WAT      O45988   3.233   9.333   5.912
15249WAT     H145989   3.284   9.399   5.856
15249WAT     H245990   3.272   9.331   6.004
15250WAT      O45991   5.988   0.606   7.299
15250WAT     H145992   6.015   0.668   7.374
15250WAT     H245993   5.940   0.527   7.337
15251WAT      O45994   1.329   3.498   5.771
15251WAT     H145995   1.249   3.452   5.732
15251WAT     H245996   1.378   3.547   5.699
15252WAT      O45997   4.777   7.370   9.678
15252WAT     H145998   4.702   7.406   9.734
15252WAT     H245999   4.782   7.420   9.592
15253WAT      O46000   3.544   3.126   6.142
15253WAT     H146001   3.600   3.075   6.077
15253WAT     H246002   3.588   3.124   6.232
15254WAT      O46003   3.635   6.030   8.394
15254WAT     H146004   3.605   5.944   8.434
15254WAT     H246005   3.735   6.038   8.401
15255WAT      O46006   8.054   7.536   4.598
15255WAT     H146007   7.955   7.546   4.593
15255WAT     H246008   8.092   7.610   4.653
15256WAT      O46009   9.461   5.956   4.671
15256WAT     H146010   9.424   6.035   4.721
15256WAT     H246011   9.386   5.909   4.624
15257WAT      O46012   9.704   9.613   4.665
15257WAT     H146013   9.634   9.673   4.704
15257WAT     H246014   9.668   9.568   4.584
15258WAT      O46015   3.593   1.200   1.946
15258WAT     H146016   3.585   1.151   2.033
15258WAT     H246017   3.553   1.291   1.956
15259WAT      O46018   1.767   2.578   8.219
15259WAT     H146019   1.712   2.534   8.148
15259WAT     H246020   1.786   2.512   8.293
15260WAT      O46021   1.107   6.314   6.627
15260WAT     H146022   1.048   6.262   6.688
15260WAT     H246023   1.053   6.353   6.553
15261WAT      O46024   9.279   8.405   7.086
15261WAT     H146025   9.251   8.315   7.052
15261WAT     H246026   9.209   8.473   7.064
15262WAT      O46027   4.335   7.237   3.369
15262WAT     H146028   4.312   7.146   3.404
15262WAT     H246029   4.317   7.241   3.271
15263WAT      O46030   9.321   7.800   1.942
15263WAT     H146031   9.299   7.767   2.034
15263WAT     H246032   9.404   7.856   1.946
15264WAT      O46033   0.096   5.620   4.041
15264WAT     H146034   0.063   5.533   4.077
15264WAT     H246035   0.165   5.604   3.971
15265WAT      O46036   2.860   0.973   4.711
15265WAT     H146037   2.884   0.908   4.639
15265WAT     H246038   2.766   1.002   4.699
15266WAT      O46039   4.715   1.567   9.398
15266WAT     H146040   4.731   1.536   9.305
15266WAT     H246041   4.724   1.490   9.461
15267WAT      O46042   5.301   7.409   7.021
15267WAT     H146043   5.357   7.423   6.940
15267WAT     H246044   5.204   7.416   6.997
15268WAT      O46045   5.233   5.833   0.743
15268WAT     H146046   5.204   5.737   0.743
15268WAT     H246047   5.178   5.884   0.810
15269WAT      O46048   8.943   1.216   5.444
15269WAT     H146049   8.889   1.297   5.422
15269WAT     H246050   8.922   1.186   5.537
15270WAT      O46051   7.146   1.186   6.111
15270WAT     H146052   7.096   1.271   6.125
15270WAT     H246053   7.113   1.117   6.175
15271WAT      O46054   5.581   1.165   4.851
15271WAT     H146055   5.667   1.115   4.862
15271WAT     H246056   5.543   1.187   4.941
15272WAT      O46057   1.397   5.446   8.875
15272WAT     H146058   1.440   5.359   8.854
15272WAT     H246059   1.467   5.514   8.896
15273WAT      O46060   8.424   3.471   4.748
15273WAT     H146061   8.442   3.566   4.724
15273WAT     H246062   8.382   3.424   4.670
15274WAT      O46063   9.762   1.578   6.468
15274WAT     H146064   9.740   1.540   6.378
15274WAT     H246065   9.781   1.504   6.532
15275WAT      O46066   9.328   7.763   7.595
15275WAT     H146067   9.401   7.744   7.661
15275WAT     H246068   9.240   7.767   7.643
15276WAT      O46069   5.798   5.446   2.916
15276WAT     H146070   5.729   5.461   2.845
15276WAT     H246071   5.835   5.534   2.945
15277WAT      O46072   3.955   3.160   7.134
15277WAT     H146073   3.986   3.170   7.229
15277WAT     H246074   3.919   3.247   7.102
15278WAT      O46075   8.146   6.236   4.271
15278WAT     H146076   8.193   6.172   4.211
15278WAT     H246077   8.156   6.207   4.366
15279WAT      O46078   9.627   5.351   2.793
15279WAT     H146079   9.660   5.257   2.783
15279WAT     H246080   9.527   5.352   2.781
15280WAT      O46081   6.929   5.758   6.368
15280WAT     H146082   6.916   5.667   6.330
15280WAT     H246083   6.886   5.764   6.458
15281WAT      O46084   8.287   5.369   8.419
15281WAT     H146085   8.269   5.421   8.335
15281WAT     H246086   8.302   5.433   8.494
15282WAT      O46087   0.535   8.669   7.586
15282WAT     H146088   0.474   8.748   7.585
15282WAT     H246089   0.503   8.603   7.655
15283WAT      O46090   0.550   6.460   9.874
15283WAT     H146091   0.561   6.367   9.908
15283WAT     H246092   0.468   6.500   9.913
15284WAT      O46093   0.062   9.168   0.759
15284WAT     H146094  -0.028   9.187   0.718
15284WAT     H246095   0.056   9.178   0.858
15285WAT      O46096   2.693   0.261   3.786
15285WAT     H146097   2.645   0.198   3.846
15285WAT     H246098   2.668   0.355   3.809
15286WAT      O46099   4.326   9.446   8.340
15286WAT     H146100   4.365   9.512   8.276
15286WAT     H246101   4.240   9.482   8.377
15287WAT      O46102   7.775   0.359   3.493
15287WAT     H146103   7.728   0.441   3.462
15287WAT     H246104   7.820   0.377   3.580
15288WAT      O46105   3.041   1.714   6.059
15288WAT     H146106   3.101   1.735   5.982
15288WAT     H246107   3.083   1.643   6.115
15289WAT      O46108   5.978   7.386   3.454
15289WAT     H146109   6.064   7.338   3.439
15289WAT     H246110   5.969   7.460   3.387
15290WAT      O46111   0.988   7.967   3.010
15290WAT     H146112   0.976   7.903   3.086
15290WAT     H246113   0.926   7.943   2.936
15291WAT      O46114   6.822   8.420   2.001
15291WAT     H146115   6.835   8.475   2.083
15291WAT     H246116   6.726   8.393   1.994
15292WAT      O46117   4.921   6.352   3.511
15292WAT     H146118   4.943   6.423   3.443
15292WAT     H246119   4.872   6.393   3.588
15293WAT      O46120   4.263   7.446   7.689
15293WAT     H146121   4.351   7.476   7.726
15293WAT     H246122   4.192   7.456   7.759
15294WAT      O46123   1.773   5.988   9.728
15294WAT     H146124   1.781   6.078   9.773
15294WAT     H246125   1.685   5.947   9.751
15295WAT      O46126   8.460   7.228   1.135
15295WAT     H146127   8.478   7.260   1.042
15295WAT     H246128   8.534   7.167   1.164
15296WAT      O46129   4.994   1.626   0.383
15296WAT     H146130   5.082   1.586   0.408
15296WAT     H246131   4.920   1.569   0.418
15297WAT      O46132   1.250   5.145   9.849
15297WAT     H146133   1.157   5.140   9.884
15297WAT     H246134   1.315   5.149   9.926
15298WAT      O46135   1.927   9.417   0.273
15298WAT     H146136   2.005   9.425   0.334
15298WAT     H246137   1.910   9.320   0.253
15299WAT      O46138   8.402   7.799   8.537
15299WAT     H146139   8.483   7.852   8.513
15299WAT     H246140   8.411   7.765   8.631
15300WAT      O46141   7.592   6.661   2.639
15300WAT     H146142   7.646   6.683   2.557
15300WAT     H246143   7.507   6.713   2.637
15301WAT      O46144   3.738   5.018   4.594
15301WAT     H146145   3.806   4.999   4.523
15301WAT     H246146   3.761   5.105   4.638
15302WAT      O46147   8.657   4.508   3.757
15302WAT     H146148   8.657   4.409   3.769
15302WAT     H246149   8.608   4.532   3.673
15303WAT      O46150   4.170   7.239   5.562
15303WAT     H146151   4.170   7.140   5.544
15303WAT     H246152   4.076   7.269   5.578
15304WAT      O46153   1.057   6.415   2.976
15304WAT     H146154   1.031   6.392   3.070
15304WAT     H246155   1.152   6.446   2.975
15305WAT      O46156   3.814   6.252   5.971
15305WAT     H146157   3.832   6.164   6.016
15305WAT     H246158   3.854   6.250   5.879
15306WAT      O46159   6.256   7.710   8.673
15306WAT     H146160   6.266   7.769   8.753
15306WAT     H246161   6.188   7.749   8.611
15307WAT      O46162   2.504   5.179   8.472
15307WAT     H146163   2.424   5.233   8.445
15307WAT     H246164   2.532   5.120   8.397
15308WAT      O46165   1.158   8.621   1.277
15308WAT     H146166   1.203   8.663   1.356
15308WAT     H246167   1.169   8.522   1.280
15309WAT      O46168   2.604   6.550   3.720
15309WAT     H146169   2.560   6.462   3.697
15309WAT     H246170   2.534   6.613   3.754
15310WAT      O46171   3.942   3.623   5.187
15310WAT     H146172   3.888   3.548   5.224
15310WAT     H246173   3.975   3.598   5.096
15311WAT      O46174   9.703   6.435   0.762
15311WAT     H146175   9.676   6.530   0.774
15311WAT     H246176   9.640   6.376   0.812
15312WAT      O46177   9.707   6.591   2.008
15312WAT     H146178   9.636   6.544   1.955
15312WAT     H246179   9.669   6.623   2.095
15313WAT      O46180   4.502   2.308   6.645
15313WAT     H146181   4.507   2.249   6.726
15313WAT     H246182   4.423   2.282   6.590
15314WAT      O46183   5.130   8.155   8.769
15314WAT     H146184   5.226   8.131   8.784
15314WAT     H246185   5.089   8.090   8.706
15315WAT      O46186   7.921   4.555   4.963
15315WAT     H146187   7.925   4.463   5.001
15315WAT     H246188   7.962   4.619   5.028
15316WAT      O46189   6.060   4.425   8.169
15316WAT     H146190   5.994   4.358   8.204
15316WAT     H246191   6.103   4.389   8.086
15317WAT      O46192   7.450   1.640   8.430
15317WAT     H146193   7.403   1.726   8.450
15317WAT     H246194   7.514   1.654   8.355
15318WAT      O46195   5.643   2.154   6.476
15318WAT     H146196   5.620   2.076   6.418
15318WAT     H246197   5.560   2.191   6.517
15319WAT      O46198   1.950   3.581   9.653
15319WAT     H146199   1.929   3.519   9.728
15319WAT     H246200   2.048   3.601   9.653
15320WAT      O46201   3.757   3.850   4.083
15320WAT     H146202   3.748   3.948   4.103
15320WAT     H246203   3.811   3.806   4.154
15321WAT      O46204   1.701   5.970   4.058
15321WAT     H146205   1.682   5.913   4.138
15321WAT     H246206   1.616   5.987   4.008
15322WAT      O46207   2.734   6.584   3.048
15322WAT     H146208   2.704   6.571   2.954
15322WAT     H246209   2.829   6.617   3.049
15323WAT      O46210   7.290   5.850   8.046
15323WAT     H146211   7.223   5.904   7.994
15323WAT     H246212   7.304   5.762   8.002
15324WAT      O46213   6.296   8.845   6.039
15324WAT     H146214   6.321   8.754   6.007
15324WAT     H246215   6.359   8.874   6.111
15325WAT      O46216   2.291   2.623   3.027
15325WAT     H146217   2.212   2.586   2.978
15325WAT     H246218   2.298   2.578   3.116
15326WAT      O46219   2.879   0.120   0.537
15326WAT     H146220   2.859   0.038   0.484
15326WAT     H246221   2.840   0.111   0.629
15327WAT      O46222   2.437   4.097   4.597
15327WAT     H146223   2.466   4.031   4.528
15327WAT     H246224   2.506   4.103   4.669
15328WAT      O46225   7.777   1.698   6.927
15328WAT     H146226   7.703   1.763   6.906
15328WAT     H246227   7.835   1.736   6.998
15329WAT      O46228   9.242   2.698   3.561
15329WAT     H146229   9.185   2.653   3.630
15329WAT     H246230   9.187   2.764   3.510
15330WAT      O46231   4.316   4.620   5.925
15330WAT     H146232   4.396   4.589   5.976
15330WAT     H246233   4.239   4.631   5.988
15331WAT      O46234   4.633   1.441   1.234
15331WAT     H146235   4.579   1.444   1.149
15331WAT     H246236   4.662   1.534   1.258
15332WAT      O46237   7.894   0.014   2.004
15332WAT     H146238   7.953   0.083   2.045
15332WAT     H246239   7.798   0.039   2.017
15333WAT      O46240   1.153   0.530   8.603
15333WAT     H146241   1.209   0.587   8.664
15333WAT     H246242   1.143   0.439   8.643
15334WAT      O46243   8.783   5.028   0.063
15334WAT     H146244   8.801   4.993   0.155
15334WAT     H246245   8.689   5.005   0.036
15335WAT      O46246   7.183   1.120   1.773
15335WAT     H146247   7.133   1.118   1.859
15335WAT     H246248   7.278   1.093   1.789
15336WAT      O46249   6.414   6.574   9.416
15336WAT     H146250   6.472   6.605   9.492
15336WAT     H246251   6.471   6.532   9.345
15337WAT      O46252   7.053   9.404   2.361
15337WAT     H146253   7.116   9.335   2.327
15337WAT     H246254   7.104   9.481   2.398
15338WAT      O46255   7.396   2.502   0.586
15338WAT     H146256   7.321   2.537   0.529
15338WAT     H246257   7.483   2.531   0.547
15339WAT      O46258   2.681   2.550   3.299
15339WAT     H146259   2.779   2.570   3.291
15339WAT     H246260   2.637   2.567   3.211
15340WAT      O46261   6.126   1.262   5.300
15340WAT     H146262   6.153   1.340   5.358
15340WAT     H246263   6.050   1.214   5.343
15341WAT      O46264   8.061   3.585   8.858
15341WAT     H146265   8.097   3.669   8.817
15341WAT     H246266   7.970   3.567   8.820
15342WAT      O46267   5.894   0.663   1.317
15342WAT     H146268   5.964   0.597   1.347
15342WAT     H246269   5.934   0.754   1.314
15343WAT      O46270   3.868   0.464   0.593
15343WAT     H146271   3.796   0.425   0.535
15343WAT     H246272   3.924   0.391   0.631
15344WAT      O46273   8.327   3.319   8.586
15344WAT     H146274   8.352   3.356   8.497
15344WAT     H246275   8.402   3.263   8.622
15345WAT      O46276   8.344   8.481   8.173
15345WAT     H146277   8.330   8.559   8.111
15345WAT     H246278   8.319   8.508   8.266
15346WAT      O46279   4.129   2.813   3.819
15346WAT     H146280   4.175   2.740   3.768
15346WAT     H246281   4.193   2.853   3.885
15347WAT      O46282   3.024   7.871   7.574
15347WAT     H146283   3.064   7.796   7.522
15347WAT     H246284   2.950   7.912   7.521
15348WAT      O46285   5.152   6.917   1.210
15348WAT     H146286   5.076   6.890   1.269
15348WAT     H246287   5.141   7.014   1.185
15349WAT      O46288   3.048   3.754   1.499
15349WAT     H146289   3.102   3.778   1.419
15349WAT     H246290   3.008   3.663   1.487
15350WAT      O46291   0.732   5.433   9.126
15350WAT     H146292   0.792   5.408   9.050
15350WAT     H246293   0.685   5.351   9.158
15351WAT      O46294   3.267   7.666   8.707
15351WAT     H146295   3.189   7.729   8.704
15351WAT     H246296   3.289   7.635   8.615
15352WAT      O46297   1.926   4.753   2.658
15352WAT     H146298   1.929   4.675   2.596
15352WAT     H246299   1.910   4.836   2.606
15353WAT      O46300   8.210   5.687   2.321
15353WAT     H146301   8.280   5.758   2.332
15353WAT     H246302   8.146   5.714   2.249
15354WAT      O46303   8.015   4.439   5.253
15354WAT     H146304   7.978   4.348   5.233
15354WAT     H246305   8.115   4.436   5.253
15355WAT      O46306   0.932   3.688   3.479
15355WAT     H146307   0.901   3.720   3.389
15355WAT     H246308   1.028   3.713   3.491
15356WAT      O46309   5.333   2.944   3.470
15356WAT     H146310   5.253   2.995   3.500
15356WAT     H246311   5.310   2.847   3.460
15357WAT      O46312   1.795   1.784   4.340
15357WAT     H146313   1.793   1.722   4.419
15357WAT     H246314   1.890   1.801   4.314
15358WAT      O46315   3.981   1.543   2.977
15358WAT     H146316   4.010   1.455   2.938
15358WAT     H246317   4.062   1.596   3.002
15359WAT      O46318   3.691   8.425   7.870
15359WAT     H146319   3.646   8.392   7.787
15359WAT     H246320   3.785   8.390   7.873
15360WAT      O46321   1.491   9.156   8.509
15360WAT     H146322   1.487   9.255   8.523
15360WAT     H246323   1.476   9.110   8.597
15361WAT      O46324   9.389   2.484   1.467
15361WAT     H146325   9.445   2.529   1.397
15361WAT     H246326   9.448   2.448   1.539
15362WAT      O46327   6.576   4.637   7.003
15362WAT     H146328   6.519   4.629   6.921
15362WAT     H246329   6.519   4.622   7.084
15363WAT      O46330   1.612   4.405   2.889
15363WAT     H146331   1.661   4.482   2.849
15363WAT     H246332   1.619   4.408   2.989
15364WAT      O46333   5.871   7.867   7.792
15364WAT     H146334   5.813   7.787   7.777
15364WAT     H246335   5.898   7.871   7.888
15365WAT      O46336   2.228   1.820   5.502
15365WAT     H146337   2.164   1.875   5.448
15365WAT     H246338   2.216   1.723   5.479
15366WAT      O46339   5.027   3.209   4.725
15366WAT     H146340   5.032   3.297   4.677
15366WAT     H246341   4.998   3.138   4.660
15367WAT      O46342   0.217   0.186   6.937
15367WAT     H146343   0.195   0.176   7.034
15367WAT     H246344   0.316   0.183   6.925
15368WAT      O46345   7.225   0.565   3.461
15368WAT     H146346   7.208   0.591   3.365
15368WAT     H246347   7.323   0.573   3.480
15369WAT      O46348   2.988   3.243   8.759
15369WAT     H146349   2.918   3.294   8.709
15369WAT     H246350   3.076   3.252   8.712
15370WAT      O46351   8.066   5.972   5.547
15370WAT     H146352   7.981   5.968   5.598
15370WAT     H246353   8.123   6.046   5.582
15371WAT      O46354   4.624   4.254   2.934
15371WAT     H146355   4.532   4.250   2.974
15371WAT     H246356   4.627   4.198   2.851
15372WAT      O46357   9.273   4.929   0.152
15372WAT     H146358   9.200   4.918   0.220
15372WAT     H246359   9.232   4.944   0.062
15373WAT      O46360   0.689   8.825   6.387
15373WAT     H146361   0.626   8.842   6.463
15373WAT     H246362   0.699   8.726   6.374
15374WAT      O46363   5.295   7.660   8.285
15374WAT     H146364   5.306   7.698   8.377
15374WAT     H246365   5.239   7.722   8.229
15375WAT      O46366   6.153   8.065   9.403
15375WAT     H146367   6.194   8.106   9.484
15375WAT     H246368   6.224   8.042   9.337
15376WAT      O46369   2.496   8.287   6.293
15376WAT     H146370   2.420   8.224   6.308
15376WAT     H246371   2.542   8.262   6.207
15377WAT      O46372   9.336   5.326   8.601
15377WAT     H146373   9.254   5.270   8.588
15377WAT     H246374   9.324   5.383   8.683
15378WAT      O46375   0.296   4.203   9.278
15378WAT     H146376   0.228   4.130   9.284
15378WAT     H246377   0.258   4.279   9.226
15379WAT      O46378   6.979   6.852   7.525
15379WAT     H146379   7.011   6.757   7.524
15379WAT     H246380   6.916   6.864   7.602
15380WAT      O46381   8.191   6.562   4.630
15380WAT     H146382   8.246   6.533   4.709
15380WAT     H246383   8.097   6.529   4.642
15381WAT      O46384   3.538   6.237   0.748
15381WAT     H146385   3.514   6.263   0.655
15381WAT     H246386   3.465   6.264   0.811
15382WAT      O46387   3.044   6.174   7.108
15382WAT     H146388   3.008   6.202   7.198
15382WAT     H246389   3.060   6.075   7.108
15383WAT      O46390   6.496   2.543   8.640
15383WAT     H146391   6.572   2.508   8.694
15383WAT     H246392   6.520   2.633   8.602
15384WAT      O46393   3.097   2.752   9.571
15384WAT     H146394   3.017   2.770   9.513
15384WAT     H246395   3.069   2.754   9.667
15385WAT      O46396   1.325   9.481   6.610
15385WAT     H146397   1.316   9.564   6.666
15385WAT     H246398   1.235   9.453   6.577
15386WAT      O46399   3.736   6.601   0.951
15386WAT     H146400   3.775   6.516   0.917
15386WAT     H246401   3.636   6.594   0.952
15387WAT      O46402   7.586   2.579   3.042
15387WAT     H146403   7.579   2.672   3.006
15387WAT     H246404   7.631   2.581   3.131
15388WAT      O46405   8.066   7.175   9.208
15388WAT     H146406   7.995   7.112   9.239
15388WAT     H246407   8.151   7.124   9.193
15389WAT      O46408   4.702   2.505   0.203
15389WAT     H146409   4.717   2.514   0.105
15389WAT     H246410   4.764   2.568   0.251
15390WAT      O46411   2.106   4.233   5.842
15390WAT     H146412   2.110   4.262   5.937
15390WAT     H246413   2.011   4.235   5.810
15391WAT      O46414   9.468   6.506   4.280
15391WAT     H146415   9.515   6.451   4.348
15391WAT     H246416   9.536   6.561   4.230
15392WAT      O46417   6.931   9.826   4.065
15392WAT     H146418   6.960   9.905   4.119
15392WAT     H246419   6.923   9.746   4.124
15393WAT      O46420   0.810   1.596   8.380
15393WAT     H146421   0.777   1.517   8.432
15393WAT     H246422   0.817   1.675   8.441
15394WAT      O46423   8.943   8.623   6.115
15394WAT     H146424   8.913   8.709   6.075
15394WAT     H246425   8.994   8.570   6.048
15395WAT      O46426   2.843   2.714   2.005
15395WAT     H146427   2.790   2.784   1.957
15395WAT     H246428   2.792   2.628   2.006
15396WAT      O46429   2.391   2.092   0.389
15396WAT     H146430   2.450   2.171   0.402
15396WAT     H246431   2.446   2.015   0.356
15397WAT      O46432   7.818   5.335   8.112
15397WAT     H146433   7.883   5.279   8.060
15397WAT     H246434   7.800   5.291   8.200
15398WAT      O46435   4.784   6.615   0.876
15398WAT     H146436   4.816   6.594   0.969
15398WAT     H246437   4.707   6.557   0.853
15399WAT      O46438   5.453   6.828   5.275
15399WAT     H146439   5.495   6.791   5.193
15399WAT     H246440   5.468   6.926   5.280
15400WAT      O46441   4.611   0.841   2.606
15400WAT     H146442   4.621   0.859   2.509
15400WAT     H246443   4.624   0.743   2.623
15401WAT      O46444   9.831   1.782   9.225
15401WAT     H146445   9.738   1.772   9.189
15401WAT     H246446   9.897   1.762   9.153
15402WAT      O46447   9.699   8.715   0.697
15402WAT     H146448   9.730   8.642   0.758
15402WAT     H246449   9.777   8.753   0.648
15403WAT      O46450   7.529   0.419   2.856
15403WAT     H146451   7.506   0.347   2.921
15403WAT     H246452   7.627   0.420   2.839
15404WAT      O46453   6.752   6.102   6.413
15404WAT     H146454   6.806   6.117   6.496
15404WAT     H246455   6.793   6.027   6.361
15405WAT      O46456   8.887   0.121   8.393
15405WAT     H146457   8.826   0.189   8.432
15405WAT     H246458   8.954   0.093   8.461
15406WAT      O46459   5.272   3.503   5.052
15406WAT     H146460   5.297   3.541   4.963
15406WAT     H246461   5.196   3.554   5.090
15407WAT      O46462   7.127   6.644   4.844
15407WAT     H146463   7.040   6.596   4.841
15407WAT     H246464   7.135   6.693   4.931
15408WAT      O46465   0.548   5.519   8.471
15408WAT     H146466   0.489   5.440   8.488
15408WAT     H246467   0.494   5.603   8.475
15409WAT      O46468   4.782   7.629   8.561
15409WAT     H146469   4.877   7.601   8.557
15409WAT     H246470   4.744   7.606   8.651
15410WAT      O46471   3.360   8.865   4.288
15410WAT     H146472   3.296   8.941   4.275
15410WAT     H246473   3.391   8.831   4.199
15411WAT      O46474   2.961   8.120   7.956
15411WAT     H146475   2.903   8.068   7.893
15411WAT     H246476   2.916   8.127   8.045
15412WAT      O46477   8.076   1.147   0.397
15412WAT     H146478   8.001   1.169   0.459
15412WAT     H246479   8.153   1.208   0.416
15413WAT      O46480   3.942   7.833   9.695
15413WAT     H146481   3.906   7.754   9.745
15413WAT     H246482   3.900   7.837   9.604
15414WAT      O46483   8.959   2.159   2.729
15414WAT     H146484   8.928   2.200   2.643
15414WAT     H246485   8.880   2.125   2.780
15415WAT      O46486   2.938   6.775   5.675
15415WAT     H146487   2.989   6.750   5.758
15415WAT     H246488   2.927   6.694   5.618
15416WAT      O46489   7.542   5.722   1.405
15416WAT     H146490   7.600   5.759   1.477
15416WAT     H246491   7.494   5.796   1.359
15417WAT      O46492   2.484   0.737   6.469
15417WAT     H146493   2.553   0.665   6.482
15417WAT     H246494   2.475   0.757   6.372
15418WAT      O46495   6.338   8.533   1.332
15418WAT     H146496   6.247   8.550   1.293
15418WAT     H246497   6.406   8.587   1.283
15419WAT      O46498   0.930   7.573   4.045
15419WAT     H146499   0.958   7.481   4.018
15419WAT     H246500   0.835   7.589   4.017
15420WAT      O46501   7.623   2.634   3.646
15420WAT     H146502   7.683   2.653   3.724
15420WAT     H246503   7.528   2.636   3.676
15421WAT      O46504   4.688   7.831   1.485
15421WAT     H146505   4.677   7.866   1.392
15421WAT     H246506   4.782   7.799   1.498
15422WAT      O46507   2.735   0.847   5.243
15422WAT     H146508   2.705   0.778   5.177
15422WAT     H246509   2.668   0.921   5.245
15423WAT      O46510   2.577   0.825   9.718
15423WAT     H146511   2.492   0.803   9.670
15423WAT     H246512   2.563   0.816   9.817
15424WAT      O46513   1.275   6.859   8.722
15424WAT     H146514   1.364   6.830   8.757
15424WAT     H246515   1.283   6.884   8.626
15425WAT      O46516   3.149   1.209   9.276
15425WAT     H146517   3.060   1.170   9.300
15425WAT     H246518   3.198   1.145   9.217
15426WAT      O46519   7.667   0.325   2.512
15426WAT     H146520   7.690   0.414   2.472
15426WAT     H246521   7.571   0.326   2.542
15427WAT      O46522   2.791   4.060   0.724
15427WAT     H146523   2.803   4.129   0.652
15427WAT     H246524   2.742   3.981   0.687
15428WAT      O46525   4.134   9.832   2.621
15428WAT     H146526   4.194   9.828   2.702
15428WAT     H246527   4.085   9.745   2.613
15429WAT      O46528   0.341   4.238   0.802
15429WAT     H146529   0.367   4.183   0.882
15429WAT     H246530   0.243   4.255   0.804
15430WAT      O46531   9.236   7.662   3.693
15430WAT     H146532   9.147   7.671   3.648
15430WAT     H246533   9.308   7.699   3.634
15431WAT      O46534   7.910   6.995   6.776
15431WAT     H146535   7.829   7.052   6.760
15431WAT     H246536   7.949   6.968   6.688
15432WAT      O46537   5.786   1.290   2.466
15432WAT     H146538   5.861   1.247   2.414
15432WAT     H246539   5.699   1.273   2.420
15433WAT      O46540   7.767   9.366   3.612
15433WAT     H146541   7.808   9.291   3.561
15433WAT     H246542   7.754   9.338   3.708
15434WAT      O46543   0.876   9.383   3.108
15434WAT     H146544   0.855   9.468   3.157
15434WAT     H246545   0.790   9.339   3.081
15435WAT      O46546   3.919   7.593   6.274
15435WAT     H146547   3.846   7.661   6.279
15435WAT     H246548   4.001   7.636   6.237
15436WAT      O46549   0.515   0.274   7.850
15436WAT     H146550   0.427   0.308   7.882
15436WAT     H246551   0.584   0.347   7.858
15437WAT      O46552   0.103   3.534   8.071
15437WAT     H146553   0.177   3.601   8.064
15437WAT     H246554   0.078   3.522   8.167
15438WAT      O46555   6.207   7.746   1.486
15438WAT     H146556   6.194   7.829   1.539
15438WAT     H246557   6.304   7.721   1.488
15439WAT      O46558   7.179   3.043   7.490
15439WAT     H146559   7.239   2.963   7.482
15439WAT     H246560   7.224   3.113   7.546
15440WAT      O46561   2.957   3.490   2.113
15440WAT     H146562   2.911   3.578   2.119
15440WAT     H246563   3.053   3.504   2.086
15441WAT      O46564   5.255   5.435   0.404
15441WAT     H146565   5.315   5.507   0.368
15441WAT     H246566   5.297   5.346   0.389
15442WAT      O46567   4.063   8.486   6.145
15442WAT     H146568   4.146   8.448   6.104
15442WAT     H246569   3.993   8.414   6.153
15443WAT      O46570   0.084   7.505   5.938
15443WAT     H146571   0.180   7.523   5.917
15443WAT     H246572   0.067   7.406   5.933
15444WAT      O46573   0.545   1.729   7.523
15444WAT     H146574   0.512   1.731   7.429
15444WAT     H246575   0.613   1.656   7.533
15445WAT      O46576   6.178   9.417   6.573
15445WAT     H146577   6.127   9.351   6.517
15445WAT     H246578   6.175   9.388   6.669
15446WAT      O46579   3.519   6.534   3.944
15446WAT     H146580   3.447   6.521   3.875
15446WAT     H246581   3.482   6.511   4.034
15447WAT      O46582   1.155   4.861   5.176
15447WAT     H146583   1.182   4.878   5.271
15447WAT     H246584   1.228   4.889   5.115
15448WAT      O46585   2.604   1.743   7.566
15448WAT     H146586   2.653   1.656   7.575
15448WAT     H246587   2.662   1.810   7.521
15449WAT      O46588   9.134   4.031   1.040
15449WAT     H146589   9.045   4.075   1.049
15449WAT     H246590   9.138   3.951   1.100
15450WAT      O46591   9.525   6.345   7.752
15450WAT     H146592   9.479   6.287   7.685
15450WAT     H246593   9.464   6.361   7.829
15451WAT      O46594   8.755   6.748   0.338
15451WAT     H146595   8.767   6.834   0.387
15451WAT     H246596   8.775   6.671   0.399
15452WAT      O46597   0.098   9.723   3.141
15452WAT     H146598   0.128   9.737   3.235
15452WAT     H246599   0.163   9.768   3.079
15453WAT      O46600   2.439   7.889   6.350
15453WAT     H146601   2.381   7.840   6.285
15453WAT     H246602   2.454   7.831   6.430
15454WAT      O46603   2.623   0.918   1.024
15454WAT     H146604   2.674   0.854   0.966
15454WAT     H246605   2.627   0.888   1.119
15455WAT      O46606   5.910   4.090   7.527
15455WAT     H146607   5.904   4.003   7.576
15455WAT     H246608   5.900   4.074   7.429
15456WAT      O46609   2.456   0.677   2.213
15456WAT     H146610   2.375   0.695   2.158
15456WAT     H246611   2.535   0.723   2.172
15457WAT      O46612   2.271   5.917   3.062
15457WAT     H146613   2.356   5.884   3.022
15457WAT     H246614   2.285   6.010   3.097
15458WAT      O46615   4.674   7.761   9.413
15458WAT     H146616   4.598   7.705   9.379
15458WAT     H246617   4.736   7.704   9.467
15459WAT      O46618   5.351   2.242   8.318
15459WAT     H146619   5.427   2.186   8.284
15459WAT     H246620   5.290   2.185   8.373
15460WAT      O46621   0.088   6.435   5.119
15460WAT     H146622   0.157   6.439   5.192
15460WAT     H246623   0.009   6.383   5.152
15461WAT      O46624   4.059   8.328   4.834
15461WAT     H146625   4.007   8.249   4.799
15461WAT     H246626   4.127   8.355   4.767
15462WAT      O46627   8.705   1.745   4.520
15462WAT     H146628   8.761   1.685   4.577
15462WAT     H246629   8.621   1.698   4.494
15463WAT      O46630   1.235   0.471   2.833
15463WAT     H146631   1.177   0.393   2.856
15463WAT     H246632   1.179   0.544   2.793
15464WAT      O46633   8.683   9.692   9.093
15464WAT     H146634   8.770   9.698   9.043
15464WAT     H246635   8.701   9.686   9.191
15465WAT      O46636   1.586   6.656   3.378
15465WAT     H146637   1.664   6.642   3.316
15465WAT     H246638   1.605   6.734   3.438
15466WAT      O46639   1.029   4.758   1.665
15466WAT     H146640   1.012   4.849   1.703
15466WAT     H246641   0.941   4.713   1.647
15467WAT      O46642   4.292   8.540   6.702
15467WAT     H146643   4.334   8.542   6.611
15467WAT     H246644   4.193   8.545   6.694
15468WAT      O46645   6.278   0.046   5.245
15468WAT     H146646   6.221  -0.036   5.244
15468WAT     H246647   6.225   0.122   5.283
15469WAT      O46648   6.459   2.594   5.784
15469WAT     H146649   6.488   2.659   5.713
15469WAT     H246650   6.359   2.596   5.792
15470WAT      O46651   7.198   4.401   9.836
15470WAT     H146652   7.231   4.455   9.913
15470WAT     H246653   7.269   4.397   9.765
15471WAT      O46654   2.353   8.391   3.449
15471WAT     H146655   2.449   8.381   3.475
15471WAT     H246656   2.344   8.390   3.350
15472WAT      O46657   0.661   6.479   0.779
15472WAT     H146658   0.625   6.566   0.745
15472WAT     H246659   0.618   6.404   0.730
15473WAT      O46660   0.450   9.474   9.308
15473WAT     H146661   0.411   9.441   9.223
15473WAT     H246662   0.503   9.557   9.291
15474WAT      O46663   9.818   5.568   2.768
15474WAT     H146664   9.866   5.571   2.856
15474WAT     H246665   9.758   5.488   2.765
15475WAT      O46666   7.069   1.846   6.017
15475WAT     H146667   7.161   1.841   6.054
15475WAT     H246668   7.038   1.941   6.016
15476WAT      O46669   9.363   2.993   8.013
15476WAT     H146670   9.314   2.978   7.928
15476WAT     H246671   9.456   2.957   8.005
15477WAT      O46672   1.748   8.494   4.095
15477WAT     H146673   1.777   8.400   4.075
15477WAT     H246674   1.729   8.502   4.193
15478WAT      O46675   2.884   1.776   1.661
15478WAT     H146676   2.811   1.763   1.593
15478WAT     H246677   2.885   1.871   1.691
15479WAT      O46678   3.804   3.418   5.304
15479WAT     H146679   3.782   3.339   5.361
15479WAT     H246680   3.722   3.449   5.257
15480WAT      O46681   4.180   3.833   9.335
15480WAT     H146682   4.244   3.898   9.376
15480WAT     H246683   4.193   3.832   9.236
15481WAT      O46684   3.148   9.645   1.060
15481WAT     H146685   3.212   9.671   0.987
15481WAT     H246686   3.116   9.552   1.044
15482WAT      O46687   9.075   0.361   4.547
15482WAT     H146688   9.111   0.449   4.515
15482WAT     H246689   9.134   0.287   4.515
15483WAT      O46690   9.309   0.518   9.157
15483WAT     H146691   9.272   0.472   9.076
15483WAT     H246692   9.264   0.606   9.168
15484WAT      O46693   7.917   1.468   9.016
15484WAT     H146694   7.880   1.378   8.996
15484WAT     H246695   8.015   1.470   8.992
15485WAT      O46696   9.590   0.501   6.442
15485WAT     H146697   9.614   0.577   6.503
15485WAT     H246698   9.671   0.443   6.429
15486WAT      O46699   9.434   0.855   8.428
15486WAT     H146700   9.468   0.761   8.421
15486WAT     H246701   9.348   0.855   8.479
15487WAT      O46702   4.000   0.185   6.918
15487WAT     H146703   4.013   0.284   6.931
15487WAT     H246704   3.919   0.169   6.861
15488WAT      O46705   6.880   1.357   6.431
15488WAT     H146706   6.895   1.259   6.445
15488WAT     H246707   6.968   1.404   6.423
15489WAT      O46708   5.927   6.751   6.588
15489WAT     H146709   5.959   6.676   6.646
15489WAT     H246710   5.938   6.727   6.492
15490WAT      O46711   1.400   4.221   8.267
15490WAT     H146712   1.337   4.161   8.315
15490WAT     H246713   1.489   4.220   8.313
15491WAT      O46714   8.356   6.869   2.101
15491WAT     H146715   8.274   6.926   2.092
15491WAT     H246716   8.395   6.853   2.011
15492WAT      O46717   2.584   7.168   1.744
15492WAT     H146718   2.514   7.231   1.779
15492WAT     H246719   2.570   7.154   1.646
15493WAT      O46720   8.655   7.848   3.736
15493WAT     H146721   8.586   7.793   3.689
15493WAT     H246722   8.714   7.788   3.790
15494WAT      O46723   3.185   6.787   6.102
15494WAT     H146724   3.259   6.819   6.042
15494WAT     H246725   3.209   6.697   6.139
15495WAT      O46726   7.510   4.224   7.762
15495WAT     H146727   7.500   4.261   7.669
15495WAT     H246728   7.578   4.277   7.812
15496WAT      O46729   5.253   7.128   1.890
15496WAT     H146730   5.206   7.167   1.810
15496WAT     H246731   5.247   7.192   1.966
15497WAT      O46732   5.594   5.904   2.113
15497WAT     H146733   5.566   5.819   2.068
15497WAT     H246734   5.517   5.968   2.116
15498WAT      O46735   9.000   2.063   5.489
15498WAT     H146736   9.014   1.965   5.476
15498WAT     H246737   8.918   2.092   5.440
15499WAT      O46738   9.522   1.856   7.157
15499WAT     H146739   9.563   1.927   7.099
15499WAT     H246740   9.512   1.891   7.250
15500WAT      O46741   0.690   3.957   9.461
15500WAT     H146742   0.758   4.004   9.517
15500WAT     H246743   0.639   4.024   9.407
15501WAT      O46744   4.899   5.540   4.970
15501WAT     H146745   4.983   5.589   4.948
15501WAT     H246746   4.891   5.459   4.912
15502WAT      O46747   6.394   2.216   4.130
15502WAT     H146748   6.329   2.167   4.188
15502WAT     H246749   6.349   2.241   4.044
15503WAT      O46750   7.362   9.588   4.105
15503WAT     H146751   7.281   9.529   4.103
15503WAT     H246752   7.339   9.674   4.151
15504WAT      O46753   1.248   3.586   3.781
15504WAT     H146754   1.346   3.593   3.800
15504WAT     H246755   1.200   3.659   3.829
15505WAT      O46756   0.717   6.606   2.721
15505WAT     H146757   0.646   6.539   2.702
15505WAT     H246758   0.807   6.565   2.706
15506WAT      O46759   7.120   9.454   4.156
15506WAT     H146760   7.042   9.515   4.173
15506WAT     H246761   7.103   9.402   4.073
15507WAT      O46762   3.930   8.129   1.864
15507WAT     H146763   3.925   8.229   1.866
15507WAT     H246764   3.855   8.090   1.917
15508WAT      O46765   3.582   3.922   1.462
15508WAT     H146766   3.624   3.882   1.382
15508WAT     H246767   3.626   3.886   1.545
15509WAT      O46768   7.169   0.601   9.516
15509WAT     H146769   7.172   0.683   9.458
15509WAT     H246770   7.226   0.530   9.475
15510WAT      O46771   4.098   4.646   6.099
15510WAT     H146772   4.004   4.668   6.074
15510WAT     H246773   4.130   4.710   6.169
15511WAT      O46774   3.625   0.912   9.609
15511WAT     H146775   3.673   0.848   9.550
15511WAT     H246776   3.553   0.864   9.659
15512WAT      O46777   6.509   7.949   3.782
15512WAT     H146778   6.538   7.864   3.739
15512WAT     H246779   6.583   7.984   3.839
15513WAT      O46780   3.084   3.876   0.049
15513WAT     H146781   3.097   3.954  -0.012
15513WAT     H246782   3.118   3.793   0.004
15514WAT      O46783   1.021   1.808   4.988
15514WAT     H146784   0.995   1.905   4.995
15514WAT     H246785   0.959   1.762   4.924
15515WAT      O46786   6.176   3.943   3.614
15515WAT     H146787   6.249   3.878   3.595
15515WAT     H246788   6.088   3.904   3.586
15516WAT      O46789   9.663   4.499   9.443
15516WAT     H146790   9.695   4.560   9.371
15516WAT     H246791   9.741   4.468   9.497
15517WAT      O46792   7.144   1.143   7.787
15517WAT     H146793   7.101   1.233   7.780
15517WAT     H246794   7.136   1.109   7.880
15518WAT      O46795   1.147   0.319   8.788
15518WAT     H146796   1.159   0.229   8.830
15518WAT     H246797   1.062   0.360   8.823
15519WAT      O46798   1.940   6.554   2.312
15519WAT     H146799   1.917   6.524   2.405
15519WAT     H246800   1.867   6.611   2.275
15520WAT      O46801   1.128   5.499   7.814
15520WAT     H146802   1.051   5.479   7.753
15520WAT     H246803   1.193   5.559   7.767
15521WAT      O46804   6.682   5.177   1.990
15521WAT     H146805   6.750   5.230   2.040
15521WAT     H246806   6.679   5.084   2.026
15522WAT      O46807   3.197   1.690   1.900
15522WAT     H146808   3.097   1.685   1.908
15522WAT     H246809   3.224   1.786   1.895
15523WAT      O46810   3.067   6.274   2.480
15523WAT     H146811   3.165   6.268   2.498
15523WAT     H246812   3.047   6.356   2.427
15524WAT      O46813   2.133   8.856   5.521
15524WAT     H146814   2.184   8.774   5.495
15524WAT     H246815   2.178   8.900   5.599
15525WAT      O46816   8.267   0.897   3.000
15525WAT     H146817   8.226   0.989   3.001
15525WAT     H246818   8.338   0.893   2.930
15526WAT      O46819   6.954   6.277   8.639
15526WAT     H146820   6.980   6.186   8.609
15526WAT     H246821   6.942   6.337   8.560
15527WAT      O46822   9.242   9.040   4.159
15527WAT     H146823   9.224   8.953   4.113
15527WAT     H246824   9.339   9.064   4.147
15528WAT      O46825   7.025   8.148   9.421
15528WAT     H146826   7.066   8.166   9.331
15528WAT     H246827   7.046   8.225   9.482
15529WAT      O46828   9.223   7.431   2.240
15529WAT     H146829   9.155   7.445   2.312
15529WAT     H246830   9.178   7.396   2.158
15530WAT      O46831   2.487   9.342   3.485
15530WAT     H146832   2.496   9.441   3.490
15530WAT     H246833   2.489   9.304   3.577
15531WAT      O46834   5.999   2.844   0.099
15531WAT     H146835   5.975   2.925   0.044
15531WAT     H246836   6.058   2.784   0.045
15532WAT      O46837   9.856   9.126   4.136
15532WAT     H146838   9.800   9.093   4.060
15532WAT     H246839   9.942   9.162   4.101
15533WAT      O46840   5.502   5.449   5.620
15533WAT     H146841   5.574   5.505   5.579
15533WAT     H246842   5.466   5.386   5.551
15534WAT      O46843   3.790   1.881   8.302
15534WAT     H146844   3.707   1.938   8.308
15534WAT     H246845   3.865   1.936   8.267
15535WAT      O46846   8.685   5.167   3.092
15535WAT     H146847   8.740   5.223   3.031
15535WAT     H246848   8.719   5.073   3.092
15536WAT      O46849   1.149   0.253   6.343
15536WAT     H146850   1.224   0.269   6.279
15536WAT     H246851   1.064   0.243   6.293
15537WAT      O46852   7.337   1.060   9.454
15537WAT     H146853   7.436   1.069   9.442
15537WAT     H246854   7.309   1.109   9.537
15538WAT      O46855   8.601   7.560   6.900
15538WAT     H146856   8.517   7.574   6.952
15538WAT     H246857   8.600   7.469   6.859
15539WAT      O46858   4.249   2.716   4.544
15539WAT     H146859   4.205   2.742   4.458
15539WAT     H246860   4.234   2.787   4.613
15540WAT      O46861   5.053   2.887   8.774
15540WAT     H146862   5.081   2.983   8.763
15540WAT     H246863   4.953   2.883   8.779
15541WAT      O46864   6.507   5.868   8.660
15541WAT     H146865   6.607   5.878   8.666
15541WAT     H246866   6.475   5.907   8.573
15542WAT      O46867   1.424   0.247   8.213
15542WAT     H146868   1.401   0.224   8.118
15542WAT     H246869   1.455   0.342   8.217
15543WAT      O46870   6.794   3.342   2.518
15543WAT     H146871   6.829   3.291   2.439
15543WAT     H246872   6.731   3.284   2.570
15544WAT      O46873   5.624   3.094   8.296
15544WAT     H146874   5.701   3.148   8.331
15544WAT     H246875   5.658   3.005   8.266
15545WAT      O46876   6.746   8.855   3.883
15545WAT     H146877   6.726   8.826   3.790
15545WAT     H246878   6.674   8.825   3.945
15546WAT      O46879   8.622   7.863   0.198
15546WAT     H146880   8.621   7.841   0.101
15546WAT     H246881   8.674   7.792   0.247
15547WAT      O46882   7.016   7.544   7.795
15547WAT     H146883   7.107   7.549   7.835
15547WAT     H246884   7.023   7.545   7.695
15548WAT      O46885   6.442   5.691   0.635
15548WAT     H146886   6.357   5.700   0.584
15548WAT     H246887   6.482   5.781   0.650
15549WAT      O46888   4.289   6.703   3.474
15549WAT     H146889   4.221   6.631   3.485
15549WAT     H246890   4.328   6.727   3.563
15550WAT      O46891   5.816   7.409   2.895
15550WAT     H146892   5.825   7.494   2.843
15550WAT     H246893   5.719   7.394   2.917
15551WAT      O46894   7.080   6.541   0.180
15551WAT     H146895   7.118   6.599   0.108
15551WAT     H246896   7.139   6.461   0.193
15552WAT      O46897   0.923   7.351   1.971
15552WAT     H146898   0.976   7.272   1.999
15552WAT     H246899   0.838   7.355   2.024
15553WAT      O46900   2.975   7.341   5.401
15553WAT     H146901   2.896   7.305   5.450
15553WAT     H246902   3.046   7.270   5.395
15554WAT      O46903   3.860   6.630   5.351
15554WAT     H146904   3.804   6.638   5.269
15554WAT     H246905   3.953   6.661   5.331
15555WAT      O46906   4.318   7.410   8.569
15555WAT     H146907   4.370   7.333   8.532
15555WAT     H246908   4.356   7.495   8.533
15556WAT      O46909   9.638   7.799   0.829
15556WAT     H146910   9.597   7.768   0.915
15556WAT     H246911   9.567   7.835   0.769
15557WAT      O46912   9.220   7.263   9.712
15557WAT     H146913   9.141   7.249   9.772
15557WAT     H246914   9.226   7.359   9.686
15558WAT      O46915   1.703   1.374   1.620
15558WAT     H146916   1.733   1.295   1.674
15558WAT     H246917   1.776   1.442   1.618
15559WAT      O46918   0.298   3.949   7.988
15559WAT     H146919   0.372   4.007   8.023
15559WAT     H246920   0.222   4.007   7.959
15560WAT      O46921   7.632   1.611   3.308
15560WAT     H146922   7.644   1.514   3.329
15560WAT     H246923   7.544   1.625   3.262
15561WAT      O46924   5.824   2.669   1.786
15561WAT     H146925   5.899   2.661   1.852
15561WAT     H246926   5.806   2.766   1.768
15562WAT      O46927   9.109   5.327   1.194
15562WAT     H146928   9.110   5.279   1.281
15562WAT     H246929   9.116   5.260   1.119
15563WAT      O46930   6.639   6.473   8.447
15563WAT     H146931   6.613   6.397   8.507
15563WAT     H246932   6.576   6.550   8.461
15564WAT      O46933   6.893   9.229   0.853
15564WAT     H146934   6.832   9.150   0.844
15564WAT     H246935   6.838   9.312   0.864
15565WAT      O46936   7.453   0.131   6.291
15565WAT     H146937   7.521   0.165   6.357
15565WAT     H246938   7.403   0.054   6.331
15566WAT      O46939   4.832   2.033   8.667
15566WAT     H146940   4.847   1.942   8.628
15566WAT     H246941   4.739   2.039   8.703
15567WAT      O46942   3.116   5.103   8.775
15567WAT     H146943   3.191   5.043   8.746
15567WAT     H246944   3.070   5.139   8.694
15568WAT      O46945   0.590   2.053   4.159
15568WAT     H146946   0.516   2.008   4.208
15568WAT     H246947   0.571   2.051   4.061
15569WAT      O46948   3.130   2.299   7.260
15569WAT     H146949   3.172   2.362   7.195
15569WAT     H246950   3.039   2.333   7.284
15570WAT      O46951   1.584   6.543   9.756
15570WAT     H146952   1.644   6.541   9.835
15570WAT     H246953   1.558   6.449   9.731
15571WAT      O46954   6.786   2.349   1.916
15571WAT     H146955   6.780   2.386   1.823
15571WAT     H246956   6.714   2.282   1.931
15572WAT      O46957   9.485   6.308   3.991
15572WAT     H146958   9.444   6.398   4.007
15572WAT     H246959   9.417   6.237   4.009
15573WAT      O46960   3.608   2.176   2.382
15573WAT     H146961   3.671   2.160   2.458
15573WAT     H246962   3.555   2.259   2.399
15574WAT      O46963   3.870   7.720   7.732
15574WAT     H146964   3.792   7.782   7.741
15574WAT     H246965   3.928   7.727   7.813
15575WAT      O46966   3.353   2.116   2.295
15575WAT     H146967   3.361   2.138   2.197
15575WAT     H246968   3.444   2.121   2.337
15576WAT      O46969   8.734   2.479   6.624
15576WAT     H146970   8.824   2.496   6.583
15576WAT     H246971   8.722   2.539   6.704
15577WAT      O46972   0.105   4.128   1.926
15577WAT     H146973   0.011   4.119   1.892
15577WAT     H246974   0.105   4.180   2.011
15578WAT      O46975   1.980   6.647   7.089
15578WAT     H146976   1.926   6.677   7.010
15578WAT     H246977   1.961   6.706   7.167
15579WAT      O46978   1.035   6.177   5.533
15579WAT     H146979   1.111   6.142   5.478
15579WAT     H246980   0.971   6.226   5.474
15580WAT      O46981   9.178   9.519   7.919
15580WAT     H146982   9.266   9.566   7.907
15580WAT     H246983   9.156   9.468   7.835
15581WAT      O46984   2.044   9.787   6.445
15581WAT     H146985   1.959   9.825   6.410
15581WAT     H246986   2.114   9.789   6.374
15582WAT      O46987   4.734   0.650   5.121
15582WAT     H146988   4.761   0.553   5.123
15582WAT     H246989   4.815   0.706   5.105
15583WAT      O46990   4.392   6.035   2.105
15583WAT     H146991   4.386   6.116   2.164
15583WAT     H246992   4.460   5.972   2.141
15584WAT      O46993   0.365   4.170   8.163
15584WAT     H146994   0.464   4.180   8.169
15584WAT     H246995   0.328   4.154   8.255
15585WAT      O46996   3.198   1.155   8.561
15585WAT     H146997   3.165   1.074   8.513
15585WAT     H246998   3.260   1.128   8.634
15586WAT      O46999   6.464   8.905   3.005
15586WAT     H147000   6.369   8.902   3.036
15586WAT     H247001   6.524   8.867   3.075
15587WAT      O47002   0.969   3.124   7.654
15587WAT     H147003   0.994   3.217   7.679
15587WAT     H247004   0.870   3.114   7.657
15588WAT      O47005   0.410   7.664   3.340
15588WAT     H147006   0.389   7.617   3.426
15588WAT     H247007   0.396   7.600   3.264
15589WAT      O47008   3.816   7.868   5.658
15589WAT     H147009   3.820   7.961   5.694
15589WAT     H247010   3.903   7.821   5.676
15590WAT      O47011   3.454   7.408   2.410
15590WAT     H147012   3.550   7.389   2.430
15590WAT     H247013   3.402   7.323   2.415
15591WAT      O47014   1.631   8.256   0.734
15591WAT     H147015   1.554   8.195   0.751
15591WAT     H247016   1.634   8.280   0.636
15592WAT      O47017   9.098   0.006   7.439
15592WAT     H147018   9.029   0.004   7.512
15592WAT     H247019   9.086  -0.073   7.379
15593WAT      O47020   5.987   3.616   9.148
15593WAT     H147021   6.054   3.541   9.144
15593WAT     H247022   5.896   3.580   9.124
15594WAT      O47023   5.776   3.270   2.615
15594WAT     H147024   5.847   3.200   2.608
15594WAT     H247025   5.750   3.281   2.711
15595WAT      O47026   5.403   7.818   3.090
15595WAT     H147027   5.307   7.805   3.118
15595WAT     H247028   5.412   7.797   2.993
15596WAT      O47029   2.427   5.050   4.313
15596WAT     H147030   2.402   5.140   4.351
15596WAT     H247031   2.445   4.986   4.387
15597WAT      O47032   5.538   5.478   6.248
15597WAT     H147033   5.603   5.463   6.173
15597WAT     H247034   5.489   5.563   6.234
15598WAT      O47035   5.882   8.011   3.759
15598WAT     H147036   5.793   8.024   3.802
15598WAT     H247037   5.954   8.034   3.824
15599WAT      O47038   9.190   5.904   9.643
15599WAT     H147039   9.133   5.938   9.568
15599WAT     H247040   9.133   5.853   9.707
15600WAT      O47041   1.341   9.474   5.482
15600WAT     H147042   1.384   9.434   5.401
15600WAT     H247043   1.370   9.570   5.490
15601WAT      O47044   9.397   0.626   0.135
15601WAT     H147045   9.380   0.586   0.225
15601WAT     H247046   9.495   0.630   0.118
15602WAT      O47047   5.816   0.097   6.677
15602WAT     H147048   5.824   0.173   6.612
15602WAT     H247049   5.837   0.011   6.630
15603WAT      O47050   1.429   0.482   8.995
15603WAT     H147051   1.368   0.476   9.074
15603WAT     H247052   1.377   0.511   8.915
15604WAT      O47053   1.774   6.890   9.528
15604WAT     H147054   1.851   6.891   9.463
15604WAT     H247055   1.713   6.967   9.507
15605WAT      O47056   0.815   4.288   5.327
15605WAT     H147057   0.854   4.237   5.403
15605WAT     H247058   0.859   4.260   5.241
15606WAT      O47059   5.067   4.873   8.796
15606WAT     H147060   5.073   4.777   8.767
15606WAT     H247061   4.982   4.912   8.760
15607WAT      O47062   5.417   2.425   8.645
15607WAT     H147063   5.437   2.458   8.553
15607WAT     H247064   5.419   2.502   8.709
15608WAT      O47065   1.734   0.550   6.123
15608WAT     H147066   1.706   0.547   6.218
15608WAT     H247067   1.699   0.469   6.075
15609WAT      O47068   2.437   1.497   9.650
15609WAT     H147069   2.363   1.492   9.583
15609WAT     H247070   2.523   1.516   9.604
15610WAT      O47071   1.364   1.324   6.956
15610WAT     H147072   1.282   1.376   6.931
15610WAT     H247073   1.406   1.365   7.037
15611WAT      O47074   8.684   4.007   4.411
15611WAT     H147075   8.586   3.987   4.414
15611WAT     H247076   8.700   4.103   4.433
15612WAT      O47077   5.099   7.726   3.461
15612WAT     H147078   5.000   7.739   3.468
15612WAT     H247079   5.122   7.688   3.372
15613WAT      O47080   5.512   6.071   6.652
15613WAT     H147081   5.418   6.038   6.660
15613WAT     H247082   5.544   6.102   6.742
15614WAT      O47083   7.536   5.517   2.056
15614WAT     H147084   7.460   5.458   2.028
15614WAT     H247085   7.503   5.583   2.124
15615WAT      O47086   6.141   3.883   2.765
15615WAT     H147087   6.047   3.867   2.794
15615WAT     H247088   6.154   3.980   2.745
15616WAT      O47089   3.112   1.723   2.540
15616WAT     H147090   3.143   1.786   2.469
15616WAT     H247091   3.188   1.663   2.567
15617WAT      O47092   6.638   1.821   7.539
15617WAT     H147093   6.624   1.723   7.521
15617WAT     H247094   6.734   1.844   7.524
15618WAT      O47095   8.724   4.772   0.697
15618WAT     H147096   8.758   4.686   0.659
15618WAT     H247097   8.726   4.767   0.797
15619WAT      O47098   5.823   1.611   3.036
15619WAT     H147099   5.824   1.544   2.962
15619WAT     H247100   5.774   1.573   3.115
15620WAT      O47101   1.298   7.896   4.062
15620WAT     H147102   1.306   7.908   4.161
15620WAT     H247103   1.364   7.955   4.016
15621WAT      O47104   2.805   6.153   3.788
15621WAT     H147105   2.776   6.159   3.692
15621WAT     H247106   2.846   6.240   3.816
15622WAT      O47107   7.147   5.995   4.526
15622WAT     H147108   7.115   5.949   4.608
15622WAT     H247109   7.246   6.007   4.530
15623WAT      O47110   7.660   0.201   8.310
15623WAT     H147111   7.603   0.235   8.385
15623WAT     H247112   7.636   0.106   8.291
15624WAT      O47113   6.947   4.413   0.460
15624WAT     H147114   6.901   4.341   0.408
15624WAT     H247115   6.995   4.371   0.537
15625WAT      O47116   6.168   8.648   5.372
15625WAT     H147117   6.161   8.638   5.273
15625WAT     H247118   6.249   8.701   5.395
15626WAT      O47119   1.265   8.225   0.139
15626WAT     H147120   1.251   8.131   0.171
15626WAT     H247121   1.340   8.267   0.190
15627WAT      O47122   9.117   2.690   1.003
15627WAT     H147123   9.038   2.684   0.942
15627WAT     H247124   9.200   2.703   0.949
15628WAT      O47125   3.951   7.403   4.507
15628WAT     H147126   3.973   7.428   4.601
15628WAT     H247127   3.988   7.313   4.486
15629WAT      O47128   7.434   2.789   9.665
15629WAT     H147129   7.425   2.778   9.566
15629WAT     H247130   7.496   2.865   9.684
15630WAT      O47131   3.218   5.554   7.035
15630WAT     H147132   3.282   5.617   7.079
15630WAT     H247133   3.267   5.496   6.969
15631WAT      O47134   6.589   7.574   2.315
15631WAT     H147135   6.607   7.599   2.411
15631WAT     H247136   6.643   7.493   2.292
15632WAT      O47137   0.539   0.863   0.353
15632WAT     H147138   0.595   0.939   0.319
15632WAT     H247139   0.495   0.817   0.277
15633WAT      O47140   6.979   2.857   7.938
15633WAT     H147141   7.040   2.806   7.878
15633WAT     H247142   6.972   2.810   8.026
15634WAT      O47143   5.241   7.133   9.043
15634WAT     H147144   5.216   7.215   9.094
15634WAT     H247145   5.162   7.102   8.989
15635WAT      O47146   4.330   9.498   2.737
15635WAT     H147147   4.256   9.431   2.746
15635WAT     H247148   4.341   9.522   2.640
15636WAT      O47149   9.086   5.389   9.207
15636WAT     H147150   9.028   5.444   9.146
15636WAT     H247151   9.045   5.388   9.298
15637WAT      O47152   4.716   6.212   4.409
15637WAT     H147153   4.795   6.201   4.469
15637WAT     H247154   4.742   6.264   4.328
15638WAT      O47155   1.023   0.990   4.026
15638WAT     H147156   1.121   0.979   4.044
15638WAT     H247157   0.990   1.071   4.075
15639WAT      O47158   4.509   9.641   7.358
15639WAT     H147159   4.443   9.567   7.372
15639WAT     H247160   4.514   9.663   7.260
15640WAT      O47161   0.845   4.669   9.429
15640WAT     H147162   0.801   4.744   9.479
15640WAT     H247163   0.944   4.677   9.437
15641WAT      O47164   2.828   2.602   7.899
15641WAT     H147165   2.790   2.521   7.853
15641WAT     H247166   2.889   2.650   7.837
15642WAT      O47167   7.963   4.311   3.384
15642WAT     H147168   8.053   4.267   3.391
15642WAT     H247169   7.929   4.331   3.476
15643WAT      O47170   7.184   4.780   4.947
15643WAT     H147171   7.172   4.809   4.852
15643WAT     H247172   7.262   4.827   4.986
15644WAT      O47173   4.050   2.368   4.519
15644WAT     H147174   4.108   2.422   4.581
15644WAT     H247175   4.007   2.294   4.571
15645WAT      O47176   2.200   7.688   5.860
15645WAT     H147177   2.130   7.700   5.930
15645WAT     H247178   2.211   7.773   5.809
15646WAT      O47179   0.005   8.675   5.590
15646WAT     H147180  -0.078   8.688   5.535
15646WAT     H247181   0.017   8.577   5.608
15647WAT      O47182   5.103   8.850   7.399
15647WAT     H147183   5.187   8.886   7.439
15647WAT     H247184   5.042   8.820   7.472
15648WAT      O47185   5.489   5.724   4.584
15648WAT     H147186   5.425   5.686   4.517
15648WAT     H247187   5.485   5.824   4.581
15649WAT      O47188   8.990   9.842   6.658
15649WAT     H147189   9.058   9.824   6.586
15649WAT     H247190   8.995   9.770   6.727
15650WAT      O47191   3.545   9.053   4.222
15650WAT     H147192   3.465   9.109   4.240
15650WAT     H247193   3.529   8.960   4.253
15651WAT      O47194   0.041   0.035   1.962
15651WAT     H147195   0.092   0.080   1.889
15651WAT     H247196   0.007   0.104   2.027
15652WAT      O47197   8.432   4.265   8.598
15652WAT     H147198   8.354   4.207   8.576
15652WAT     H247199   8.509   4.208   8.629
15653WAT      O47200   7.977   2.203   1.085
15653WAT     H147201   7.968   2.234   1.179
15653WAT     H247202   7.910   2.250   1.027
15654WAT      O47203   7.133   5.250   5.467
15654WAT     H147204   7.231   5.230   5.471
15654WAT     H247205   7.118   5.347   5.489
15655WAT      O47206   5.282   4.069   1.154
15655WAT     H147207   5.263   4.159   1.115
15655WAT     H247208   5.223   4.054   1.233
15656WAT      O47209   9.864   5.057   4.639
15656WAT     H147210   9.768   5.083   4.653
15656WAT     H247211   9.879   5.035   4.543
15657WAT      O47212   1.528   9.208   5.114
15657WAT     H147213   1.605   9.166   5.161
15657WAT     H247214   1.496   9.287   5.166
15658WAT      O47215   3.614   7.255   4.746
15658WAT     H147216   3.608   7.353   4.728
15658WAT     H247217   3.708   7.230   4.768
15659WAT      O47218   4.452   7.176   7.348
15659WAT     H147219   4.413   7.193   7.439
15659WAT     H247220   4.425   7.084   7.317
15660WAT      O47221   3.022   9.192   1.493
15660WAT     H147222   3.001   9.213   1.588
15660WAT     H247223   3.121   9.180   1.482
15661WAT      O47224   4.480   9.250   4.332
15661WAT     H147225   4.558   9.252   4.395
15661WAT     H247226   4.399   9.283   4.380
15662WAT      O47227   2.778   4.403   3.820
15662WAT     H147228   2.828   4.317   3.829
15662WAT     H247229   2.753   4.437   3.910
15663WAT      O47230   3.750   2.030   3.748
15663WAT     H147231   3.728   2.121   3.783
15663WAT     H247232   3.677   1.998   3.689
15664WAT      O47233   6.480   4.670   2.044
15664WAT     H147234   6.566   4.621   2.062
15664WAT     H247235   6.429   4.622   1.973
15665WAT      O47236   9.475   2.002   5.016
15665WAT     H147237   9.432   1.939   5.080
15665WAT     H247238   9.455   1.973   4.922
15666WAT      O47239   3.353   6.872   1.612
15666WAT     H147240   3.443   6.879   1.569
15666WAT     H247241   3.361   6.819   1.696
15667WAT      O47242   5.907   4.649   6.120
15667WAT     H147243   5.949   4.563   6.091
15667WAT     H247244   5.967   4.725   6.096
15668WAT      O47245   3.132   0.656   5.618
15668WAT     H147246   3.218   0.701   5.597
15668WAT     H247247   3.066   0.673   5.545
15669WAT      O47248   8.601   0.785   0.629
15669WAT     H147249   8.681   0.840   0.604
15669WAT     H247250   8.621   0.688   0.615
15670WAT      O47251   7.635   8.447   3.800
15670WAT     H147252   7.560   8.470   3.863
15670WAT     H247253   7.603   8.380   3.733
15671WAT      O47254   9.159   8.935   7.007
15671WAT     H147255   9.063   8.952   6.984
15671WAT     H247256   9.166   8.908   7.103
15672WAT      O47257   5.007   1.774   8.973
15672WAT     H147258   5.106   1.764   8.982
15672WAT     H247259   4.973   1.705   8.909
15673WAT      O47260   5.913   0.442   4.668
15673WAT     H147261   5.853   0.452   4.589
15673WAT     H247262   5.924   0.345   4.690
15674WAT      O47263   8.333   4.269   9.732
15674WAT     H147264   8.326   4.368   9.745
15674WAT     H247265   8.426   4.245   9.706
15675WAT      O47266   4.135   7.655   6.734
15675WAT     H147267   4.046   7.643   6.778
15675WAT     H247268   4.123   7.703   6.647
15676WAT      O47269   8.536   0.155   0.612
15676WAT     H147270   8.438   0.175   0.619
15676WAT     H247271   8.587   0.240   0.605
15677WAT      O47272   4.763   6.083   7.183
15677WAT     H147273   4.708   6.017   7.132
15677WAT     H247274   4.845   6.039   7.218
15678WAT      O47275   0.517   6.798   8.636
15678WAT     H147276   0.509   6.891   8.671
15678WAT     H247277   0.427   6.753   8.640
15679WAT      O47278   7.371   6.438   3.815
15679WAT     H147279   7.284   6.480   3.789
15679WAT     H247280   7.366   6.405   3.909
15680WAT      O47281   3.064   8.068   8.773
15680WAT     H147282   3.094   8.099   8.863
15680WAT     H247283   2.966   8.087   8.762
15681WAT      O47284   5.575   3.219   6.689
15681WAT     H147285   5.582   3.272   6.604
15681WAT     H247286   5.615   3.271   6.764
15682WAT      O47287   7.328   3.559   2.796
15682WAT     H147288   7.334   3.479   2.856
15682WAT     H247289   7.241   3.605   2.812
15683WAT      O47290   0.922   7.018   9.500
15683WAT     H147291   0.907   7.103   9.551
15683WAT     H247292   0.932   6.942   9.564
15684WAT      O47293   7.119   3.664   9.526
15684WAT     H147294   7.151   3.706   9.442
15684WAT     H247295   7.024   3.690   9.543
15685WAT      O47296   5.293   5.016   4.348
15685WAT     H147297   5.325   5.055   4.434
15685WAT     H247298   5.330   4.924   4.337
15686WAT      O47299   8.685   1.002   4.577
15686WAT     H147300   8.675   1.093   4.617
15686WAT     H247301   8.595   0.965   4.554
15687WAT      O47302   6.697   0.683   8.536
15687WAT     H147303   6.770   0.749   8.528
15687WAT     H247304   6.728   0.605   8.590
15688WAT      O47305   8.415   6.981   9.061
15688WAT     H147306   8.319   6.992   9.037
15688WAT     H247307   8.437   7.038   9.140
15689WAT      O47308   2.531   5.758   5.549
15689WAT     H147309   2.575   5.704   5.477
15689WAT     H247310   2.599   5.818   5.592
15690WAT      O47311   5.506   4.537   6.905
15690WAT     H147312   5.437   4.609   6.899
15690WAT     H247313   5.532   4.524   7.001
15691WAT      O47314   4.535   2.641   3.446
15691WAT     H147315   4.473   2.709   3.485
15691WAT     H247316   4.572   2.676   3.360
15692WAT      O47317   7.385   9.095   8.050
15692WAT     H147318   7.355   9.183   8.013
15692WAT     H247319   7.368   9.023   7.983
15693WAT      O47320   4.780   8.901   6.863
15693WAT     H147321   4.817   8.897   6.770
15693WAT     H247322   4.688   8.862   6.864
15694WAT      O47323   5.476   7.504   3.833
15694WAT     H147324   5.472   7.507   3.932
15694WAT     H247325   5.534   7.428   3.804
15695WAT      O47326   8.773   0.001   8.791
15695WAT     H147327   8.812   0.006   8.883
15695WAT     H247328   8.675   0.017   8.796
15696WAT      O47329   9.201   9.241   5.696
15696WAT     H147330   9.170   9.332   5.727
15696WAT     H247331   9.300   9.235   5.705
15697WAT      O47332   5.862   7.440   6.543
15697WAT     H147333   5.867   7.444   6.443
15697WAT     H247334   5.784   7.384   6.571
15698WAT      O47335   0.693   8.835   8.925
15698WAT     H147336   0.685   8.735   8.917
15698WAT     H247337   0.789   8.861   8.924
15699WAT      O47338   3.025   1.646   5.529
15699WAT     H147339   3.049   1.716   5.596
15699WAT     H247340   3.050   1.677   5.437
15700WAT      O47341   4.779   5.738   8.890
15700WAT     H147342   4.782   5.704   8.796
15700WAT     H247343   4.802   5.664   8.953
15701WAT      O47344   0.305   8.573   6.820
15701WAT     H147345   0.280   8.634   6.745
15701WAT     H247346   0.264   8.606   6.905
15702WAT      O47347   0.788   2.298   2.460
15702WAT     H147348   0.720   2.231   2.429
15702WAT     H247349   0.852   2.254   2.523
15703WAT      O47350   5.727   3.555   9.162
15703WAT     H147351   5.686   3.542   9.072
15703WAT     H247352   5.678   3.627   9.211
15704WAT      O47353   8.286   7.013   2.735
15704WAT     H147354   8.353   7.038   2.665
15704WAT     H247355   8.225   7.090   2.751
15705WAT      O47356   3.188   5.283   3.139
15705WAT     H147357   3.250   5.205   3.134
15705WAT     H247358   3.240   5.368   3.135
15706WAT      O47359   0.770   2.906   6.007
15706WAT     H147360   0.682   2.865   6.029
15706WAT     H247361   0.831   2.901   6.086
15707WAT      O47362   9.635   8.477   4.317
15707WAT     H147363   9.536   8.482   4.329
15707WAT     H247364   9.671   8.568   4.298
15708WAT      O47365   4.818   7.856   0.405
15708WAT     H147366   4.726   7.874   0.369
15708WAT     H247367   4.853   7.772   0.366
15709WAT      O47368   7.426   4.392   1.217
15709WAT     H147369   7.513   4.380   1.264
15709WAT     H247370   7.370   4.459   1.266
15710WAT      O47371   7.260   5.832   3.755
15710WAT     H147372   7.275   5.826   3.854
15710WAT     H247373   7.162   5.838   3.737
15711WAT      O47374   8.050   3.477   4.241
15711WAT     H147375   8.006   3.509   4.157
15711WAT     H247376   8.149   3.470   4.225
15712WAT      O47377   8.448   0.536   6.221
15712WAT     H147378   8.485   0.596   6.292
15712WAT     H247379   8.451   0.441   6.252
15713WAT      O47380   9.408   2.689   7.435
15713WAT     H147381   9.391   2.780   7.396
15713WAT     H247382   9.505   2.681   7.458
15714WAT      O47383   0.965   5.111   5.562
15714WAT     H147384   1.007   5.127   5.652
15714WAT     H247385   0.948   5.199   5.517
15715WAT      O47386   0.381   6.553   1.067
15715WAT     H147387   0.332   6.614   1.128
15715WAT     H247388   0.336   6.551   0.977
15716WAT      O47389   7.490   1.361   6.766
15716WAT     H147390   7.446   1.344   6.678
15716WAT     H247391   7.421   1.381   6.836
15717WAT      O47392   9.337   1.293   7.723
15717WAT     H147393   9.390   1.229   7.779
15717WAT     H247394   9.245   1.257   7.709
15718WAT      O47395   0.520   4.425   3.741
15718WAT     H147396   0.568   4.405   3.826
15718WAT     H247397   0.580   4.477   3.680
15719WAT      O47398   4.026   4.397   2.717
15719WAT     H147399   4.018   4.442   2.628
15719WAT     H247400   4.014   4.465   2.789
15720WAT      O47401   6.073   0.462   6.331
15720WAT     H147402   6.139   0.472   6.257
15720WAT     H247403   6.055   0.366   6.348
15721WAT      O47404   6.021   2.071   8.214
15721WAT     H147405   6.063   2.136   8.151
15721WAT     H247406   5.987   1.992   8.164
15722WAT      O47407   2.607   4.292   2.289
15722WAT     H147408   2.513   4.261   2.298
15722WAT     H247409   2.610   4.392   2.295
15723WAT      O47410   6.527   9.740   9.830
15723WAT     H147411   6.594   9.666   9.822
15723WAT     H247412   6.569   9.827   9.805
15724WAT      O47413   7.861   6.226   0.130
15724WAT     H147414   7.836   6.143   0.080
15724WAT     H247415   7.908   6.289   0.068
15725WAT      O47416   7.860   1.160   6.470
15725WAT     H147417   7.893   1.163   6.376
15725WAT     H247418   7.916   1.219   6.528
15726WAT      O47419   4.380   5.255   2.733
15726WAT     H147420   4.322   5.227   2.809
15726WAT     H247421   4.457   5.310   2.767
15727WAT      O47422   6.381   6.538   5.822
15727WAT     H147423   6.353   6.631   5.799
15727WAT     H247424   6.328   6.473   5.769
15728WAT      O47425   1.958   5.604   4.693
15728WAT     H147426   1.913   5.516   4.710
15728WAT     H247427   2.057   5.592   4.699
15729WAT      O47428   3.387   0.573   0.263
15729WAT     H147429   3.300   0.622   0.269
15729WAT     H247430   3.450   0.606   0.334
15730WAT      O47431   1.061   7.144   8.609
15730WAT     H147432   1.013   7.066   8.650
15730WAT     H247433   1.123   7.111   8.537
15731WAT      O47434   7.239   7.146   4.394
15731WAT     H147435   7.334   7.132   4.425
15731WAT     H247436   7.186   7.063   4.411
15732WAT      O47437   2.363   1.273   1.071
15732WAT     H147438   2.305   1.348   1.038
15732WAT     H247439   2.318   1.186   1.053
15733WAT      O47440   2.374   2.057   3.849
15733WAT     H147441   2.387   2.148   3.809
15733WAT     H247442   2.321   2.065   3.933
15734WAT      O47443   4.503   8.750   1.566
15734WAT     H147444   4.487   8.728   1.663
15734WAT     H247445   4.471   8.843   1.548
15735WAT      O47446   3.179   3.953   5.394
15735WAT     H147447   3.224   3.869   5.424
15735WAT     H247448   3.090   3.962   5.439
15736WAT      O47449   1.149   2.687   0.705
15736WAT     H147450   1.177   2.623   0.633
15736WAT     H247451   1.205   2.769   0.700
15737WAT      O47452   0.783   0.834   6.663
15737WAT     H147453   0.756   0.763   6.728
15737WAT     H247454   0.865   0.880   6.696
15738WAT      O47455   6.744   3.218   0.116
15738WAT     H147456   6.796   3.180   0.193
15738WAT     H247457   6.759   3.317   0.112
15739WAT      O47458   8.900   8.940   2.599
15739WAT     H147459   8.891   8.909   2.505
15739WAT     H247460   8.954   8.874   2.651
15740WAT      O47461   8.155   9.793   7.549
15740WAT     H147462   8.220   9.828   7.482
15740WAT     H247463   8.199   9.724   7.606
15741WAT      O47464   0.447   3.675   1.797
15741WAT     H147465   0.371   3.618   1.829
15741WAT     H247466   0.425   3.713   1.708
15742WAT      O47467   4.237   8.403   4.643
15742WAT     H147468   4.236   8.486   4.586
15742WAT     H247469   4.215   8.324   4.586
15743WAT      O47470   2.732   4.363   9.603
15743WAT     H147471   2.697   4.410   9.522
15743WAT     H247472   2.721   4.422   9.683
15744WAT      O47473   0.569   9.460   6.087
15744WAT     H147474   0.516   9.539   6.056
15744WAT     H247475   0.618   9.420   6.009
15745WAT      O47476   6.821   7.118   3.110
15745WAT     H147477   6.862   7.073   3.031
15745WAT     H247478   6.801   7.049   3.180
15746WAT      O47479   1.802   7.831   9.577
15746WAT     H147480   1.792   7.732   9.592
15746WAT     H247481   1.811   7.850   9.480
15747WAT      O47482   6.868   4.720   4.709
15747WAT     H147483   6.796   4.723   4.779
15747WAT     H247484   6.844   4.783   4.635
15748WAT      O47485   8.790   4.495   8.008
15748WAT     H147486   8.713   4.432   8.009
15748WAT     H247487   8.761   4.583   8.046
15749WAT      O47488   5.879   2.675   4.183
15749WAT     H147489   5.858   2.748   4.117
15749WAT     H247490   5.901   2.591   4.134
15750WAT      O47491   1.211   6.376   5.141
15750WAT     H147492   1.171   6.419   5.222
15750WAT     H247493   1.138   6.334   5.087
15751WAT      O47494   2.995   6.972   0.588
15751WAT     H147495   3.009   6.906   0.514
15751WAT     H247496   2.961   7.058   0.549
15752WAT      O47497   2.039   6.893   2.729
15752WAT     H147498   1.985   6.883   2.646
15752WAT     H247499   2.093   6.977   2.724
15753WAT      O47500   8.153   3.869   2.717
15753WAT     H147501   8.146   3.835   2.623
15753WAT     H247502   8.100   3.809   2.778
15754WAT      O47503   7.825   1.255   0.135
15754WAT     H147504   7.865   1.174   0.178
15754WAT     H247505   7.726   1.250   0.138
15755WAT      O47506   5.562   9.629   4.433
15755WAT     H147507   5.494   9.634   4.506
15755WAT     H247508   5.578   9.534   4.408
15756WAT      O47509   4.517   5.011   9.682
15756WAT     H147510   4.459   5.028   9.761
15756WAT     H247511   4.523   4.913   9.665
15757WAT      O47512   4.748   8.051   4.524
15757WAT     H147513   4.794   7.962   4.515
15757WAT     H247514   4.814   8.119   4.557
15758WAT      O47515   2.680   6.020   5.227
15758WAT     H147516   2.619   6.016   5.307
15758WAT     H247517   2.626   6.035   5.145
15759WAT      O47518   0.669   6.327   0.343
15759WAT     H147519   0.626   6.297   0.428
15759WAT     H247520   0.608   6.306   0.266
15760WAT      O47521   0.622   5.284   4.217
15760WAT     H147522   0.563   5.344   4.270
15760WAT     H247523   0.571   5.247   4.139
15761WAT      O47524   7.305   9.827   9.575
15761WAT     H147525   7.405   9.837   9.581
15761WAT     H247526   7.279   9.736   9.607
15762WAT      O47527   8.965   6.079   8.662
15762WAT     H147528   8.925   6.013   8.725
15762WAT     H247529   9.034   6.034   8.605
15763WAT      O47530   7.483   5.031   9.612
15763WAT     H147531   7.475   5.060   9.708
15763WAT     H247532   7.468   5.110   9.552
15764WAT      O47533   7.625   6.365   0.217
15764WAT     H147534   7.694   6.307   0.174
15764WAT     H247535   7.653   6.461   0.209
15765WAT      O47536   7.138   5.231   7.419
15765WAT     H147537   7.191   5.293   7.477
15765WAT     H247538   7.041   5.239   7.442
15766WAT      O47539   2.067   1.424   3.147
15766WAT     H147540   2.156   1.387   3.172
15766WAT     H247541   2.079   1.502   3.086
15767WAT      O47542   1.187   8.302   0.787
15767WAT     H147543   1.168   8.222   0.844
15767WAT     H247544   1.215   8.378   0.846
15768WAT      O47545   3.937   0.187   1.045
15768WAT     H147546   3.962   0.156   1.137
15768WAT     H247547   3.982   0.130   0.977
15769WAT      O47548   8.169   7.444   6.615
15769WAT     H147549   8.204   7.528   6.572
15769WAT     H247550   8.190   7.447   6.713
15770WAT      O47551   4.786   7.421   9.119
15770WAT     H147552   4.695   7.389   9.094
15770WAT     H247553   4.849   7.343   9.124
15771WAT      O47554   5.599   0.387   0.158
15771WAT     H147555   5.516   0.442   0.162
15771WAT     H247556   5.678   0.444   0.183
15772WAT      O47557   2.976   2.822   5.028
15772WAT     H147558   2.985   2.893   5.098
15772WAT     H247559   2.936   2.861   4.945
15773WAT      O47560   2.919   1.724   9.267
15773WAT     H147561   2.886   1.814   9.296
15773WAT     H247562   2.971   1.682   9.342
15774WAT      O47563   8.257   4.474   3.486
15774WAT     H147564   8.354   4.491   3.503
15774WAT     H247565   8.211   4.560   3.465
15775WAT      O47566   1.536   5.931   1.702
15775WAT     H147567   1.580   6.009   1.657
15775WAT     H247568   1.601   5.854   1.706
15776WAT      O47569   0.929   1.252   6.230
15776WAT     H147570   0.890   1.343   6.246
15776WAT     H247571   0.950   1.209   6.318
15777WAT      O47572   1.018   0.797   7.366
15777WAT     H147573   1.074   0.768   7.288
15777WAT     H247574   0.992   0.717   7.420
15778WAT      O47575   1.174   5.086   0.266
15778WAT     H147576   1.100   5.019   0.270
15778WAT     H247577   1.245   5.061   0.332
15779WAT      O47578   4.658   1.207   0.966
15779WAT     H147579   4.674   1.135   1.033
15779WAT     H247580   4.725   1.198   0.892
15780WAT      O47581   4.068   2.899   3.123
15780WAT     H147582   4.014   2.977   3.093
15780WAT     H247583   4.028   2.814   3.088
15781WAT      O47584   1.957   7.880   4.309
15781WAT     H147585   2.016   7.898   4.388
15781WAT     H247586   1.993   7.801   4.259
15782WAT      O47587   3.698   0.648   4.869
15782WAT     H147588   3.741   0.579   4.810
15782WAT     H247589   3.739   0.643   4.960
15783WAT      O47590   2.044   5.453   0.755
15783WAT     H147591   1.988   5.432   0.674
15783WAT     H247592   2.093   5.371   0.783
15784WAT      O47593   5.830   7.676   7.191
15784WAT     H147594   5.774   7.593   7.182
15784WAT     H247595   5.927   7.650   7.200
15785WAT      O47596   9.598   9.358   4.522
15785WAT     H147597   9.637   9.286   4.580
15785WAT     H247598   9.655   9.369   4.441
15786WAT      O47599   5.908   8.138   8.067
15786WAT     H147600   5.947   8.223   8.104
15786WAT     H247601   5.878   8.153   7.973
15787WAT      O47602   6.973   2.079   2.995
15787WAT     H147603   6.934   2.106   3.083
15787WAT     H247604   7.071   2.097   2.995
15788WAT      O47605   2.742   8.930   8.473
15788WAT     H147606   2.669   8.875   8.515
15788WAT     H247607   2.816   8.870   8.443
15789WAT      O47608   5.372   8.761   0.692
15789WAT     H147609   5.382   8.828   0.766
15789WAT     H247610   5.334   8.806   0.612
15790WAT      O47611   6.337   7.732   3.258
15790WAT     H147612   6.360   7.828   3.242
15790WAT     H247613   6.350   7.710   3.354
15791WAT      O47614   5.579   4.508   7.179
15791WAT     H147615   5.656   4.450   7.153
15791WAT     H247616   5.611   4.583   7.236
15792WAT      O47617   4.775   3.459   9.720
15792WAT     H147618   4.713   3.434   9.646
15792WAT     H247619   4.722   3.497   9.796
15793WAT      O47620   2.402   3.819   2.584
15793WAT     H147621   2.360   3.789   2.498
15793WAT     H247622   2.334   3.866   2.639
15794WAT      O47623   0.339   6.511   7.461
15794WAT     H147624   0.331   6.512   7.561
15794WAT     H247625   0.277   6.443   7.423
15795WAT      O47626   7.934   2.820   0.746
15795WAT     H147627   7.954   2.792   0.840
15795WAT     H247628   7.842   2.861   0.742
15796WAT      O47629   1.759   4.065   5.656
15796WAT     H147630   1.670   4.026   5.634
15796WAT     H247631   1.747   4.160   5.685
15797WAT      O47632   9.418   7.047   0.690
15797WAT     H147633   9.494   7.005   0.640
15797WAT     H247634   9.341   7.063   0.627
15798WAT      O47635   1.930   5.967   3.879
15798WAT     H147636   1.950   6.055   3.835
15798WAT     H247637   1.868   5.982   3.956
15799WAT      O47638   7.696   4.743   6.312
15799WAT     H147639   7.607   4.783   6.333
15799WAT     H247640   7.699   4.649   6.347
15800WAT      O47641   6.870   2.059   3.568
15800WAT     H147642   6.969   2.058   3.582
15800WAT     H247643   6.833   2.147   3.598
15801WAT      O47644   5.135   7.955   1.247
15801WAT     H147645   5.144   7.960   1.346
15801WAT     H247646   5.039   7.937   1.224
15802WAT      O47647   7.886   8.435   9.840
15802WAT     H147648   7.806   8.446   9.899
15802WAT     H247649   7.968   8.466   9.889
15803WAT      O47650   8.889   5.511   2.426
15803WAT     H147651   8.929   5.595   2.463
15803WAT     H247652   8.798   5.530   2.390
15804WAT      O47653   3.722   8.978   6.960
15804WAT     H147654   3.704   8.956   6.864
15804WAT     H247655   3.814   9.017   6.968
15805WAT      O47656   6.950   1.384   3.334
15805WAT     H147657   6.949   1.293   3.376
15805WAT     H247658   6.863   1.398   3.285
15806WAT      O47659   8.290   9.038   3.001
15806WAT     H147660   8.196   9.007   3.019
15806WAT     H247661   8.288   9.115   2.937
15807WAT      O47662   9.052   8.083   5.320
15807WAT     H147663   9.109   8.032   5.255
15807WAT     H247664   8.970   8.030   5.342
15808WAT      O47665   1.935   6.908   4.915
15808WAT     H147666   2.001   6.915   4.841
15808WAT     H247667   1.852   6.863   4.882
15809WAT      O47668   3.522   6.267   8.349
15809WAT     H147669   3.574   6.182   8.357
15809WAT     H247670   3.487   6.276   8.256
15810WAT      O47671   7.083   7.191   7.638
15810WAT     H147672   7.146   7.268   7.629
15810WAT     H247673   7.136   7.106   7.646
15811WAT      O47674   0.221   9.020   1.318
15811WAT     H147675   0.306   9.041   1.366
15811WAT     H247676   0.144   9.027   1.382
15812WAT      O47677   5.043   3.053   9.763
15812WAT     H147678   5.053   3.110   9.844
15812WAT     H247679   4.972   3.091   9.703
15813WAT      O47680   6.696   8.875   8.950
15813WAT     H147681   6.726   8.787   8.987
15813WAT     H247682   6.771   8.941   8.957
15814WAT      O47683   6.723   3.318   1.056
15814WAT     H147684   6.771   3.269   0.983
15814WAT     H247685   6.732   3.416   1.041
15815WAT      O47686   1.878   7.735   2.934
15815WAT     H147687   1.791   7.687   2.950
15815WAT     H247688   1.910   7.716   2.842
15816WAT      O47689   4.987   6.748   3.820
15816WAT     H147690   5.075   6.704   3.835
15816WAT     H247691   4.944   6.767   3.908
15817WAT      O47692   4.868   3.222   6.750
15817WAT     H147693   4.859   3.143   6.689
15817WAT     H247694   4.954   3.269   6.730
15818WAT      O47695   9.233   8.270   5.946
15818WAT     H147696   9.176   8.351   5.958
15818WAT     H247697   9.316   8.278   6.001
15819WAT      O47698   6.144   5.415   1.288
15819WAT     H147699   6.131   5.385   1.383
15819WAT     H247700   6.219   5.481   1.284
15820WAT      O47701   9.086   3.593   4.859
15820WAT     H147702   9.149   3.516   4.853
15820WAT     H247703   9.052   3.602   4.952
15821WAT      O47704   2.801   1.350   8.282
15821WAT     H147705   2.894   1.381   8.260
15821WAT     H247706   2.796   1.251   8.273
15822WAT      O47707   7.873   5.225   8.415
15822WAT     H147708   7.808   5.201   8.487
15822WAT     H247709   7.959   5.177   8.432
15823WAT      O47710   4.595   6.944   1.386
15823WAT     H147711   4.616   6.847   1.380
15823WAT     H247712   4.675   6.994   1.418
15824WAT      O47713   4.497   8.581   0.739
15824WAT     H147714   4.494   8.554   0.835
15824WAT     H247715   4.527   8.504   0.683
15825WAT      O47716   8.580   3.603   9.828
15825WAT     H147717   8.547   3.627   9.737
15825WAT     H247718   8.602   3.505   9.831
15826WAT      O47719   8.178   5.282   0.382
15826WAT     H147720   8.186   5.341   0.301
15826WAT     H247721   8.097   5.309   0.435
15827WAT      O47722   6.411   0.285   7.124
15827WAT     H147723   6.398   0.356   7.193
15827WAT     H247724   6.321   0.254   7.091
15828WAT      O47725   4.641   6.069   1.954
15828WAT     H147726   4.624   5.986   1.901
15828WAT     H247727   4.642   6.148   1.892
15829WAT      O47728   8.278   0.588   5.299
15829WAT     H147729   8.198   0.561   5.246
15829WAT     H247730   8.283   0.533   5.382
15830WAT      O47731   7.517   5.828   5.854
15830WAT     H147732   7.615   5.807   5.856
15830WAT     H247733   7.469   5.770   5.920
15831WAT      O47734   2.609   5.399   2.316
15831WAT     H147735   2.604   5.300   2.332
15831WAT     H247736   2.559   5.447   2.388
15832WAT      O47737   0.869   3.909   5.869
15832WAT     H147738   0.909   3.885   5.957
15832WAT     H247739   0.932   3.882   5.796
15833WAT      O47740   4.891   2.086   6.305
15833WAT     H147741   4.930   2.160   6.359
15833WAT     H247742   4.841   2.024   6.366
15834WAT      O47743   2.199   4.179   7.739
15834WAT     H147744   2.277   4.139   7.692
15834WAT     H247745   2.115   4.154   7.692
15835WAT      O47746   6.753   3.686   8.252
15835WAT     H147747   6.781   3.726   8.164
15835WAT     H247748   6.681   3.742   8.293
15836WAT      O47749   4.026   4.133   2.982
15836WAT     H147750   4.123   4.139   2.959
15836WAT     H247751   3.980   4.071   2.918
15837WAT      O47752   0.756   4.892   8.665
15837WAT     H147753   0.797   4.949   8.594
15837WAT     H247754   0.800   4.802   8.665
15838WAT      O47755   9.679   4.998   1.823
15838WAT     H147756   9.726   4.918   1.786
15838WAT     H247757   9.584   4.974   1.844
15839WAT      O47758   8.021   1.500   0.926
15839WAT     H147759   8.028   1.474   0.830
15839WAT     H247760   7.927   1.485   0.958
15840WAT      O47761   0.452   0.407   4.867
15840WAT     H147762   0.476   0.503   4.877
15840WAT     H247763   0.488   0.355   4.945
15841WAT      O47764   8.801   1.740   7.344
15841WAT     H147765   8.746   1.745   7.427
15841WAT     H247766   8.896   1.723   7.368
15842WAT      O47767   7.701   4.713   7.786
15842WAT     H147768   7.674   4.784   7.720
15842WAT     H247769   7.771   4.750   7.847
15843WAT      O47770   4.482   7.596   1.725
15843WAT     H147771   4.427   7.513   1.713
15843WAT     H247772   4.489   7.618   1.822
15844WAT      O47773   5.219   6.489   3.007
15844WAT     H147774   5.128   6.513   2.973
15844WAT     H247775   5.287   6.508   2.936
15845WAT      O47776   7.202   3.626   0.946
15845WAT     H147777   7.281   3.609   0.886
15845WAT     H247778   7.119   3.597   0.900
15846WAT      O47779   9.087   1.318   0.840
15846WAT     H147780   9.036   1.400   0.865
15846WAT     H247781   9.138   1.286   0.920
15847WAT      O47782   5.455   7.253   4.315
15847WAT     H147783   5.443   7.307   4.398
15847WAT     H247784   5.551   7.252   4.289
15848WAT      O47785   4.849   7.624   1.242
15848WAT     H147786   4.757   7.608   1.278
15848WAT     H247787   4.869   7.722   1.243
15849WAT      O47788   9.671   6.844   5.825
15849WAT     H147789   9.579   6.812   5.801
15849WAT     H247790   9.732   6.765   5.836
15850WAT      O47791   7.975   3.190   1.577
15850WAT     H147792   7.987   3.091   1.564
15850WAT     H247793   7.999   3.214   1.671
15851WAT      O47794   9.879   7.130   2.561
15851WAT     H147795   9.807   7.133   2.491
15851WAT     H247796   9.851   7.068   2.634
15852WAT      O47797   7.666   1.246   5.102
15852WAT     H147798   7.649   1.184   5.025
15852WAT     H247799   7.739   1.209   5.159
15853WAT      O47800   4.458   2.550   3.886
15853WAT     H147801   4.492   2.457   3.883
15853WAT     H247802   4.434   2.574   3.980
15854WAT      O47803   1.118   9.415   1.500
15854WAT     H147804   1.089   9.335   1.552
15854WAT     H247805   1.059   9.426   1.420
15855WAT      O47806   4.923   5.921   7.996
15855WAT     H147807   4.979   5.864   7.936
15855WAT     H247808   4.908   5.874   8.082
15856WAT      O47809   3.682   6.305   5.642
15856WAT     H147810   3.689   6.333   5.546
15856WAT     H247811   3.586   6.305   5.671
15857WAT      O47812   6.257   1.587   7.688
15857WAT     H147813   6.251   1.646   7.607
15857WAT     H247814   6.193   1.620   7.758
15858WAT      O47815   8.087   4.997   1.988
15858WAT     H147816   8.137   5.050   1.919
15858WAT     H247817   8.152   4.943   2.042
15859WAT      O47818   7.685   7.428   6.689
15859WAT     H147819   7.705   7.331   6.701
15859WAT     H247820   7.679   7.449   6.591
15860WAT      O47821   4.368   5.206   5.949
15860WAT     H147822   4.400   5.217   6.043
15860WAT     H247823   4.268   5.207   5.948
15861WAT      O47824   8.595   2.553   9.498
15861WAT     H147825   8.548   2.641   9.501
15861WAT     H247826   8.537   2.485   9.453
15862WAT      O47827   4.465   2.670   5.311
15862WAT     H147828   4.475   2.737   5.384
15862WAT     H247829   4.384   2.690   5.257
15863WAT      O47830   4.391   3.786   3.994
15863WAT     H147831   4.294   3.761   3.993
15863WAT     H247832   4.414   3.828   4.082
15864WAT      O47833   6.288   6.296   8.163
15864WAT     H147834   6.226   6.218   8.166
15864WAT     H247835   6.236   6.381   8.157
15865WAT      O47836   8.457   5.515   4.885
15865WAT     H147837   8.497   5.541   4.972
15865WAT     H247838   8.371   5.565   4.870
15866WAT      O47839   3.290   6.924   8.287
15866WAT     H147840   3.222   6.963   8.225
15866WAT     H247841   3.281   6.967   8.377
15867WAT      O47842  -0.003   2.840   8.967
15867WAT     H147843   0.069   2.828   8.900
15867WAT     H247844   0.029   2.810   9.057
15868WAT      O47845   1.668   3.871   8.766
15868WAT     H147846   1.661   3.775   8.793
15868WAT     H247847   1.764   3.893   8.749
15869WAT      O47848   1.712   1.011   2.487
15869WAT     H147849   1.679   1.105   2.483
15869WAT     H247850   1.682   0.961   2.406
15870WAT      O47851   3.056   6.307   3.603
15870WAT     H147852   3.049   6.336   3.698
15870WAT     H247853   3.125   6.361   3.555
15871WAT      O47854   1.510   5.747   9.625
15871WAT     H147855   1.559   5.725   9.541
15871WAT     H247856   1.475   5.664   9.666
15872WAT      O47857   5.672   6.100   6.253
15872WAT     H147858   5.729   6.023   6.223
15872WAT     H247859   5.729   6.182   6.262
15873WAT      O47860   5.936   1.552   1.471
15873WAT     H147861   5.892   1.478   1.520
15873WAT     H247862   6.035   1.544   1.479
15874WAT      O47863   1.556   5.067   4.969
15874WAT     H147864   1.635   5.011   4.945
15874WAT     H247865   1.478   5.007   4.989
15875WAT      O47866   3.521   9.632   7.907
15875WAT     H147867   3.428   9.627   7.870
15875WAT     H247868   3.578   9.563   7.862
15876WAT      O47869   1.293   8.855   2.180
15876WAT     H147870   1.317   8.759   2.169
15876WAT     H247871   1.359   8.911   2.130
15877WAT      O47872   7.909   5.919   8.362
15877WAT     H147873   7.904   5.949   8.267
15877WAT     H247874   7.976   5.845   8.370
15878WAT      O47875   0.410   1.449   3.515
15878WAT     H147876   0.472   1.420   3.589
15878WAT     H247877   0.402   1.549   3.516
15879WAT      O47878   5.726   0.373   3.623
15879WAT     H147879   5.690   0.417   3.705
15879WAT     H247880   5.661   0.384   3.548
15880WAT      O47881   8.985   0.845   5.027
15880WAT     H147882   8.899   0.797   5.010
15880WAT     H247883   9.016   0.824   5.120
15881WAT      O47884   9.123   8.075   8.271
15881WAT     H147885   9.116   7.978   8.249
15881WAT     H247886   9.178   8.122   8.202
15882WAT      O47887   7.732   9.033   1.214
15882WAT     H147888   7.687   9.122   1.205
15882WAT     H247889   7.789   9.016   1.134
15883WAT      O47890   6.801   6.914   3.623
15883WAT     H147891   6.841   7.003   3.600
15883WAT     H247892   6.724   6.928   3.684
15884WAT      O47893   4.981   1.172   1.782
15884WAT     H147894   4.958   1.136   1.691
15884WAT     H247895   4.918   1.247   1.804
15885WAT      O47896   8.241   7.131   5.309
15885WAT     H147897   8.273   7.172   5.224
15885WAT     H247898   8.147   7.158   5.327
15886WAT      O47899   4.699   2.317   9.035
15886WAT     H147900   4.610   2.359   9.054
15886WAT     H247901   4.685   2.225   8.999
15887WAT      O47902   5.777   5.300   8.040
15887WAT     H147903   5.854   5.236   8.037
15887WAT     H247904   5.692   5.249   8.027
15888WAT      O47905   6.609   2.577   4.342
15888WAT     H147906   6.646   2.651   4.286
15888WAT     H247907   6.568   2.615   4.425
15889WAT      O47908   5.508   8.410   5.960
15889WAT     H147909   5.578   8.364   5.905
15889WAT     H247910   5.427   8.425   5.904
15890WAT      O47911   6.498   5.737   0.124
15890WAT     H147912   6.597   5.740   0.134
15890WAT     H247913   6.472   5.652   0.078
15891WAT      O47914   9.436   6.232   8.546
15891WAT     H147915   9.403   6.311   8.495
15891WAT     H247916   9.528   6.252   8.581
15892WAT      O47917   2.580   2.318   4.776
15892WAT     H147918   2.529   2.361   4.701
15892WAT     H247919   2.564   2.368   4.861
15893WAT      O47920   0.419   9.177   0.122
15893WAT     H147921   0.434   9.275   0.117
15893WAT     H247922   0.452   9.142   0.210
15894WAT      O47923   1.469   9.101   3.517
15894WAT     H147924   1.560   9.138   3.499
15894WAT     H247925   1.431   9.145   3.599
15895WAT      O47926   2.630   4.256   3.606
15895WAT     H147927   2.680   4.312   3.540
15895WAT     H247928   2.666   4.271   3.698
15896WAT      O47929   8.405   8.109   6.608
15896WAT     H147930   8.463   8.061   6.542
15896WAT     H247931   8.341   8.169   6.560
15897WAT      O47932   5.965   3.246   0.306
15897WAT     H147933   5.935   3.267   0.400
15897WAT     H247934   6.057   3.207   0.308
15898WAT      O47935   3.034   5.740   2.501
15898WAT     H147936   3.033   5.680   2.581
15898WAT     H247937   2.949   5.793   2.498
15899WAT      O47938   6.803   8.306   2.306
15899WAT     H147939   6.741   8.323   2.383
15899WAT     H247940   6.834   8.393   2.269
15900WAT      O47941   4.536   8.792   6.867
15900WAT     H147942   4.545   8.695   6.843
15900WAT     H247943   4.490   8.800   6.956
15901WAT      O47944   1.720   2.569   3.903
15901WAT     H147945   1.660   2.627   3.848
15901WAT     H247946   1.684   2.476   3.906
15902WAT      O47947   9.051   3.913   2.047
15902WAT     H147948   9.046   3.814   2.059
15902WAT     H247949   9.108   3.952   2.119
15903WAT      O47950   1.455   1.229   5.577
15903WAT     H147951   1.448   1.246   5.478
15903WAT     H247952   1.376   1.269   5.623
15904WAT      O47953   4.260   2.225   1.831
15904WAT     H147954   4.290   2.277   1.750
15904WAT     H247955   4.160   2.214   1.827
15905WAT      O47956   2.657   5.067   0.776
15905WAT     H147957   2.757   5.059   0.777
15905WAT     H247958   2.617   4.976   0.766
15906WAT      O47959   0.381   0.270   6.056
15906WAT     H147960   0.325   0.265   6.138
15906WAT     H247961   0.323   0.293   5.978
15907WAT      O47962   8.198   8.953   8.118
15907WAT     H147963   8.247   9.036   8.093
15907WAT     H247964   8.108   8.978   8.155
15908WAT      O47965   0.520   0.949   5.315
15908WAT     H147966   0.602   0.905   5.278
15908WAT     H247967   0.472   0.885   5.375
15909WAT      O47968   6.748   0.564   5.792
15909WAT     H147969   6.746   0.474   5.749
15909WAT     H247970   6.697   0.562   5.878
15910WAT      O47971   1.753   7.976   2.357
15910WAT     H147972   1.808   8.001   2.277
15910WAT     H247973   1.656   7.989   2.335
15911WAT      O47974   9.575   2.258   2.700
15911WAT     H147975   9.622   2.204   2.629
15911WAT     H247976   9.497   2.206   2.735
15912WAT      O47977   2.763   6.473   6.788
15912WAT     H147978   2.752   6.405   6.715
15912WAT     H247979   2.686   6.538   6.785
15913WAT      O47980   0.555   2.538   6.144
15913WAT     H147981   0.584   2.628   6.178
15913WAT     H247982   0.477   2.549   6.083
15914WAT      O47983   0.379   6.743   0.079
15914WAT     H147984   0.314   6.819   0.082
15914WAT     H247985   0.449   6.761   0.011
15915WAT      O47986   0.182   1.942   3.249
15915WAT     H147987   0.136   2.006   3.310
15915WAT     H247988   0.119   1.870   3.222
15916WAT      O47989   8.547   2.861   4.305
15916WAT     H147990   8.517   2.869   4.400
15916WAT     H247991   8.593   2.773   4.292
15917WAT      O47992   1.490   2.915   0.656
15917WAT     H147993   1.536   2.970   0.727
15917WAT     H247994   1.392   2.915   0.672
15918WAT      O47995   4.153   5.224   2.274
15918WAT     H147996   4.147   5.296   2.205
15918WAT     H247997   4.220   5.250   2.343
15919WAT      O47998   2.929   0.124   3.787
15919WAT     H147999   3.008   0.161   3.738
15919WAT     H248000   2.847   0.175   3.761
15920WAT      O48001   5.093   3.427   2.270
15920WAT     H148002   4.998   3.400   2.256
15920WAT     H248003   5.140   3.358   2.324
15921WAT      O48004   2.800   5.925   2.555
15921WAT     H148005   2.728   5.875   2.508
15921WAT     H248006   2.791   6.023   2.534
15922WAT      O48007   9.667   6.983   4.235
15922WAT     H148008   9.623   7.072   4.222
15922WAT     H248009   9.766   6.995   4.239
15923WAT      O48010   5.406   0.513   5.470
15923WAT     H148011   5.493   0.560   5.454
15923WAT     H248012   5.330   0.577   5.457
15924WAT      O48013   1.972   2.778   1.229
15924WAT     H148014   2.040   2.798   1.158
15924WAT     H248015   1.923   2.694   1.205
15925WAT      O48016   0.274   1.859   1.478
15925WAT     H148017   0.281   1.802   1.397
15925WAT     H248018   0.355   1.917   1.486
15926WAT      O48019   5.756   3.322   3.244
15926WAT     H148020   5.696   3.242   3.238
15926WAT     H248021   5.701   3.405   3.245
15927WAT      O48022   6.185   3.686   2.039
15927WAT     H148023   6.148   3.653   2.126
15927WAT     H248024   6.253   3.621   2.005
15928WAT      O48025   4.875   4.099   0.975
15928WAT     H148026   4.930   4.181   0.960
15928WAT     H248027   4.929   4.018   0.950
15929WAT      O48028   2.253   2.146   7.091
15929WAT     H148029   2.335   2.189   7.053
15929WAT     H248030   2.185   2.216   7.112
15930WAT      O48031   9.058   6.555   0.498
15930WAT     H148032   8.965   6.520   0.493
15930WAT     H248033   9.079   6.609   0.416
15931WAT      O48034   4.562   3.095   6.742
15931WAT     H148035   4.630   3.029   6.773
15931WAT     H248036   4.485   3.097   6.806
15932WAT      O48037   0.029   5.004   3.686
15932WAT     H148038   0.032   5.083   3.746
15932WAT     H248039   0.074   5.026   3.599
15933WAT      O48040   2.566   5.173   4.752
15933WAT     H148041   2.602   5.152   4.661
15933WAT     H248042   2.635   5.225   4.804
15934WAT      O48043   3.842   1.580   7.494
15934WAT     H148044   3.796   1.586   7.582
15934WAT     H248045   3.799   1.643   7.429
15935WAT      O48046   1.876   7.010   7.617
15935WAT     H148047   1.785   7.019   7.656
15935WAT     H248048   1.939   6.975   7.686
15936WAT      O48049   8.130   6.876   1.367
15936WAT     H148050   8.055   6.835   1.419
15936WAT     H248051   8.196   6.916   1.430
15937WAT      O48052   5.589   9.060   7.007
15937WAT     H148053   5.501   9.015   7.017
15937WAT     H248054   5.626   9.083   7.097
15938WAT      O48055   3.092   9.804   8.672
15938WAT     H148056   3.079   9.706   8.661
15938WAT     H248057   3.152   9.822   8.750
15939WAT      O48058   9.480   7.832   6.655
15939WAT     H148059   9.513   7.829   6.750
15939WAT     H248060   9.551   7.796   6.595
15940WAT      O48061   3.071   0.488   8.340
15940WAT     H148062   3.036   0.443   8.258
15940WAT     H248063   2.995   0.521   8.395
15941WAT      O48064   1.584   1.970   0.238
15941WAT     H148065   1.497   1.961   0.288
15941WAT     H248066   1.656   1.996   0.302
15942WAT      O48067   1.899   3.030   0.727
15942WAT     H148068   1.904   2.972   0.808
15942WAT     H248069   1.904   2.974   0.644
15943WAT      O48070   9.501   0.724   2.456
15943WAT     H148071   9.502   0.820   2.481
15943WAT     H248072   9.451   0.672   2.525
15944WAT      O48073   3.204   6.410   6.726
15944WAT     H148074   3.256   6.361   6.657
15944WAT     H248075   3.223   6.372   6.816
15945WAT      O48076   9.596   6.562   7.496
15945WAT     H148077   9.509   6.527   7.533
15945WAT     H248078   9.622   6.508   7.416
15946WAT      O48079   0.345   5.095   5.589
15946WAT     H148080   0.402   5.063   5.514
15946WAT     H248081   0.250   5.104   5.558
15947WAT      O48082   6.832   9.090   2.023
15947WAT     H148083   6.790   9.087   1.933
15947WAT     H248084   6.770   9.050   2.090
15948WAT      O48085   6.524   5.576   5.576
15948WAT     H148086   6.519   5.526   5.662
15948WAT     H248087   6.517   5.511   5.500
15949WAT      O48088   6.401   1.481   8.271
15949WAT     H148089   6.365   1.401   8.319
15949WAT     H248090   6.331   1.552   8.267
15950WAT      O48091   3.716   5.944   9.393
15950WAT     H148092   3.697   5.849   9.369
15950WAT     H248093   3.674   6.004   9.325
15951WAT      O48094   7.930   8.858   5.799
15951WAT     H148095   7.930   8.950   5.839
15951WAT     H248096   7.902   8.864   5.703
15952WAT      O48097   5.163   5.714   6.061
15952WAT     H148098   5.164   5.661   5.976
15952WAT     H248099   5.068   5.741   6.082
15953WAT      O48100   5.007   1.287   0.283
15953WAT     H148101   5.076   1.229   0.239
15953WAT     H248102   4.981   1.360   0.220
15954WAT      O48103   6.019   9.315   8.203
15954WAT     H148104   6.050   9.271   8.287
15954WAT     H248105   6.098   9.353   8.154
15955WAT      O48106   4.041   0.147   9.862
15955WAT     H148107   3.976   0.138   9.938
15955WAT     H248108   4.073   0.242   9.857
15956WAT      O48109   4.732   6.253   4.121
15956WAT     H148110   4.695   6.344   4.139
15956WAT     H248111   4.657   6.187   4.113
15957WAT      O48112   6.711   8.160   0.431
15957WAT     H148113   6.712   8.126   0.525
15957WAT     H248114   6.628   8.129   0.385
15958WAT      O48115   0.541   0.439   9.492
15958WAT     H148116   0.487   0.519   9.515
15958WAT     H248117   0.614   0.465   9.429
15959WAT      O48118   9.542   2.953   2.613
15959WAT     H148119   9.507   3.004   2.691
15959WAT     H248120   9.622   3.000   2.575
15960WAT      O48121   1.684   5.542   1.948
15960WAT     H148122   1.758   5.584   2.001
15960WAT     H248123   1.684   5.578   1.855
15961WAT      O48124   2.044   2.859   6.521
15961WAT     H148125   2.006   2.941   6.565
15961WAT     H248126   1.970   2.808   6.476
15962WAT      O48127   1.235   5.813   5.380
15962WAT     H148128   1.269   5.767   5.299
15962WAT     H248129   1.159   5.761   5.418
15963WAT      O48130   1.405   6.657   6.279
15963WAT     H148131   1.338   6.591   6.312
15963WAT     H248132   1.496   6.632   6.312
15964WAT      O48133   2.003   7.307   1.173
15964WAT     H148134   1.957   7.305   1.084
15964WAT     H248135   2.082   7.246   1.171
15965WAT      O48136   3.429   2.726   5.372
15965WAT     H148137   3.394   2.781   5.296
15965WAT     H248138   3.393   2.633   5.366
15966WAT      O48139   6.793   7.067   5.742
15966WAT     H148140   6.734   7.100   5.815
15966WAT     H248141   6.837   7.144   5.697
15967WAT      O48142   6.864   0.521   0.621
15967WAT     H148143   6.945   0.579   0.613
15967WAT     H248144   6.868   0.448   0.554
15968WAT      O48145   3.344   4.957   8.721
15968WAT     H148146   3.327   4.885   8.654
15968WAT     H248147   3.374   4.916   8.807
15969WAT      O48148   7.065   4.254   0.223
15969WAT     H148149   7.089   4.197   0.145
15969WAT     H248150   7.148   4.295   0.261
15970WAT      O48151   0.223   3.848   2.929
15970WAT     H148152   0.258   3.942   2.925
15970WAT     H248153   0.183   3.832   3.019
15971WAT      O48154   0.593   9.363   8.460
15971WAT     H148155   0.495   9.373   8.480
15971WAT     H248156   0.625   9.275   8.494
15972WAT      O48157   3.422   3.066   2.637
15972WAT     H148158   3.394   2.995   2.572
15972WAT     H248159   3.522   3.069   2.642
15973WAT      O48160   4.021   6.551   5.595
15973WAT     H148161   4.059   6.474   5.544
15973WAT     H248162   3.935   6.580   5.553
15974WAT      O48163   8.879   0.514   5.172
15974WAT     H148164   8.975   0.486   5.168
15974WAT     H248165   8.821   0.434   5.182
15975WAT      O48166   3.755   3.361   1.207
15975WAT     H148167   3.802   3.273   1.216
15975WAT     H248168   3.674   3.361   1.265
15976WAT      O48169   7.917   4.284   7.670
15976WAT     H148170   7.840   4.346   7.684
15976WAT     H248171   7.883   4.195   7.639
15977WAT      O48172   1.875   0.656   1.337
15977WAT     H148173   1.900   0.568   1.297
15977WAT     H248174   1.841   0.717   1.264
15978WAT      O48175   0.273   6.169   1.056
15978WAT     H148176   0.373   6.173   1.060
15978WAT     H248177   0.234   6.215   1.136
15979WAT      O48178   5.721   0.324   4.117
15979WAT     H148179   5.766   0.242   4.082
15979WAT     H248180   5.790   0.389   4.149
15980WAT      O48181   3.301   5.120   3.788
15980WAT     H148182   3.322   5.074   3.873
15980WAT     H248183   3.238   5.064   3.734
15981WAT      O48184   0.175   0.474   9.248
15981WAT     H148185   0.183   0.509   9.154
15981WAT     H248186   0.143   0.546   9.308
15982WAT      O48187   3.651   5.853   0.965
15982WAT     H148188   3.607   5.933   1.005
15982WAT     H248189   3.635   5.852   0.866
15983WAT      O48190   2.053   6.643   4.012
15983WAT     H148191   2.137   6.662   4.061
15983WAT     H248192   2.016   6.554   4.041
15984WAT      O48193   7.107   1.482   6.308
15984WAT     H148194   7.058   1.565   6.284
15984WAT     H248195   7.159   1.496   6.392
15985WAT      O48196   2.430   3.238   7.879
15985WAT     H148197   2.473   3.303   7.941
15985WAT     H248198   2.501   3.192   7.825
15986WAT      O48199   4.526   3.598   5.584
15986WAT     H148200   4.610   3.556   5.549
15986WAT     H248201   4.448   3.538   5.566
15987WAT      O48202   2.244   4.653   9.138
15987WAT     H148203   2.210   4.746   9.148
15987WAT     H248204   2.180   4.600   9.083
15988WAT      O48205   1.682   8.174   3.091
15988WAT     H148206   1.686   8.268   3.058
15988WAT     H248207   1.587   8.146   3.099
15989WAT      O48208   6.267   8.273   6.752
15989WAT     H148209   6.169   8.252   6.751
15989WAT     H248210   6.282   8.359   6.802
15990WAT      O48211   6.128   1.161   0.580
15990WAT     H148212   6.107   1.252   0.544
15990WAT     H248213   6.200   1.169   0.650
15991WAT      O48214   0.993   3.638   9.369
15991WAT     H148215   0.930   3.688   9.310
15991WAT     H248216   0.995   3.681   9.460
15992WAT      O48217   7.658   3.956   7.276
15992WAT     H148218   7.640   4.016   7.198
15992WAT     H248219   7.604   3.872   7.266
15993WAT      O48220   4.875   8.455   7.679
15993WAT     H148221   4.832   8.374   7.639
15993WAT     H248222   4.902   8.435   7.774
15994WAT      O48223   7.657   5.400   1.039
15994WAT     H148224   7.628   5.446   1.123
15994WAT     H248225   7.591   5.329   1.015
15995WAT      O48226   6.908   7.396   8.262
15995WAT     H148227   6.956   7.370   8.178
15995WAT     H248228   6.975   7.432   8.328
15996WAT      O48229   6.579   1.961   6.036
15996WAT     H148230   6.484   1.940   6.057
15996WAT     H248231   6.639   1.906   6.095
15997WAT      O48232   1.037   1.774   7.944
15997WAT     H148233   1.038   1.675   7.934
15997WAT     H248234   1.126   1.806   7.976
15998WAT      O48235   6.019   6.116   0.974
15998WAT     H148236   6.066   6.039   1.016
15998WAT     H248237   6.028   6.112   0.875
15999WAT      O48238   0.097   3.971   4.305
15999WAT     H148239   0.018   3.976   4.366
15999WAT     H248240   0.166   3.910   4.345
16000WAT      O48241   1.848   7.685   0.119
16000WAT     H148242   1.913   7.753   0.086
16000WAT     H248243   1.853   7.603   0.062
16001WAT      O48244   8.478   2.775   9.599
16001WAT     H148245   8.403   2.715   9.627
16001WAT     H248246   8.501   2.838   9.673
16002WAT      O48247   1.179   0.417   9.164
16002WAT     H148248   1.128   0.426   9.079
16002WAT     H248249   1.159   0.328   9.205
16003WAT      O48250   7.062   5.610   2.464
16003WAT     H148251   7.142   5.559   2.494
16003WAT     H248252   7.091   5.692   2.415
16004WAT      O48253   2.398   3.388   3.749
16004WAT     H148254   2.330   3.316   3.733
16004WAT     H248255   2.416   3.394   3.848
16005WAT      O48256   1.051   6.846   8.031
16005WAT     H148257   1.035   6.847   8.130
16005WAT     H248258   1.059   6.939   7.998
16006WAT      O48259   5.412   1.299   6.034
16006WAT     H148260   5.379   1.277   5.943
16006WAT     H248261   5.474   1.377   6.030
16007WAT      O48262   8.889   5.901   4.964
16007WAT     H148263   8.848   5.948   5.042
16007WAT     H248264   8.947   5.965   4.913
16008WAT      O48265   4.503   3.142   3.924
16008WAT     H148266   4.578   3.091   3.883
16008WAT     H248267   4.491   3.229   3.876
16009WAT      O48268   9.723   8.375   2.469
16009WAT     H148269   9.740   8.473   2.477
16009WAT     H248270   9.710   8.350   2.373
16010WAT      O48271   2.818   9.122   7.050
16010WAT     H148272   2.900   9.179   7.045
16010WAT     H248273   2.812   9.064   6.968
16011WAT      O48274   5.964   5.007   0.663
16011WAT     H148275   6.033   5.078   0.677
16011WAT     H248276   5.891   5.019   0.730
16012WAT      O48277   0.280   4.646   1.380
16012WAT     H148278   0.269   4.699   1.296
16012WAT     H248279   0.300   4.707   1.456
16013WAT      O48280   6.979   1.799   6.477
16013WAT     H148281   7.011   1.794   6.382
16013WAT     H248282   6.880   1.797   6.479
16014WAT      O48283   1.175   4.203   8.438
16014WAT     H148284   1.189   4.302   8.448
16014WAT     H248285   1.080   4.185   8.412
16015WAT      O48286   1.351   7.166   0.371
16015WAT     H148287   1.289   7.213   0.434
16015WAT     H248288   1.420   7.116   0.424
16016WAT      O48289   5.836   4.484   5.666
16016WAT     H148290   5.904   4.412   5.659
16016WAT     H248291   5.788   4.494   5.579
16017WAT      O48292   5.035   5.803   6.954
16017WAT     H148293   5.011   5.828   6.860
16017WAT     H248294   5.135   5.794   6.962
16018WAT      O48295   8.359   3.905   9.651
16018WAT     H148296   8.323   3.998   9.643
16018WAT     H248297   8.286   3.843   9.679
16019WAT      O48298   3.002   5.785   8.666
16019WAT     H148299   2.941   5.850   8.621
16019WAT     H248300   2.952   5.700   8.685
16020WAT      O48301   9.693   2.465   6.485
16020WAT     H148302   9.679   2.504   6.393
16020WAT     H248303   9.629   2.389   6.498
16021WAT      O48304   2.452   1.588   5.645
16021WAT     H148305   2.417   1.663   5.701
16021WAT     H248306   2.547   1.570   5.671
16022WAT      O48307   3.861   2.709   8.329
16022WAT     H148308   3.787   2.687   8.392
16022WAT     H248309   3.946   2.670   8.363
16023WAT      O48310   9.523   6.754   7.965
16023WAT     H148311   9.427   6.743   7.938
16023WAT     H248312   9.537   6.847   8.001
16024WAT      O48313   6.148   0.860   4.441
16024WAT     H148314   6.232   0.838   4.391
16024WAT     H248315   6.072   0.805   4.406
16025WAT      O48316   8.715   2.389   3.291
16025WAT     H148317   8.649   2.347   3.354
16025WAT     H248318   8.703   2.351   3.200
16026WAT      O48319   7.056   9.377   0.553
16026WAT     H148320   7.117   9.376   0.632
16026WAT     H248321   6.989   9.450   0.564
16027WAT      O48322   1.712   6.796   4.814
16027WAT     H148323   1.620   6.823   4.843
16027WAT     H248324   1.717   6.696   4.806
16028WAT      O48325   0.249   5.992   4.268
16028WAT     H148326   0.205   5.945   4.192
16028WAT     H248327   0.288   6.078   4.236
16029WAT      O48328   6.982   2.475   4.419
16029WAT     H148329   6.931   2.561   4.424
16029WAT     H248330   6.919   2.400   4.404
16030WAT      O48331   0.458   2.968   2.929
16030WAT     H148332   0.503   2.913   3.000
16030WAT     H248333   0.452   2.916   2.845
16031WAT      O48334   6.914   5.981   2.592
16031WAT     H148335   6.820   5.960   2.616
16031WAT     H248336   6.924   6.080   2.579
16032WAT      O48337   1.234   7.022   8.411
16032WAT     H148338   1.264   6.934   8.376
16032WAT     H248339   1.312   7.085   8.414
16033WAT      O48340   0.389   5.760   6.687
16033WAT     H148341   0.385   5.670   6.644
16033WAT     H248342   0.418   5.827   6.618
16034WAT      O48343   5.556   5.509   7.437
16034WAT     H148344   5.610   5.592   7.428
16034WAT     H248345   5.495   5.500   7.358
16035WAT      O48346   8.390   5.822   7.582
16035WAT     H148347   8.462   5.875   7.626
16035WAT     H248348   8.386   5.845   7.485
16036WAT      O48349   3.779   4.305   4.533
16036WAT     H148350   3.854   4.343   4.586
16036WAT     H248351   3.794   4.207   4.519
16037WAT      O48352   6.095   8.133   7.665
16037WAT     H148353   6.055   8.075   7.594
16037WAT     H248354   6.023   8.161   7.729
16038WAT      O48355   8.134   5.886   6.630
16038WAT     H148356   8.055   5.918   6.577
16038WAT     H248357   8.142   5.787   6.622
16039WAT      O48358   4.184   2.761   8.670
16039WAT     H148359   4.193   2.842   8.612
16039WAT     H248360   4.273   2.738   8.710
16040WAT      O48361   0.702   2.342   1.675
16040WAT     H148362   0.746   2.334   1.764
16040WAT     H248363   0.736   2.424   1.628
16041WAT      O48364   8.601   1.535   8.920
16041WAT     H148365   8.668   1.558   8.849
16041WAT     H248366   8.648   1.492   8.997
16042WAT      O48367   2.674   0.133   4.807
16042WAT     H148368   2.760   0.145   4.757
16042WAT     H248369   2.597   0.145   4.744
16043WAT      O48370   8.288   1.497   0.236
16043WAT     H148371   8.304   1.512   0.333
16043WAT     H248372   8.189   1.494   0.219
16044WAT      O48373   1.300   9.311   7.809
16044WAT     H148374   1.304   9.276   7.715
16044WAT     H248375   1.274   9.238   7.871
16045WAT      O48376   3.598   3.762   0.371
16045WAT     H148377   3.673   3.827   0.377
16045WAT     H248378   3.532   3.780   0.445
16046WAT      O48379   8.815   0.914   6.285
16046WAT     H148380   8.869   0.911   6.369
16046WAT     H248381   8.731   0.967   6.302
16047WAT      O48382   6.753   1.629   8.846
16047WAT     H148383   6.693   1.684   8.788
16047WAT     H248384   6.769   1.540   8.803
16048WAT      O48385   6.334   6.544   9.814
16048WAT     H148386   6.288   6.461   9.845
16048WAT     H248387   6.278   6.590   9.745
16049WAT      O48388   5.395   6.292   7.518
16049WAT     H148389   5.475   6.279   7.577
16049WAT     H248390   5.319   6.328   7.572
16050WAT      O48391   1.063   2.561   1.429
16050WAT     H148392   1.160   2.563   1.454
16050WAT     H248393   1.053   2.586   1.333
16051WAT      O48394   1.807   5.362   6.161
16051WAT     H148395   1.778   5.444   6.112
16051WAT     H248396   1.895   5.331   6.125
16052WAT      O48397   5.199   4.247   2.074
16052WAT     H148398   5.273   4.202   2.124
16052WAT     H248399   5.114   4.197   2.090
16053WAT      O48400   6.224   0.992   9.340
16053WAT     H148401   6.201   1.073   9.395
16053WAT     H248402   6.276   0.928   9.396
16054WAT      O48403   7.712   0.565   0.906
16054WAT     H148404   7.716   0.656   0.947
16054WAT     H248405   7.630   0.560   0.849
16055WAT      O48406   2.842   5.103   9.409
16055WAT     H148407   2.925   5.137   9.364
16055WAT     H248408   2.803   5.176   9.465
16056WAT      O48409   0.614   7.463   5.630
16056WAT     H148410   0.553   7.512   5.567
16056WAT     H248411   0.580   7.474   5.723
16057WAT      O48412   7.553   5.809   7.107
16057WAT     H148413   7.590   5.730   7.157
16057WAT     H248414   7.628   5.855   7.060
16058WAT      O48415   4.540   7.485   5.729
16058WAT     H148416   4.504   7.393   5.747
16058WAT     H248417   4.540   7.502   5.630
16059WAT      O48418   7.473   1.212   7.172
16059WAT     H148419   7.495   1.120   7.204
16059WAT     H248420   7.463   1.273   7.251
16060WAT      O48421   5.947   5.609   5.684
16060WAT     H148422   5.943   5.585   5.781
16060WAT     H248423   5.977   5.529   5.631
16061WAT      O48424   9.236   4.981   4.440
16061WAT     H148425   9.231   4.899   4.382
16061WAT     H248426   9.313   4.972   4.503
16062WAT      O48427   1.535   2.622   2.256
16062WAT     H148428   1.437   2.608   2.242
16062WAT     H248429   1.583   2.607   2.169
16063WAT      O48430   0.428   1.317   8.278
16063WAT     H148431   0.503   1.381   8.256
16063WAT     H248432   0.350   1.369   8.313
16064WAT      O48433   4.907   6.812   6.306
16064WAT     H148434   4.958   6.840   6.388
16064WAT     H248435   4.812   6.796   6.331
16065WAT      O48436   2.323   8.324   6.667
16065WAT     H148437   2.326   8.391   6.592
16065WAT     H248438   2.413   8.319   6.710
16066WAT      O48439   4.782   0.459   7.535
16066WAT     H148440   4.770   0.505   7.623
16066WAT     H248441   4.697   0.467   7.482
16067WAT      O48442   0.142   4.759   7.596
16067WAT     H148443   0.142   4.837   7.533
16067WAT     H248444   0.226   4.706   7.583
16068WAT      O48445   5.272   6.126   9.149
16068WAT     H148446   5.333   6.186   9.098
16068WAT     H248447   5.301   6.120   9.244
16069WAT      O48448   1.495   6.565   5.192
16069WAT     H148449   1.494   6.536   5.288
16069WAT     H248450   1.475   6.487   5.133
16070WAT      O48451   1.446   2.461   3.389
16070WAT     H148452   1.530   2.508   3.363
16070WAT     H248453   1.368   2.508   3.348
16071WAT      O48454   4.033   5.701   9.510
16071WAT     H148455   3.946   5.653   9.495
16071WAT     H248456   4.104   5.661   9.453
16072WAT      O48457   3.693   2.789   1.694
16072WAT     H148458   3.654   2.773   1.603
16072WAT     H248459   3.619   2.813   1.757
16073WAT      O48460   8.660   4.227   3.788
16073WAT     H148461   8.652   4.149   3.850
16073WAT     H248462   8.740   4.215   3.729
16074WAT      O48463   4.635   3.496   2.548
16074WAT     H148464   4.724   3.510   2.506
16074WAT     H248465   4.647   3.473   2.645
16075WAT      O48466   2.083   4.010   0.178
16075WAT     H148467   2.107   3.988   0.273
16075WAT     H248468   2.151   3.969   0.117
16076WAT      O48469   6.774   3.132   7.423
16076WAT     H148470   6.799   3.134   7.519
16076WAT     H248471   6.765   3.037   7.393
16077WAT      O48472   6.640   4.164   9.379
16077WAT     H148473   6.570   4.198   9.316
16077WAT     H248474   6.654   4.231   9.452
16078WAT      O48475   8.535   2.086   5.467
16078WAT     H148476   8.540   2.064   5.369
16078WAT     H248477   8.543   2.185   5.478
16079WAT      O48478   2.825   1.562   5.995
16079WAT     H148479   2.849   1.466   5.982
16079WAT     H248480   2.908   1.616   6.001
16080WAT      O48481   9.683   0.102   4.466
16080WAT     H148482   9.780   0.084   4.451
16080WAT     H248483   9.672   0.159   4.546
16081WAT      O48484   1.746   3.138   5.846
16081WAT     H148485   1.841   3.107   5.857
16081WAT     H248486   1.705   3.152   5.935
16082WAT      O48487   6.993   2.187   6.744
16082WAT     H148488   7.064   2.148   6.686
16082WAT     H248489   6.969   2.120   6.815
16083WAT      O48490   4.067   6.288   2.533
16083WAT     H148491   4.151   6.267   2.483
16083WAT     H248492   4.089   6.338   2.617
16084WAT      O48493   0.771   7.088   8.812
16084WAT     H148494   0.842   7.082   8.741
16084WAT     H248495   0.681   7.092   8.769
16085WAT      O48496   7.388   7.941   6.362
16085WAT     H148497   7.478   7.911   6.395
16085WAT     H248498   7.317   7.884   6.404
16086WAT      O48499   3.741   0.780   6.776
16086WAT     H148500   3.710   0.803   6.868
16086WAT     H248501   3.829   0.823   6.759
16087WAT      O48502   4.251   7.476   2.030
16087WAT     H148503   4.227   7.436   1.942
16087WAT     H248504   4.257   7.404   2.099
16088WAT      O48505   0.923   8.890   3.722
16088WAT     H148506   0.945   8.941   3.638
16088WAT     H248507   0.829   8.856   3.716
16089WAT      O48508   9.604   1.042   8.987
16089WAT     H148509   9.545   0.964   8.968
16089WAT     H248510   9.618   1.094   8.903
16090WAT      O48511   9.845   1.703   9.496
16090WAT     H148512   9.832   1.702   9.397
16090WAT     H248513   9.877   1.613   9.526
16091WAT      O48514   5.180   9.020   1.374
16091WAT     H148515   5.137   8.964   1.304
16091WAT     H248516   5.279   9.016   1.363
16092WAT      O48517   0.204   0.299   6.568
16092WAT     H148518   0.175   0.394   6.564
16092WAT     H248519   0.281   0.290   6.631
16093WAT      O48520   5.937   0.509   2.431
16093WAT     H148521   5.881   0.562   2.368
16093WAT     H248522   5.880   0.471   2.503
16094WAT      O48523   9.566   8.977   5.320
16094WAT     H148524   9.474   8.942   5.308
16094WAT     H248525   9.633   8.907   5.294
16095WAT      O48526   9.378   3.431   4.572
16095WAT     H148527   9.348   3.372   4.497
16095WAT     H248528   9.431   3.507   4.535
16096WAT      O48529   4.772   6.134   2.434
16096WAT     H148530   4.674   6.115   2.425
16096WAT     H248531   4.820   6.094   2.356
16097WAT      O48532   3.882   8.089   8.595
16097WAT     H148533   3.848   7.996   8.583
16097WAT     H248534   3.967   8.086   8.648
16098WAT      O48535   7.841   0.983   4.755
16098WAT     H148536   7.915   0.916   4.753
16098WAT     H248537   7.813   1.005   4.661
16099WAT      O48538   2.155   9.116   0.702
16099WAT     H148539   2.160   9.025   0.662
16099WAT     H248540   2.209   9.179   0.645
16100WAT      O48541   7.366   0.677   9.144
16100WAT     H148542   7.437   0.709   9.206
16100WAT     H248543   7.372   0.727   9.057
16101WAT      O48544   4.625   4.121   7.048
16101WAT     H148545   4.653   4.217   7.047
16101WAT     H248546   4.644   4.081   6.958
16102WAT      O48547   1.322   5.721   4.484
16102WAT     H148548   1.391   5.792   4.478
16102WAT     H248549   1.267   5.721   4.400
16103WAT      O48550   0.874   0.732   3.696
16103WAT     H148551   0.904   0.638   3.709
16103WAT     H248552   0.925   0.774   3.620
16104WAT      O48553   8.080   4.656   5.507
16104WAT     H148554   8.028   4.572   5.493
16104WAT     H248555   8.161   4.655   5.448
16105WAT      O48556   6.459   0.791   6.476
16105WAT     H148557   6.506   0.837   6.400
16105WAT     H248558   6.360   0.807   6.469
16106WAT      O48559   9.330   0.021   8.445
16106WAT     H148560   9.382   0.105   8.427
16106WAT     H248561   9.394  -0.056   8.450
16107WAT      O48562   4.317   1.106   4.575
16107WAT     H148563   4.305   1.156   4.661
16107WAT     H248564   4.412   1.078   4.566
16108WAT      O48565   5.572   1.590   9.616
16108WAT     H148566   5.535   1.661   9.677
16108WAT     H248567   5.590   1.630   9.526
16109WAT      O48568   9.656   3.426   9.079
16109WAT     H148569   9.680   3.521   9.097
16109WAT     H248570   9.587   3.396   9.145
16110WAT      O48571   0.679   3.766   4.167
16110WAT     H148572   0.737   3.833   4.121
16110WAT     H248573   0.662   3.797   4.261
16111WAT      O48574   9.650   8.902   6.146
16111WAT     H148575   9.716   8.848   6.198
16111WAT     H248576   9.645   8.994   6.185
16112WAT      O48577   9.360   2.274   7.546
16112WAT     H148578   9.414   2.248   7.466
16112WAT     H248579   9.419   2.318   7.614
16113WAT      O48580   7.603   7.989   5.790
16113WAT     H148581   7.565   7.896   5.782
16113WAT     H248582   7.528   8.054   5.802
16114WAT      O48583   3.510   8.433   5.915
16114WAT     H148584   3.597   8.482   5.910
16114WAT     H248585   3.441   8.481   5.861
16115WAT      O48586   1.790   4.636   7.009
16115WAT     H148587   1.807   4.670   6.917
16115WAT     H248588   1.715   4.687   7.051
16116WAT      O48589   1.221   2.933   0.677
16116WAT     H148590   1.159   2.981   0.614
16116WAT     H248591   1.209   2.969   0.769
16117WAT      O48592   2.707   6.054   3.146
16117WAT     H148593   2.704   5.991   3.224
16117WAT     H248594   2.769   6.129   3.167
16118WAT      O48595   4.797   3.326   6.394
16118WAT     H148596   4.887   3.362   6.417
16118WAT     H248597   4.744   3.311   6.478
16119WAT      O48598   7.234   9.738   7.049
16119WAT     H148599   7.308   9.701   6.993
16119WAT     H248600   7.243   9.837   7.055
16120WAT      O48601   7.659   3.817   7.529
16120WAT     H148602   7.598   3.863   7.593
16120WAT     H248603   7.691   3.883   7.461
16121WAT      O48604   5.446   6.110   0.427
16121WAT     H148605   5.445   6.110   0.327
16121WAT     H248606   5.352   6.102   0.461
16122WAT      O48607   7.590   3.001   6.976
16122WAT     H148608   7.542   3.043   6.898
16122WAT     H248609   7.566   2.905   6.982
16123WAT      O48610   8.319   8.631   0.180
16123WAT     H148611   8.359   8.548   0.141
16123WAT     H248612   8.348   8.640   0.275
16124WAT      O48613   1.231   9.006   1.432
16124WAT     H148614   1.312   8.984   1.486
16124WAT     H248615   1.259   9.057   1.350
16125WAT      O48616   3.069   1.648   1.220
16125WAT     H148617   2.970   1.633   1.223
16125WAT     H248618   3.089   1.742   1.245
16126WAT      O48619   4.377   2.552   4.839
16126WAT     H148620   4.365   2.567   4.937
16126WAT     H248621   4.447   2.482   4.824
16127WAT      O48622   3.172   5.474   4.461
16127WAT     H148623   3.092   5.429   4.501
16127WAT     H248624   3.232   5.405   4.422
16128WAT      O48625   0.243   4.586   7.240
16128WAT     H148626   0.277   4.643   7.165
16128WAT     H248627   0.264   4.630   7.328
16129WAT      O48628   0.362   1.794   3.068
16129WAT     H148629   0.363   1.877   3.123
16129WAT     H248630   0.280   1.792   3.012
16130WAT      O48631   7.159   8.095   4.969
16130WAT     H148632   7.229   8.154   4.930
16130WAT     H248633   7.106   8.053   4.896
16131WAT      O48634   9.018   4.285   7.132
16131WAT     H148635   8.954   4.212   7.107
16131WAT     H248636   8.998   4.367   7.079
16132WAT      O48637   6.968   3.284   9.758
16132WAT     H148638   6.926   3.362   9.804
16132WAT     H248639   6.898   3.216   9.736
16133WAT      O48640   9.671   7.547   7.660
16133WAT     H148641   9.621   7.477   7.609
16133WAT     H248642   9.766   7.550   7.628
16134WAT      O48643   7.540   4.248   5.624
16134WAT     H148644   7.476   4.299   5.682
16134WAT     H248645   7.503   4.243   5.531
16135WAT      O48646   4.363   7.671   1.329
16135WAT     H148647   4.454   7.629   1.320
16135WAT     H248648   4.369   7.749   1.391
16136WAT      O48649   2.412   0.029   6.628
16136WAT     H148650   2.455  -0.056   6.596
16136WAT     H248651   2.348   0.008   6.702
16137WAT      O48652   3.957   9.094   6.930
16137WAT     H148653   4.000   9.014   6.890
16137WAT     H248654   3.986   9.176   6.880
16138WAT      O48655   9.124   1.970   5.904
16138WAT     H148656   9.160   1.882   5.873
16138WAT     H248657   9.034   1.956   5.946
16139WAT      O48658   4.959   3.187   3.486
16139WAT     H148659   4.987   3.234   3.403
16139WAT     H248660   5.031   3.196   3.555
16140WAT      O48661   9.456   3.208   6.519
16140WAT     H148662   9.509   3.291   6.531
16140WAT     H248663   9.374   3.228   6.465
16141WAT      O48664   4.217   5.974   5.143
16141WAT     H148665   4.157   6.053   5.149
16141WAT     H248666   4.162   5.892   5.126
16142WAT      O48667   0.665   3.929   1.193
16142WAT     H148668   0.607   3.941   1.273
16142WAT     H248669   0.623   3.863   1.130
16143WAT      O48670   0.686   8.714   8.236
16143WAT     H148671   0.612   8.778   8.254
16143WAT     H248672   0.749   8.713   8.313
16144WAT      O48673   5.633   1.785   2.588
16144WAT     H148674   5.653   1.691   2.613
16144WAT     H248675   5.708   1.844   2.617
16145WAT      O48676   3.396   9.370   2.758
16145WAT     H148677   3.482   9.413   2.731
16145WAT     H248678   3.415   9.289   2.814
16146WAT      O48679   0.061   9.600   1.780
16146WAT     H148680   0.149   9.633   1.748
16146WAT     H248681   0.048   9.625   1.876
16147WAT      O48682   6.597   6.599   9.839
16147WAT     H148683   6.640   6.618   9.751
16147WAT     H248684   6.503   6.569   9.824
16148WAT      O48685   1.543   0.306   7.517
16148WAT     H148686   1.580   0.367   7.588
16148WAT     H248687   1.617   0.248   7.482
16149WAT      O48688   2.500   0.660   3.257
16149WAT     H148689   2.535   0.612   3.177
16149WAT     H248690   2.569   0.724   3.291
16150WAT      O48691   0.395   0.883   1.582
16150WAT     H148692   0.348   0.966   1.614
16150WAT     H248693   0.485   0.907   1.546
16151WAT      O48694   6.246   1.967   0.064
16151WAT     H148695   6.296   1.906   0.126
16151WAT     H248696   6.206   2.043   0.116
16152WAT      O48697   4.367   7.072   6.958
16152WAT     H148698   4.429   7.017   7.013
16152WAT     H248699   4.392   7.064   6.862
16153WAT      O48700   6.013   6.355   1.762
16153WAT     H148701   6.108   6.327   1.771
16153WAT     H248702   5.954   6.290   1.810
16154WAT      O48703   3.966   8.737   2.450
16154WAT     H148704   4.035   8.801   2.484
16154WAT     H248705   3.991   8.707   2.358
16155WAT      O48706   0.020   4.470   1.116
16155WAT     H148707   0.033   4.481   1.214
16155WAT     H248708  -0.050   4.534   1.084
16156WAT      O48709   3.158   2.425   5.116
16156WAT     H148710   3.081   2.461   5.063
16156WAT     H248711   3.242   2.471   5.088
16157WAT      O48712   8.886   7.283   2.434
16157WAT     H148713   8.946   7.362   2.445
16157WAT     H248714   8.823   7.300   2.358
16158WAT      O48715   3.172   9.520   7.933
16158WAT     H148716   3.081   9.480   7.920
16158WAT     H248717   3.224   9.512   7.847
16159WAT      O48718   1.003   9.570   8.424
16159WAT     H148719   1.047   9.648   8.467
16159WAT     H248720   0.914   9.554   8.466
16160WAT      O48721   2.050   7.357   8.297
16160WAT     H148722   2.084   7.449   8.279
16160WAT     H248723   2.124   7.300   8.333
16161WAT      O48724   8.980   7.241   3.270
16161WAT     H148725   9.052   7.283   3.324
16161WAT     H248726   9.017   7.161   3.222
16162WAT      O48727   8.909   3.276   4.209
16162WAT     H148728   8.866   3.238   4.290
16162WAT     H248729   8.848   3.342   4.166
16163WAT      O48730   0.268   8.637   2.395
16163WAT     H148731   0.326   8.658   2.475
16163WAT     H248732   0.291   8.546   2.360
16164WAT      O48733   3.212   5.663   3.316
16164WAT     H148734   3.241   5.623   3.403
16164WAT     H248735   3.292   5.678   3.258
16165WAT      O48736   0.627   4.092   4.419
16165WAT     H148737   0.580   4.010   4.451
16165WAT     H248738   0.723   4.071   4.401
16166WAT      O48739   7.948   5.380   0.520
16166WAT     H148740   7.973   5.434   0.601
16166WAT     H248741   7.891   5.303   0.548
16167WAT      O48742   3.281   7.935   2.132
16167WAT     H148743   3.260   7.844   2.097
16167WAT     H248744   3.280   7.934   2.232
16168WAT      O48745   8.609   0.152   0.186
16168WAT     H148746   8.538   0.111   0.243
16168WAT     H248747   8.608   0.251   0.197
16169WAT      O48748   5.413   0.781   0.003
16169WAT     H148749   5.462   0.867  -0.012
16169WAT     H248750   5.462   0.727   0.072
16170WAT      O48751   0.597   8.434   8.174
16170WAT     H148752   0.647   8.520   8.170
16170WAT     H248753   0.639   8.367   8.113
16171WAT      O48754   0.548   1.262   4.096
16171WAT     H148755   0.474   1.216   4.048
16171WAT     H248756   0.617   1.291   4.030
16172WAT      O48757   5.243   9.102   8.427
16172WAT     H148758   5.339   9.081   8.408
16172WAT     H248759   5.184   9.039   8.377
16173WAT      O48760   1.703   3.179   5.039
16173WAT     H148761   1.649   3.109   5.085
16173WAT     H248762   1.798   3.174   5.072
16174WAT      O48763   3.961   9.624   8.952
16174WAT     H148764   4.023   9.626   9.031
16174WAT     H248765   3.938   9.529   8.931
16175WAT      O48766   2.445   7.690   5.545
16175WAT     H148767   2.436   7.600   5.587
16175WAT     H248768   2.506   7.685   5.466
16176WAT      O48769   2.318   5.253   4.482
16176WAT     H148770   2.262   5.244   4.565
16176WAT     H248771   2.296   5.339   4.436
16177WAT      O48772   3.077   8.868   5.174
16177WAT     H148773   3.061   8.837   5.080
16177WAT     H248774   3.127   8.797   5.225
16178WAT      O48775   3.826   4.709   5.720
16178WAT     H148776   3.880   4.648   5.779
16178WAT     H248777   3.840   4.804   5.749
16179WAT      O48778   8.045   4.134   0.320
16179WAT     H148779   8.038   4.162   0.224
16179WAT     H248780   8.122   4.182   0.362
16180WAT      O48781   4.028   6.626   7.351
16180WAT     H148782   4.040   6.527   7.355
16180WAT     H248783   4.001   6.660   7.442
16181WAT      O48784   6.978   6.903   5.451
16181WAT     H148785   7.048   6.974   5.451
16181WAT     H248786   6.979   6.854   5.538
16182WAT      O48787   1.188   6.306   0.132
16182WAT     H148788   1.096   6.340   0.154
16182WAT     H248789   1.189   6.207   0.137
16183WAT      O48790   5.143   7.308   7.972
16183WAT     H148791   5.148   7.210   7.949
16183WAT     H248792   5.141   7.319   8.071
16184WAT      O48793   9.655   3.704   4.951
16184WAT     H148794   9.565   3.745   4.939
16184WAT     H248795   9.722   3.754   4.898
16185WAT      O48796   0.102   2.536   0.949
16185WAT     H148797   0.085   2.438   0.947
16185WAT     H248798   0.110   2.567   1.043
16186WAT      O48799   7.331   3.122   8.306
16186WAT     H148800   7.396   3.112   8.382
16186WAT     H248801   7.377   3.162   8.228
16187WAT      O48802   7.500   2.699   2.427
16187WAT     H148803   7.447   2.757   2.488
16187WAT     H248804   7.440   2.631   2.385
16188WAT      O48805   7.205   4.795   8.721
16188WAT     H148806   7.304   4.803   8.706
16188WAT     H248807   7.159   4.784   8.633
16189WAT      O48808   1.406   6.857   1.951
16189WAT     H148809   1.402   6.946   1.905
16189WAT     H248810   1.341   6.794   1.907
16190WAT      O48811   9.645   6.902   9.204
16190WAT     H148812   9.548   6.908   9.180
16190WAT     H248813   9.657   6.839   9.281
16191WAT      O48814   7.164   5.304   0.881
16191WAT     H148815   7.166   5.272   0.976
16191WAT     H248816   7.237   5.259   0.830
16192WAT      O48817   3.907   7.113   1.551
16192WAT     H148818   3.912   7.182   1.623
16192WAT     H248819   3.858   7.150   1.473
16193WAT      O48820   8.926   8.307   3.283
16193WAT     H148821   9.008   8.361   3.264
16193WAT     H248822   8.848   8.368   3.297
16194WAT      O48823   5.612   6.471   4.843
16194WAT     H148824   5.600   6.564   4.807
16194WAT     H248825   5.577   6.467   4.936
16195WAT      O48826   0.701   0.761   2.459
16195WAT     H148827   0.751   0.704   2.393
16195WAT     H248828   0.611   0.720   2.476
16196WAT      O48829   4.097   9.251   4.732
16196WAT     H148830   4.169   9.193   4.769
16196WAT     H248831   4.069   9.318   4.800
16197WAT      O48832   8.985   1.517   5.767
16197WAT     H148833   9.032   1.429   5.775
16197WAT     H248834   9.051   1.591   5.774
16198WAT      O48835   3.611   0.629   1.888
16198WAT     H148836   3.512   0.618   1.877
16198WAT     H248837   3.635   0.628   1.985
16199WAT      O48838   3.082   5.780   6.876
16199WAT     H148839   3.139   5.839   6.819
16199WAT     H248840   3.111   5.685   6.864
16200WAT      O48841   8.455   1.772   8.978
16200WAT     H148842   8.455   1.685   8.928
16200WAT     H248843   8.362   1.808   8.982
16201WAT      O48844   1.241   5.477   8.590
16201WAT     H148845   1.307   5.432   8.650
16201WAT     H248846   1.270   5.572   8.576
16202WAT      O48847   0.494   1.698   1.563
16202WAT     H148848   0.480   1.783   1.514
16202WAT     H248849   0.536   1.716   1.652
16203WAT      O48850   0.760   6.160   2.914
16203WAT     H148851   0.809   6.170   2.827
16203WAT     H248852   0.720   6.068   2.918
16204WAT      O48853   2.480   0.592   0.339
16204WAT     H148854   2.491   0.495   0.362
16204WAT     H248855   2.504   0.648   0.418
16205WAT      O48856   0.242   3.632   0.279
16205WAT     H148857   0.171   3.562   0.276
16205WAT     H248858   0.272   3.652   0.185
16206WAT      O48859   3.038   8.468   8.842
16206WAT     H148860   3.067   8.410   8.766
16206WAT     H248861   2.943   8.446   8.865
16207WAT      O48862   5.658   7.680   4.476
16207WAT     H148863   5.689   7.588   4.453
16207WAT     H248864   5.590   7.675   4.549
16208WAT      O48865   7.768   2.750   4.468
16208WAT     H148866   7.826   2.672   4.443
16208WAT     H248867   7.681   2.716   4.505
16209WAT      O48868   3.611   8.372   2.719
16209WAT     H148869   3.690   8.426   2.749
16209WAT     H248870   3.636   8.321   2.637
16210WAT      O48871   2.390   2.497   5.882
16210WAT     H148872   2.405   2.487   5.980
16210WAT     H248873   2.453   2.565   5.845
16211WAT      O48874   5.426   2.274   4.506
16211WAT     H148875   5.372   2.249   4.427
16211WAT     H248876   5.521   2.246   4.492
16212WAT      O48877   8.008   1.452   4.788
16212WAT     H148878   8.001   1.359   4.824
16212WAT     H248879   8.103   1.484   4.795
16213WAT      O48880   6.025   4.195   7.080
16213WAT     H148881   5.940   4.196   7.028
16213WAT     H248882   6.083   4.119   7.050
16214WAT      O48883   9.630   7.488   3.710
16214WAT     H148884   9.677   7.513   3.794
16214WAT     H248885   9.633   7.389   3.697
16215WAT      O48886   4.945   8.241   9.094
16215WAT     H148887   5.029   8.189   9.087
16215WAT     H248888   4.952   8.307   9.169
16216WAT      O48889   2.704   2.940   4.308
16216WAT     H148890   2.639   2.885   4.256
16216WAT     H248891   2.763   2.991   4.245
16217WAT      O48892   8.774   0.614   3.502
16217WAT     H148893   8.758   0.517   3.519
16217WAT     H248894   8.752   0.666   3.585
16218WAT      O48895   8.561   2.828   7.222
16218WAT     H148896   8.631   2.880   7.173
16218WAT     H248897   8.473   2.874   7.212
16219WAT      O48898   6.022   8.905   1.919
16219WAT     H148899   6.045   8.865   2.008
16219WAT     H248900   5.978   8.994   1.933
16220WAT      O48901   5.328   5.575   1.842
16220WAT     H148902   5.396   5.595   1.771
16220WAT     H248903   5.279   5.492   1.818
16221WAT      O48904   7.586   4.435   7.194
16221WAT     H148905   7.504   4.489   7.210
16221WAT     H248906   7.631   4.416   7.281
16222WAT      O48907   6.082   2.280   5.013
16222WAT     H148908   5.996   2.322   5.042
16222WAT     H248909   6.083   2.183   5.039
16223WAT      O48910   8.607   1.496   6.225
16223WAT     H148911   8.523   1.446   6.243
16223WAT     H248912   8.646   1.465   6.138
16224WAT      O48913   9.581   9.636   5.573
16224WAT     H148914   9.503   9.636   5.634
16224WAT     H248915   9.622   9.727   5.569
16225WAT      O48916   9.422   9.396   0.472
16225WAT     H148917   9.509   9.354   0.446
16225WAT     H248918   9.417   9.488   0.433
16226WAT      O48919   1.418   7.476   6.138
16226WAT     H148920   1.409   7.465   6.237
16226WAT     H248921   1.513   7.496   6.115
16227WAT      O48922   3.058   8.598   9.479
16227WAT     H148923   3.127   8.538   9.438
16227WAT     H248924   3.036   8.565   9.571
16228WAT      O48925   1.846   3.607   9.401
16228WAT     H148926   1.902   3.535   9.361
16228WAT     H248927   1.873   3.620   9.497
16229WAT      O48928   5.144   0.226   6.542
16229WAT     H148929   5.172   0.144   6.591
16229WAT     H248930   5.142   0.208   6.444
16230WAT      O48931   8.267   7.588   0.049
16230WAT     H148932   8.204   7.607  -0.026
16230WAT     H248933   8.252   7.495   0.082
16231WAT      O48934   2.990   0.748   3.290
16231WAT     H148935   3.067   0.738   3.354
16231WAT     H248936   3.025   0.769   3.199
16232WAT      O48937   3.100   0.878   2.264
16232WAT     H148938   3.124   0.908   2.172
16232WAT     H248939   3.101   0.778   2.268
16233WAT      O48940   9.381   5.080   7.772
16233WAT     H148941   9.349   5.099   7.865
16233WAT     H248942   9.434   4.995   7.772
16234WAT      O48943   8.732   7.182   0.162
16234WAT     H148944   8.749   7.264   0.108
16234WAT     H248945   8.755   7.101   0.108
16235WAT      O48946   8.047   5.685   8.862
16235WAT     H148947   8.015   5.778   8.841
16235WAT     H248948   8.030   5.626   8.783
16236WAT      O48949   0.951   7.596   9.504
16236WAT     H148950   0.947   7.551   9.414
16236WAT     H248951   0.880   7.667   9.509
16237WAT      O48952   9.113   0.942   0.892
16237WAT     H148953   9.089   0.854   0.934
16237WAT     H248954   9.138   0.927   0.796
16238WAT      O48955   2.126   1.129   3.455
16238WAT     H148956   2.159   1.222   3.472
16238WAT     H248957   2.082   1.126   3.365
16239WAT      O48958   3.124   8.607   6.351
16239WAT     H148959   3.171   8.588   6.265
16239WAT     H248960   3.049   8.541   6.364
16240WAT      O48961   9.719   3.673   2.118
16240WAT     H148962   9.762   3.762   2.120
16240WAT     H248963   9.788   3.601   2.132
16241WAT      O48964   4.366   0.645   8.197
16241WAT     H148965   4.280   0.613   8.236
16241WAT     H248966   4.409   0.571   8.145
16242WAT      O48967   6.369   6.729   3.199
16242WAT     H148968   6.282   6.750   3.154
16242WAT     H248969   6.364   6.638   3.240
16243WAT      O48970   1.801   6.603   2.782
16243WAT     H148971   1.735   6.627   2.711
16243WAT     H248972   1.842   6.687   2.819
16244WAT      O48973   3.804   7.398   3.227
16244WAT     H148974   3.727   7.458   3.203
16244WAT     H248975   3.775   7.333   3.298
16245WAT      O48976   0.101   1.033   2.438
16245WAT     H148977   0.153   1.112   2.407
16245WAT     H248978   0.158   0.977   2.498
16246WAT      O48979   9.806   9.269   5.581
16246WAT     H148980   9.890   9.238   5.537
16246WAT     H248981   9.739   9.195   5.582
16247WAT      O48982   9.617   2.878   6.744
16247WAT     H148983   9.536   2.920   6.703
16247WAT     H248984   9.603   2.866   6.842
16248WAT      O48985   8.295   1.485   0.915
16248WAT     H148986   8.332   1.577   0.921
16248WAT     H248987   8.195   1.489   0.922
16249WAT      O48988   0.613   9.213   6.574
16249WAT     H148989   0.671   9.133   6.571
16249WAT     H248990   0.583   9.236   6.481
16250WAT      O48991   3.876   5.706   2.247
16250WAT     H148992   3.886   5.792   2.198
16250WAT     H248993   3.959   5.688   2.300
16251WAT      O48994   5.004   7.513   5.719
16251WAT     H148995   5.049   7.425   5.703
16251WAT     H248996   5.047   7.583   5.661
16252WAT      O48997   8.194   2.141   6.325
16252WAT     H148998   8.242   2.220   6.288
16252WAT     H248999   8.180   2.155   6.423
16253WAT      O49000   7.383   9.082   2.394
16253WAT     H149001   7.325   9.129   2.328
16253WAT     H249002   7.445   9.020   2.346
16254WAT      O49003   9.013   1.075   2.046
16254WAT     H149004   8.950   1.042   1.975
16254WAT     H249005   9.083   1.132   2.003
16255WAT      O49006   0.425   8.815   2.997
16255WAT     H149007   0.351   8.826   2.932
16255WAT     H249008   0.393   8.841   3.089
16256WAT      O49009   3.800   1.688   8.773
16256WAT     H149010   3.790   1.588   8.777
16256WAT     H249011   3.826   1.715   8.680
16257WAT      O49012   8.368   9.604   2.978
16257WAT     H149013   8.458   9.574   2.948
16257WAT     H249014   8.310   9.525   2.994
16258WAT      O49015   7.773   7.982   6.083
16258WAT     H149016   7.807   7.913   6.019
16258WAT     H249017   7.673   7.989   6.073
16259WAT      O49018   0.965   1.355   1.374
16259WAT     H149019   1.063   1.339   1.359
16259WAT     H249020   0.929   1.412   1.301
16260WAT      O49021   2.319   3.655   8.970
16260WAT     H149022   2.347   3.749   8.989
16260WAT     H249023   2.400   3.598   8.956
16261WAT      O49024   4.563   5.868   2.186
16261WAT     H149025   4.535   5.796   2.249
16261WAT     H249026   4.635   5.834   2.126
16262WAT      O49027   3.938   9.386   8.220
16262WAT     H149028   3.956   9.475   8.176
16262WAT     H249029   3.925   9.400   8.318
16263WAT      O49030   4.778   0.395   7.128
16263WAT     H149031   4.679   0.395   7.116
16263WAT     H249032   4.804   0.326   7.196
16264WAT      O49033   7.534   3.705   9.242
16264WAT     H149034   7.521   3.655   9.156
16264WAT     H249035   7.630   3.702   9.269
16265WAT      O49036   2.699   3.403   3.517
16265WAT     H149037   2.660   3.358   3.437
16265WAT     H249038   2.701   3.339   3.593
16266WAT      O49039   9.251   9.320   8.508
16266WAT     H149040   9.340   9.298   8.548
16266WAT     H249041   9.259   9.328   8.409
16267WAT      O49042   2.254   8.453   9.449
16267WAT     H149043   2.260   8.389   9.373
16267WAT     H249044   2.165   8.499   9.448
16268WAT      O49045   0.571   5.236   8.859
16268WAT     H149046   0.572   5.138   8.875
16268WAT     H249047   0.638   5.260   8.789
16269WAT      O49048   7.410   1.678   6.971
16269WAT     H149049   7.390   1.582   6.986
16269WAT     H249050   7.438   1.720   7.057
16270WAT      O49051   8.559   2.695   2.222
16270WAT     H149052   8.563   2.742   2.134
16270WAT     H249053   8.578   2.598   2.209
16271WAT      O49054   4.845   8.342   4.757
16271WAT     H149055   4.816   8.371   4.849
16271WAT     H249056   4.895   8.256   4.763
16272WAT      O49057   0.330   0.812   8.819
16272WAT     H149058   0.233   0.813   8.844
16272WAT     H249059   0.347   0.882   8.749
16273WAT      O49060   1.699   4.020   9.500
16273WAT     H149061   1.673   4.024   9.404
16273WAT     H249062   1.763   3.944   9.514
16274WAT      O49063   0.208   5.875   2.061
16274WAT     H149064   0.231   5.968   2.032
16274WAT     H249065   0.281   5.812   2.034
16275WAT      O49066   9.108   1.214   4.047
16275WAT     H149067   9.084   1.208   3.950
16275WAT     H249068   9.037   1.172   4.103
16276WAT      O49069   1.609   7.039   7.703
16276WAT     H149070   1.641   7.111   7.765
16276WAT     H249071   1.550   6.976   7.753
16277WAT      O49072   2.103   8.302   8.224
16277WAT     H149073   2.153   8.388   8.217
16277WAT     H249074   2.098   8.274   8.320
16278WAT      O49075   2.909   3.404   2.508
16278WAT     H149076   2.836   3.459   2.469
16278WAT     H249077   2.993   3.417   2.455
16279WAT      O49078   7.042   2.330   9.627
16279WAT     H149079   6.991   2.311   9.543
16279WAT     H249080   7.052   2.429   9.638
16280WAT      O49081   6.922   9.753   9.874
16280WAT     H149082   6.913   9.847   9.906
16280WAT     H249083   6.919   9.691   9.952
16281WAT      O49084   7.891   3.757   7.209
16281WAT     H149085   7.807   3.802   7.241
16281WAT     H249086   7.883   3.658   7.221
16282WAT      O49087   9.627   1.528   8.336
16282WAT     H149088   9.571   1.473   8.274
16282WAT     H249089   9.707   1.561   8.287
16283WAT      O49090   3.318   5.706   7.615
16283WAT     H149091   3.221   5.695   7.596
16283WAT     H249092   3.332   5.720   7.713
16284WAT      O49093   6.202   3.225   1.985
16284WAT     H149094   6.249   3.285   2.049
16284WAT     H249095   6.270   3.181   1.925
16285WAT      O49096   9.241   7.748   0.257
16285WAT     H149097   9.187   7.824   0.293
16285WAT     H249098   9.199   7.716   0.172
16286WAT      O49099   0.126   0.264   3.151
16286WAT     H149100   0.148   0.361   3.135
16286WAT     H249101   0.031   0.247   3.123
16287WAT      O49102   6.716   0.741   6.808
16287WAT     H149103   6.685   0.658   6.853
16287WAT     H249104   6.743   0.809   6.877
16288WAT      O49105   3.602   2.501   7.579
16288WAT     H149106   3.687   2.453   7.557
16288WAT     H249107   3.525   2.439   7.569
16289WAT      O49108   2.226   6.556   8.442
16289WAT     H149109   2.212   6.596   8.533
16289WAT     H249110   2.140   6.556   8.392
16290WAT      O49111   4.436   9.048   9.848
16290WAT     H149112   4.384   8.969   9.879
16290WAT     H249113   4.489   9.086   9.924
16291WAT      O49114   1.877   6.314   3.301
16291WAT     H149115   1.911   6.362   3.220
16291WAT     H249116   1.860   6.218   3.278
16292WAT      O49117   1.025   8.526   4.325
16292WAT     H149118   1.099   8.584   4.359
16292WAT     H249119   0.997   8.558   4.235
16293WAT      O49120   1.254   1.254   6.313
16293WAT     H149121   1.311   1.335   6.298
16293WAT     H249122   1.268   1.220   6.406
16294WAT      O49123   9.162   5.683   6.001
16294WAT     H149124   9.173   5.684   5.902
16294WAT     H249125   9.251   5.668   6.045
16295WAT      O49126   2.062   7.344   7.858
16295WAT     H149127   2.115   7.398   7.923
16295WAT     H249128   2.118   7.325   7.777
16296WAT      O49129   5.702   2.581   7.532
16296WAT     H149130   5.656   2.511   7.479
16296WAT     H249131   5.796   2.553   7.551
16297WAT      O49132   8.308   2.760   7.948
16297WAT     H149133   8.337   2.842   7.899
16297WAT     H249134   8.356   2.754   8.035
16298WAT      O49135   7.299   4.035   6.901
16298WAT     H149136   7.209   4.079   6.900
16298WAT     H249137   7.362   4.089   6.956
16299WAT      O49138   4.859   7.967   9.625
16299WAT     H149139   4.863   8.061   9.658
16299WAT     H249140   4.791   7.916   9.679
16300WAT      O49141   1.219   0.916   0.326
16300WAT     H149142   1.143   0.863   0.287
16300WAT     H249143   1.298   0.910   0.265
16301WAT      O49144   4.618   3.391   9.477
16301WAT     H149145   4.526   3.356   9.458
16301WAT     H249146   4.663   3.414   9.391
16302WAT      O49147   2.583   3.829   0.854
16302WAT     H149148   2.623   3.850   0.943
16302WAT     H249149   2.656   3.802   0.791
16303WAT      O49150   8.398   6.616   6.594
16303WAT     H149151   8.407   6.544   6.663
16303WAT     H249152   8.415   6.576   6.503
16304WAT      O49153   6.754   6.176   9.841
16304WAT     H149154   6.786   6.176   9.936
16304WAT     H249155   6.774   6.087   9.799
16305WAT      O49156   1.452   0.126   0.012
16305WAT     H149157   1.464   0.223   0.032
16305WAT     H249158   1.358   0.109  -0.019
16306WAT      O49159   5.270   0.686   6.771
16306WAT     H149160   5.250   0.628   6.692
16306WAT     H249161   5.267   0.782   6.744
16307WAT      O49162   8.586   3.458   8.422
16307WAT     H149163   8.642   3.431   8.500
16307WAT     H249164   8.589   3.387   8.352
16308WAT      O49165   2.544   1.956   5.332
16308WAT     H149166   2.633   2.001   5.329
16308WAT     H249167   2.521   1.931   5.426
16309WAT      O49168   9.303   2.568   1.842
16309WAT     H149169   9.300   2.468   1.848
16309WAT     H249170   9.221   2.602   1.797
16310WAT      O49171   0.418   6.023   2.618
16310WAT     H149172   0.456   5.948   2.672
16310WAT     H249173   0.354   6.075   2.675
16311WAT      O49174   1.212   4.611   7.347
16311WAT     H149175   1.235   4.528   7.398
16311WAT     H249176   1.203   4.589   7.250
16312WAT      O49177   6.919   6.999   9.292
16312WAT     H149178   6.888   7.074   9.235
16312WAT     H249179   6.877   7.007   9.383
16313WAT      O49180   1.187   1.466   0.335
16313WAT     H149181   1.177   1.369   0.358
16313WAT     H249182   1.224   1.515   0.414
16314WAT      O49183   8.399   3.865   1.681
16314WAT     H149184   8.396   3.934   1.610
16314WAT     H249185   8.494   3.840   1.700
16315WAT      O49186   9.541   2.373   1.720
16315WAT     H149187   9.451   2.360   1.760
16315WAT     H249188   9.560   2.300   1.654
16316WAT      O49189   9.822   9.719   9.094
16316WAT     H149190   9.879   9.694   9.173
16316WAT     H249191   9.819   9.819   9.086
16317WAT      O49192   8.444   1.538   3.926
16317WAT     H149193   8.491   1.608   3.979
16317WAT     H249194   8.508   1.498   3.860
16318WAT      O49195   2.881   9.579   0.605
16318WAT     H149196   2.852   9.487   0.577
16318WAT     H249197   2.807   9.623   0.657
16319WAT      O49198   3.311   0.922   3.447
16319WAT     H149199   3.401   0.951   3.414
16319WAT     H249200   3.319   0.893   3.543
16320WAT      O49201   7.330   2.851   0.407
16320WAT     H149202   7.356   2.891   0.495
16320WAT     H249203   7.261   2.909   0.363
16321WAT      O49204   1.911   2.521   7.745
16321WAT     H149205   1.922   2.451   7.815
16321WAT     H249206   1.817   2.519   7.711
16322WAT      O49207   4.502   8.186   5.806
16322WAT     H149208   4.601   8.182   5.813
16322WAT     H249209   4.472   8.280   5.792
16323WAT      O49210   0.448   0.787   6.923
16323WAT     H149211   0.490   0.707   6.965
16323WAT     H249212   0.437   0.859   6.993
16324WAT      O49213   5.915   1.572   6.695
16324WAT     H149214   5.844   1.544   6.759
16324WAT     H249215   5.989   1.505   6.696
16325WAT      O49216   4.234   8.347   0.872
16325WAT     H149217   4.322   8.326   0.916
16325WAT     H249218   4.165   8.282   0.902
16326WAT      O49219   5.825   2.002   5.079
16326WAT     H149220   5.791   1.991   4.986
16326WAT     H249221   5.786   2.086   5.119
16327WAT      O49222   8.460   4.507   2.670
16327WAT     H149223   8.550   4.463   2.679
16327WAT     H249224   8.397   4.445   2.624
16328WAT      O49225   9.381   4.777   6.520
16328WAT     H149226   9.388   4.678   6.525
16328WAT     H249227   9.324   4.803   6.442
16329WAT      O49228   6.731   2.565   0.866
16329WAT     H149229   6.702   2.550   0.960
16329WAT     H249230   6.810   2.506   0.845
16330WAT      O49231   7.085   2.559   9.808
16330WAT     H149232   7.154   2.569   9.880
16330WAT     H249233   6.996   2.538   9.850
16331WAT      O49234   5.313   8.352   3.761
16331WAT     H149235   5.339   8.433   3.708
16331WAT     H249236   5.261   8.289   3.703
16332WAT      O49237   1.562   1.565   6.001
16332WAT     H149238   1.522   1.526   6.084
16332WAT     H249239   1.571   1.494   5.931
16333WAT      O49240   4.461   0.728   4.613
16333WAT     H149241   4.558   0.718   4.636
16333WAT     H249242   4.407   0.661   4.664
16334WAT      O49243   0.193   0.518   4.972
16334WAT     H149244   0.105   0.479   4.999
16334WAT     H249245   0.222   0.478   4.885
16335WAT      O49246   3.421   5.466   7.285
16335WAT     H149247   3.327   5.494   7.307
16335WAT     H249248   3.423   5.368   7.269
16336WAT      O49249   0.769   0.243   2.676
16336WAT     H149250   0.844   0.178   2.688
16336WAT     H249251   0.721   0.255   2.762
16337WAT      O49252   8.380   8.595   5.905
16337WAT     H149253   8.460   8.637   5.861
16337WAT     H249254   8.341   8.660   5.970
16338WAT      O49255   5.363   2.776   5.430
16338WAT     H149256   5.299   2.798   5.503
16338WAT     H249257   5.442   2.728   5.468
16339WAT      O49258   5.097   8.005   2.916
16339WAT     H149259   5.154   8.082   2.944
16339WAT     H249260   5.081   7.945   2.994
16340WAT      O49261   7.840   7.732   1.571
16340WAT     H149262   7.848   7.712   1.474
16340WAT     H249263   7.920   7.696   1.619
16341WAT      O49264   9.709   1.462   5.736
16341WAT     H149265   9.779   1.396   5.710
16341WAT     H249266   9.748   1.526   5.803
16342WAT      O49267   9.556   7.279   0.417
16342WAT     H149268   9.616   7.330   0.356
16342WAT     H249269   9.461   7.307   0.401
16343WAT      O49270   1.174   7.203   1.076
16343WAT     H149271   1.244   7.196   1.005
16343WAT     H249272   1.192   7.135   1.147
16344WAT      O49273   0.681   6.607   8.741
16344WAT     H149274   0.621   6.680   8.709
16344WAT     H249275   0.724   6.635   8.827
16345WAT      O49276   8.873   5.435   1.450
16345WAT     H149277   8.861   5.377   1.370
16345WAT     H249278   8.792   5.428   1.508
16346WAT      O49279   4.977   8.459   6.497
16346WAT     H149280   4.979   8.538   6.557
16346WAT     H249281   4.939   8.485   6.408
16347WAT      O49282   1.605   2.190   5.118
16347WAT     H149283   1.590   2.219   5.213
16347WAT     H249284   1.547   2.111   5.098
16348WAT      O49285   2.872   1.089   3.019
16348WAT     H149286   2.907   1.064   2.928
16348WAT     H249287   2.948   1.115   3.078
16349WAT      O49288   1.415   3.309   8.806
16349WAT     H149289   1.315   3.308   8.806
16349WAT     H249290   1.449   3.220   8.836
16350WAT      O49291   3.936   7.874   4.353
16350WAT     H149292   3.994   7.794   4.365
16350WAT     H249293   3.992   7.951   4.323
16351WAT      O49294   5.362   5.648   2.962
16351WAT     H149295   5.284   5.682   3.015
16351WAT     H249296   5.401   5.568   3.009
16352WAT      O49297   9.520   5.416   0.054
16352WAT     H149298   9.455   5.444   0.125
16352WAT     H249299   9.481   5.435  -0.036
16353WAT      O49300   3.725   3.921   2.473
16353WAT     H149301   3.731   4.016   2.440
16353WAT     H249302   3.817   3.884   2.485
16354WAT      O49303   5.659   3.157   4.611
16354WAT     H149304   5.663   3.232   4.544
16354WAT     H249305   5.715   3.181   4.690
16355WAT      O49306   3.715   0.240   6.675
16355WAT     H149307   3.647   0.169   6.655
16355WAT     H249308   3.694   0.322   6.623
16356WAT      O49309   1.278   5.663   3.075
16356WAT     H149310   1.276   5.609   3.159
16356WAT     H249311   1.320   5.752   3.093
16357WAT      O49312   7.224   7.193   8.436
16357WAT     H149313   7.235   7.285   8.397
16357WAT     H249314   7.285   7.130   8.388
16358WAT      O49315   1.298   3.788   7.860
16358WAT     H149316   1.255   3.875   7.886
16358WAT     H249317   1.282   3.720   7.931
16359WAT      O49318   3.871   9.556   0.386
16359WAT     H149319   3.866   9.648   0.426
16359WAT     H249320   3.958   9.545   0.339
16360WAT      O49321   2.588   5.035   2.907
16360WAT     H149322   2.490   5.020   2.918
16360WAT     H249323   2.638   4.971   2.966
16361WAT      O49324   8.807   3.177   2.010
16361WAT     H149325   8.879   3.191   2.078
16361WAT     H249326   8.753   3.096   2.033
16362WAT      O49327   2.491   0.413   4.652
16362WAT     H149328   2.462   0.475   4.724
16362WAT     H249329   2.453   0.322   4.670
16363WAT      O49330   1.645   5.348   7.431
16363WAT     H149331   1.732   5.325   7.474
16363WAT     H249332   1.569   5.328   7.494
16364WAT      O49333   8.899   6.555   1.020
16364WAT     H149334   8.816   6.519   1.063
16364WAT     H249335   8.942   6.484   0.964
16365WAT      O49336   9.208   5.702   8.349
16365WAT     H149337   9.152   5.675   8.427
16365WAT     H249338   9.255   5.622   8.312
16366WAT      O49339   4.351   5.396   7.868
16366WAT     H149340   4.318   5.403   7.963
16366WAT     H249341   4.310   5.315   7.825
16367WAT      O49342   6.863   6.866   4.582
16367WAT     H149343   6.883   6.924   4.660
16367WAT     H249344   6.764   6.856   4.571
16368WAT      O49345   4.967   5.501   1.689
16368WAT     H149346   4.992   5.577   1.630
16368WAT     H249347   5.000   5.518   1.782
16369WAT      O49348   0.334   7.495   0.677
16369WAT     H149349   0.254   7.534   0.723
16369WAT     H249350   0.367   7.416   0.728
16370WAT      O49351   7.573   2.012   9.203
16370WAT     H149352   7.576   2.012   9.103
16370WAT     H249353   7.658   2.050   9.239
16371WAT      O49354   5.380   9.297   8.863
16371WAT     H149355   5.390   9.321   8.767
16371WAT     H249356   5.464   9.321   8.913
16372WAT      O49357   4.827   9.497   2.005
16372WAT     H149358   4.865   9.558   2.075
16372WAT     H249359   4.759   9.547   1.951
16373WAT      O49360   4.893   8.980   5.274
16373WAT     H149361   4.917   8.918   5.200
16373WAT     H249362   4.793   8.990   5.278
16374WAT      O49363   0.953   8.697   5.073
16374WAT     H149364   0.880   8.629   5.065
16374WAT     H249365   0.943   8.746   5.159
16375WAT      O49366   4.466   2.491   8.454
16375WAT     H149367   4.464   2.590   8.437
16375WAT     H249368   4.560   2.458   8.446
16376WAT      O49369   1.547   1.710   0.118
16376WAT     H149370   1.563   1.808   0.132
16376WAT     H249371   1.450   1.690   0.132
16377WAT      O49372   6.126   3.939   7.013
16377WAT     H149373   6.201   3.915   7.075
16377WAT     H249374   6.047   3.881   7.032
16378WAT      O49375   4.720   9.744   0.047
16378WAT     H149376   4.635   9.770   0.094
16378WAT     H249377   4.794   9.802   0.078
16379WAT      O49378   3.995   8.773   0.392
16379WAT     H149379   3.971   8.747   0.485
16379WAT     H249380   4.094   8.771   0.381
16380WAT      O49381   5.296   8.575   3.593
16380WAT     H149382   5.365   8.647   3.602
16380WAT     H249383   5.229   8.601   3.524
16381WAT      O49384   4.837   1.127   8.702
16381WAT     H149385   4.874   1.040   8.734
16381WAT     H249386   4.891   1.202   8.740
16382WAT      O49387   1.342   5.502   4.960
16382WAT     H149388   1.318   5.407   4.979
16382WAT     H249389   1.440   5.509   4.945
16383WAT      O49390   5.547   3.293   1.720
16383WAT     H149391   5.624   3.302   1.656
16383WAT     H249392   5.579   3.310   1.813
16384WAT      O49393   2.117   1.070   4.979
16384WAT     H149394   2.124   1.169   4.968
16384WAT     H249395   2.055   1.033   4.909
16385WAT      O49396   2.835   9.068   5.567
16385WAT     H149397   2.801   9.161   5.581
16385WAT     H249398   2.757   9.007   5.551
16386WAT      O49399   2.367   9.424   2.443
16386WAT     H149400   2.383   9.450   2.538
16386WAT     H249401   2.308   9.492   2.399
16387WAT      O49402   0.736   5.251   3.644
16387WAT     H149403   0.800   5.290   3.577
16387WAT     H249404   0.770   5.271   3.737
16388WAT      O49405   5.185   3.864   4.899
16388WAT     H149406   5.209   3.772   4.866
16388WAT     H249407   5.094   3.888   4.867
16389WAT      O49408   5.667   7.758   0.184
16389WAT     H149409   5.620   7.680   0.225
16389WAT     H249410   5.599   7.821   0.145
16390WAT      O49411   3.276   5.554   3.562
16390WAT     H149412   3.293   5.631   3.624
16390WAT     H249413   3.207   5.494   3.601
16391WAT      O49414   9.056   8.517   9.754
16391WAT     H149415   8.979   8.480   9.701
16391WAT     H249416   9.113   8.441   9.787
16392WAT      O49417   9.299   5.807   7.263
16392WAT     H149418   9.252   5.859   7.192
16392WAT     H249419   9.357   5.737   7.221
16393WAT      O49420   8.940   8.876   7.671
16393WAT     H149421   9.039   8.888   7.667
16393WAT     H249422   8.895   8.957   7.633
16394WAT      O49423   4.431   6.571   6.187
16394WAT     H149424   4.398   6.564   6.281
16394WAT     H249425   4.480   6.657   6.176
16395WAT      O49426   1.173   8.485   2.962
16395WAT     H149427   1.224   8.521   3.040
16395WAT     H249428   1.091   8.540   2.948
16396WAT      O49429   9.226   2.346   9.672
16396WAT     H149430   9.201   2.350   9.768
16396WAT     H249431   9.166   2.406   9.619
16397WAT      O49432   5.250   7.968   3.447
16397WAT     H149433   5.189   7.892   3.469
16397WAT     H249434   5.339   7.933   3.419
16398WAT      O49435   0.870   2.029   1.501
16398WAT     H149436   0.943   2.097   1.504
16398WAT     H249437   0.788   2.070   1.461
16399WAT      O49438   0.687   6.997   5.235
16399WAT     H149439   0.746   6.924   5.201
16399WAT     H249440   0.735   7.047   5.308
16400WAT      O49441   9.172   7.974   6.839
16400WAT     H149442   9.213   7.886   6.863
16400WAT     H249443   9.234   8.025   6.780
16401WAT      O49444   9.875   0.051   3.917
16401WAT     H149445   9.930   0.005   3.986
16401WAT     H249446   9.927   0.126   3.877
16402WAT      O49447   6.989   8.004   7.465
16402WAT     H149448   6.906   8.043   7.505
16402WAT     H249449   6.974   7.907   7.445
16403WAT      O49450   4.615   8.780   8.797
16403WAT     H149451   4.660   8.864   8.827
16403WAT     H249452   4.680   8.703   8.802
16404WAT      O49453   4.796   7.117   1.458
16404WAT     H149454   4.827   7.204   1.419
16404WAT     H249455   4.765   7.132   1.552
16405WAT      O49456   5.164   6.682   9.167
16405WAT     H149457   5.135   6.656   9.074
16405WAT     H249458   5.213   6.605   9.208
16406WAT      O49459   8.398   6.343   3.082
16406WAT     H149460   8.374   6.343   3.179
16406WAT     H249461   8.498   6.337   3.073
16407WAT      O49462   4.500   9.751   1.717
16407WAT     H149463   4.504   9.787   1.624
16407WAT     H249464   4.409   9.768   1.755
16408WAT      O49465   3.697   5.458   0.811
16408WAT     H149466   3.761   5.456   0.887
16408WAT     H249467   3.740   5.504   0.733
16409WAT      O49468   0.215   1.327   9.837
16409WAT     H149469   0.187   1.414   9.878
16409WAT     H249470   0.315   1.322   9.835
16410WAT      O49471   6.262   7.442   9.084
16410WAT     H149472   6.177   7.443   9.030
16410WAT     H249473   6.337   7.407   9.027
16411WAT      O49474   5.356   4.691   0.343
16411WAT     H149475   5.359   4.727   0.436
16411WAT     H249476   5.423   4.740   0.287
16412WAT      O49477   1.715   8.360   7.215
16412WAT     H149478   1.801   8.409   7.230
16412WAT     H249479   1.638   8.418   7.243
16413WAT      O49480   0.836   4.997   2.846
16413WAT     H149481   0.765   5.067   2.851
16413WAT     H249482   0.901   5.020   2.774
16414WAT      O49483   4.035   5.214   8.031
16414WAT     H149484   4.083   5.132   7.997
16414WAT     H249485   3.999   5.265   7.954
16415WAT      O49486   4.138   7.229   2.849
16415WAT     H149487   4.070   7.292   2.886
16415WAT     H249488   4.097   7.139   2.836
16416WAT      O49489   4.879   7.348   1.281
16416WAT     H149490   4.815   7.307   1.217
16416WAT     H249491   4.859   7.446   1.289
16417WAT      O49492   0.692   2.643   0.408
16417WAT     H149493   0.728   2.604   0.493
16417WAT     H249494   0.604   2.602   0.387
16418WAT      O49495   7.939   3.127   9.220
16418WAT     H149496   7.982   3.042   9.190
16418WAT     H249497   7.967   3.201   9.159
16419WAT      O49498   3.232   8.599   2.053
16419WAT     H149499   3.204   8.588   1.958
16419WAT     H249500   3.331   8.606   2.059
16420WAT      O49501   4.680   4.873   1.901
16420WAT     H149502   4.762   4.913   1.942
16420WAT     H249503   4.623   4.946   1.863
16421WAT      O49504   8.024   0.565   8.007
16421WAT     H149505   7.946   0.538   7.950
16421WAT     H249506   8.070   0.644   7.967
16422WAT      O49507   3.990   2.897   2.796
16422WAT     H149508   3.979   2.841   2.878
16422WAT     H249509   3.992   2.839   2.715
16423WAT      O49510   1.975   3.100   2.754
16423WAT     H149511   2.058   3.085   2.700
16423WAT     H249512   1.895   3.069   2.703
16424WAT      O49513   2.598   5.227   0.551
16424WAT     H149514   2.510   5.201   0.511
16424WAT     H249515   2.622   5.161   0.622
16425WAT      O49516   8.248   0.803   1.392
16425WAT     H149517   8.332   0.839   1.432
16425WAT     H249518   8.172   0.820   1.455
16426WAT      O49519   1.599   9.602   0.626
16426WAT     H149520   1.526   9.536   0.609
16426WAT     H249521   1.610   9.615   0.724
16427WAT      O49522   7.032   6.224   3.796
16427WAT     H149523   7.107   6.171   3.758
16427WAT     H249524   7.049   6.321   3.781
16428WAT      O49525   1.919   9.296   4.637
16428WAT     H149526   1.951   9.203   4.622
16428WAT     H249527   1.939   9.323   4.732
16429WAT      O49528   2.411   9.101   4.486
16429WAT     H149529   2.409   9.004   4.511
16429WAT     H249530   2.444   9.155   4.563
16430WAT      O49531   8.844   6.175   3.169
16430WAT     H149532   8.795   6.108   3.224
16430WAT     H249533   8.931   6.136   3.138
16431WAT      O49534   7.354   7.419   9.479
16431WAT     H149535   7.304   7.503   9.500
16431WAT     H249536   7.296   7.358   9.425
16432WAT      O49537   0.436   9.343   3.585
16432WAT     H149538   0.506   9.398   3.630
16432WAT     H249539   0.475   9.297   3.506
16433WAT      O49540   4.769   9.509   5.322
16433WAT     H149541   4.863   9.497   5.289
16433WAT     H249542   4.709   9.443   5.277
16434WAT      O49543   7.280   0.408   8.201
16434WAT     H149544   7.312   0.499   8.174
16434WAT     H249545   7.255   0.410   8.298
16435WAT      O49546   5.100   1.346   6.512
16435WAT     H149547   5.176   1.387   6.562
16435WAT     H249548   5.033   1.308   6.576
16436WAT      O49549   9.497   6.925   1.692
16436WAT     H149550   9.593   6.904   1.673
16436WAT     H249551   9.474   6.895   1.785
16437WAT      O49552   7.851   0.811   6.853
16437WAT     H149553   7.842   0.881   6.783
16437WAT     H249554   7.821   0.849   6.941
16438WAT      O49555   3.704   8.790   0.837
16438WAT     H149556   3.730   8.716   0.775
16438WAT     H249557   3.652   8.859   0.788
16439WAT      O49558   8.551   1.521   4.723
16439WAT     H149559   8.481   1.582   4.684
16439WAT     H249560   8.508   1.434   4.749
16440WAT      O49561   2.635   5.145   8.741
16440WAT     H149562   2.615   5.154   8.644
16440WAT     H249563   2.713   5.083   8.753
16441WAT      O49564   5.707   9.144   7.270
16441WAT     H149565   5.806   9.149   7.286
16441WAT     H249566   5.673   9.235   7.247
16442WAT      O49567   7.475   5.195   0.068
16442WAT     H149568   7.377   5.214   0.071
16442WAT     H249569   7.504   5.151   0.153
16443WAT      O49570   2.188   5.118   0.547
16443WAT     H149571   2.202   5.034   0.600
16443WAT     H249572   2.143   5.097   0.461
16444WAT      O49573   0.433   8.959   2.229
16444WAT     H149574   0.451   9.011   2.313
16444WAT     H249575   0.335   8.955   2.212
16445WAT      O49576   5.256   4.245   5.198
16445WAT     H149577   5.189   4.319   5.205
16445WAT     H249578   5.314   4.260   5.118
16446WAT      O49579   7.306   6.210   0.482
16446WAT     H149580   7.405   6.198   0.476
16446WAT     H249581   7.266   6.135   0.535
16447WAT      O49582   5.456   4.130   0.905
16447WAT     H149583   5.357   4.118   0.903
16447WAT     H249584   5.492   4.098   0.992
16448WAT      O49585   7.347   1.928   7.280
16448WAT     H149586   7.341   1.992   7.356
16448WAT     H249587   7.255   1.898   7.255
16449WAT      O49588   1.426   5.070   0.913
16449WAT     H149589   1.330   5.062   0.938
16449WAT     H249590   1.458   5.162   0.934
16450WAT      O49591   1.713   3.624   2.353
16450WAT     H149592   1.636   3.609   2.292
16450WAT     H249593   1.795   3.582   2.314
16451WAT      O49594   7.867   6.455   3.709
16451WAT     H149595   7.795   6.508   3.663
16451WAT     H249596   7.951   6.510   3.712
16452WAT      O49597   9.713   1.715   5.570
16452WAT     H149598   9.806   1.732   5.603
16452WAT     H249599   9.677   1.632   5.614
16453WAT      O49600   5.499   6.658   0.370
16453WAT     H149601   5.433   6.694   0.303
16453WAT     H249602   5.494   6.559   0.372
16454WAT      O49603   1.933   0.608   9.034
16454WAT     H149604   1.942   0.704   9.004
16454WAT     H249605   1.839   0.578   9.021
16455WAT      O49606   0.974   8.990   7.199
16455WAT     H149607   0.954   9.065   7.136
16455WAT     H249608   0.906   8.988   7.272
16456WAT      O49609   1.428   4.027   4.333
16456WAT     H149610   1.388   4.054   4.421
16456WAT     H249611   1.520   3.991   4.348
16457WAT      O49612   4.702   9.521   1.502
16457WAT     H149613   4.757   9.601   1.477
16457WAT     H249614   4.609   9.533   1.466
16458WAT      O49615   6.239   9.210   3.801
16458WAT     H149616   6.318   9.260   3.766
16458WAT     H249617   6.183   9.271   3.856
16459WAT      O49618   0.967   1.440   2.766
16459WAT     H149619   1.014   1.528   2.765
16459WAT     H249620   1.002   1.382   2.692
16460WAT      O49621   7.046   0.970   0.148
16460WAT     H149622   7.042   1.027   0.230
16460WAT     H249623   7.101   1.015   0.078
16461WAT      O49624   9.304   9.816   7.747
16461WAT     H149625   9.303   9.846   7.652
16461WAT     H249626   9.252   9.880   7.803
16462WAT      O49627   0.091   8.545   2.823
16462WAT     H149628   0.118   8.506   2.911
16462WAT     H249629   0.106   8.477   2.751
16463WAT      O49630   2.435   0.589   1.129
16463WAT     H149631   2.359   0.653   1.127
16463WAT     H249632   2.466   0.570   1.036
16464WAT      O49633   7.742   7.409   1.254
16464WAT     H149634   7.649   7.378   1.275
16464WAT     H249635   7.805   7.331   1.258
16465WAT      O49636   5.052   5.821   4.364
16465WAT     H149637   5.006   5.774   4.440
16465WAT     H249638   5.027   5.918   4.366
16466WAT      O49639   7.767   8.075   1.866
16466WAT     H149640   7.773   7.984   1.906
16466WAT     H249641   7.675   8.112   1.883
16467WAT      O49642   6.331   3.520   7.888
16467WAT     H149643   6.388   3.600   7.906
16467WAT     H249644   6.365   3.442   7.939
16468WAT      O49645   4.274   9.017   5.283
16468WAT     H149646   4.198   8.968   5.241
16468WAT     H249647   4.318   8.959   5.352
16469WAT      O49648   0.958   3.223   2.109
16469WAT     H149649   1.051   3.207   2.144
16469WAT     H249650   0.961   3.235   2.010
16470WAT      O49651   3.152   4.037   2.573
16470WAT     H149652   3.130   4.045   2.476
16470WAT     H249653   3.235   3.982   2.583
16471WAT      O49654   9.317   3.009   0.559
16471WAT     H149655   9.301   3.106   0.538
16471WAT     H249656   9.285   2.989   0.651
16472WAT      O49657   4.847   7.779   7.847
16472WAT     H149658   4.768   7.787   7.786
16472WAT     H249659   4.816   7.754   7.939
16473WAT      O49660   1.292   3.310   0.005
16473WAT     H149661   1.356   3.359  -0.055
16473WAT     H249662   1.342   3.239   0.055
16474WAT      O49663   8.498   5.280   2.887
16474WAT     H149664   8.591   5.245   2.892
16474WAT     H249665   8.433   5.206   2.905
16475WAT      O49666   6.386   2.895   9.513
16475WAT     H149667   6.405   2.806   9.555
16475WAT     H249668   6.459   2.959   9.536
16476WAT      O49669   1.046   0.687   6.857
16476WAT     H149670   0.969   0.634   6.893
16476WAT     H249671   1.115   0.698   6.929
16477WAT      O49672   9.126   4.778   8.424
16477WAT     H149673   9.184   4.809   8.499
16477WAT     H249674   9.033   4.811   8.437
16478WAT      O49675   7.071   1.421   7.747
16478WAT     H149676   7.006   1.497   7.749
16478WAT     H249677   7.098   1.403   7.653
16479WAT      O49678   3.340   3.641   2.678
16479WAT     H149679   3.398   3.597   2.747
16479WAT     H249680   3.245   3.611   2.689
16480WAT      O49681   4.426   2.489   2.088
16480WAT     H149682   4.480   2.405   2.086
16480WAT     H249683   4.330   2.467   2.075
16481WAT      O49684   2.340   1.806   5.757
16481WAT     H149685   2.269   1.791   5.688
16481WAT     H249686   2.299   1.847   5.838
16482WAT      O49687   2.194   2.518   8.765
16482WAT     H149688   2.183   2.557   8.674
16482WAT     H249689   2.118   2.457   8.785
16483WAT      O49690   6.265   5.562   3.785
16483WAT     H149691   6.323   5.491   3.824
16483WAT     H249692   6.275   5.646   3.837
16484WAT      O49693   5.852   8.409   4.330
16484WAT     H149694   5.763   8.455   4.331
16484WAT     H249695   5.840   8.313   4.355
16485WAT      O49696   4.503   4.156   6.063
16485WAT     H149697   4.485   4.061   6.089
16485WAT     H249698   4.528   4.209   6.145
16486WAT      O49699   5.436   9.716   6.813
16486WAT     H149700   5.441   9.617   6.828
16486WAT     H249701   5.422   9.734   6.715
16487WAT      O49702   9.676   1.964   0.871
16487WAT     H149703   9.626   2.004   0.949
16487WAT     H249704   9.765   1.931   0.902
16488WAT      O49705   8.404   4.240   1.942
16488WAT     H149706   8.400   4.322   2.000
16488WAT     H249707   8.345   4.169   1.980
16489WAT      O49708   2.063   1.663   3.788
16489WAT     H149709   2.091   1.573   3.755
16489WAT     H249710   2.049   1.660   3.887
16490WAT      O49711   6.185   3.982   6.252
16490WAT     H149712   6.258   3.997   6.320
16490WAT     H249713   6.144   4.070   6.228
16491WAT      O49714   8.302   8.441   3.750
16491WAT     H149715   8.275   8.483   3.837
16491WAT     H249716   8.357   8.360   3.768
16492WAT      O49717   9.199   9.715   3.475
16492WAT     H149718   9.292   9.752   3.468
16492WAT     H249719   9.136   9.774   3.424
16493WAT      O49720   4.072   2.736   9.084
16493WAT     H149721   4.171   2.726   9.087
16493WAT     H249722   4.032   2.693   9.165
16494WAT      O49723   3.829   8.781   9.888
16494WAT     H149724   3.732   8.784   9.866
16494WAT     H249725   3.883   8.800   9.806
16495WAT      O49726   4.925   0.608   7.362
16495WAT     H149727   4.872   0.568   7.436
16495WAT     H249728   4.881   0.588   7.274
16496WAT      O49729   0.722   7.708   0.842
16496WAT     H149730   0.668   7.746   0.767
16496WAT     H249731   0.726   7.775   0.917
16497WAT      O49732   5.507   2.452   0.453
16497WAT     H149733   5.542   2.435   0.545
16497WAT     H249734   5.421   2.402   0.440
16498WAT      O49735   8.398   4.778   2.631
16498WAT     H149736   8.330   4.808   2.698
16498WAT     H249737   8.410   4.679   2.637
16499WAT      O49738   8.230   9.164   8.578
16499WAT     H149739   8.248   9.183   8.674
16499WAT     H249740   8.317   9.155   8.529
16500WAT      O49741   2.273   4.201   9.661
16500WAT     H149742   2.253   4.297   9.646
16500WAT     H249743   2.188   4.148   9.662
16501WAT      O49744   2.068   7.925   6.647
16501WAT     H149745   2.110   7.840   6.680
16501WAT     H249746   2.129   7.968   6.580
16502WAT      O49747   6.349   8.074   7.276
16502WAT     H149748   6.332   8.154   7.218
16502WAT     H249749   6.424   8.094   7.339
16503WAT      O49750   7.700   7.329   8.011
16503WAT     H149751   7.672   7.329   8.107
16503WAT     H249752   7.798   7.348   8.004
16504WAT      O49753   1.260   2.121   9.290
16504WAT     H149754   1.187   2.067   9.331
16504WAT     H249755   1.230   2.157   9.202
16505WAT      O49756   9.087   5.934   0.917
16505WAT     H149757   9.156   5.937   0.990
16505WAT     H249758   9.044   5.844   0.916
16506WAT      O49759   7.161   6.315   8.289
16506WAT     H149760   7.225   6.261   8.344
16506WAT     H249761   7.078   6.333   8.341
16507WAT      O49762   7.406   5.346   5.955
16507WAT     H149763   7.384   5.249   5.952
16507WAT     H249764   7.331   5.398   5.914
16508WAT      O49765   2.122   4.055   8.912
16508WAT     H149766   2.194   3.991   8.885
16508WAT     H249767   2.085   4.028   9.000
16509WAT      O49768   3.271   8.113   2.527
16509WAT     H149769   3.215   8.062   2.592
16509WAT     H249770   3.320   8.049   2.468
16510WAT      O49771   0.774   8.755   7.964
16510WAT     H149772   0.714   8.733   8.041
16510WAT     H249773   0.801   8.670   7.919
16511WAT      O49774   6.552   3.293   1.239
16511WAT     H149775   6.551   3.375   1.295
16511WAT     H249776   6.621   3.302   1.167
16512WAT      O49777   5.753   3.168   2.230
16512WAT     H149778   5.851   3.184   2.242
16512WAT     H249779   5.702   3.225   2.295
16513WAT      O49780   8.257   7.291   8.392
16513WAT     H149781   8.266   7.389   8.411
16513WAT     H249782   8.347   7.252   8.372
16514WAT      O49783   2.672   7.921   8.876
16514WAT     H149784   2.703   7.894   8.967
16514WAT     H249785   2.581   7.962   8.883
16515WAT      O49786   1.324   9.456   7.266
16515WAT     H149787   1.322   9.524   7.339
16515WAT     H249788   1.296   9.498   7.180
16516WAT      O49789   7.476   2.924   6.613
16516WAT     H149790   7.483   2.998   6.680
16516WAT     H249791   7.483   2.961   6.521
16517WAT      O49792   5.541   2.563   3.543
16517WAT     H149793   5.622   2.615   3.570
16517WAT     H249794   5.534   2.561   3.444
16518WAT      O49795   3.489   5.714   7.435
16518WAT     H149796   3.493   5.626   7.388
16518WAT     H249797   3.419   5.711   7.506
16519WAT      O49798   6.552   5.033   2.339
16519WAT     H149799   6.465   5.047   2.386
16519WAT     H249800   6.628   5.046   2.403
16520WAT      O49801   7.354   4.214   3.257
16520WAT     H149802   7.408   4.239   3.177
16520WAT     H249803   7.412   4.166   3.323
16521WAT      O49804   4.743   2.647   0.600
16521WAT     H149805   4.808   2.721   0.613
16521WAT     H249806   4.775   2.586   0.527
16522WAT      O49807   9.212   4.229   5.520
16522WAT     H149808   9.223   4.129   5.524
16522WAT     H249809   9.138   4.256   5.582
16523WAT      O49810   5.823   0.890   7.855
16523WAT     H149811   5.738   0.866   7.808
16523WAT     H249812   5.824   0.849   7.946
16524WAT      O49813   8.054   1.741   0.559
16524WAT     H149814   7.987   1.815   0.562
16524WAT     H249815   8.145   1.779   0.545
16525WAT      O49816   5.655   6.377   9.447
16525WAT     H149817   5.597   6.298   9.467
16525WAT     H249818   5.732   6.379   9.511
16526WAT      O49819   9.714   8.386   0.466
16526WAT     H149820   9.770   8.466   0.489
16526WAT     H249821   9.730   8.313   0.533
16527WAT      O49822   6.930   7.308   9.221
16527WAT     H149823   6.899   7.397   9.252
16527WAT     H249824   7.027   7.296   9.245
16528WAT      O49825   7.888   0.597   8.911
16528WAT     H149826   7.950   0.542   8.855
16528WAT     H249827   7.817   0.637   8.853
16529WAT      O49828   1.415   9.350   6.180
16529WAT     H149829   1.379   9.261   6.207
16529WAT     H249830   1.417   9.410   6.260
16530WAT      O49831   6.901   7.214   8.984
16530WAT     H149832   6.858   7.279   8.922
16530WAT     H249833   6.914   7.257   9.073
16531WAT      O49834   7.263   5.563   6.895
16531WAT     H149835   7.260   5.653   6.939
16531WAT     H249836   7.296   5.495   6.960
16532WAT      O49837   7.549   7.686   9.762
16532WAT     H149838   7.648   7.701   9.758
16532WAT     H249839   7.530   7.588   9.756
16533WAT      O49840   1.391   8.410   6.164
16533WAT     H149841   1.456   8.337   6.145
16533WAT     H249842   1.420   8.461   6.245
16534WAT      O49843   7.855   5.273   1.599
16534WAT     H149844   7.863   5.179   1.631
16534WAT     H249845   7.771   5.313   1.635
16535WAT      O49846   9.195   0.393   8.959
16535WAT     H149847   9.096   0.403   8.946
16535WAT     H249848   9.241   0.411   8.872
16536WAT      O49849   5.661   3.034   2.010
16536WAT     H149850   5.731   3.014   1.942
16536WAT     H249851   5.705   3.065   2.094
16537WAT      O49852   9.795   9.188   7.721
16537WAT     H149853   9.872   9.145   7.769
16537WAT     H249854   9.713   9.133   7.733
16538WAT      O49855   0.756   5.850   1.521
16538WAT     H149856   0.718   5.759   1.502
16538WAT     H249857   0.849   5.855   1.485
16539WAT      O49858   8.063   9.106   0.323
16539WAT     H149859   8.024   9.031   0.270
16539WAT     H249860   8.149   9.077   0.365
16540WAT      O49861   2.566   8.859   6.524
16540WAT     H149862   2.528   8.946   6.553
16540WAT     H249863   2.564   8.795   6.601
16541WAT      O49864   2.979   0.217   5.076
16541WAT     H149865   2.976   0.295   5.014
16541WAT     H249866   2.923   0.142   5.038
16542WAT      O49867   2.275   1.381   5.374
16542WAT     H149868   2.372   1.382   5.350
16542WAT     H249869   2.229   1.456   5.328
16543WAT      O49870   4.418   8.347   6.442
16543WAT     H149871   4.455   8.433   6.477
16543WAT     H249872   4.492   8.281   6.428
16544WAT      O49873   6.768   5.017   3.620
16544WAT     H149874   6.774   5.076   3.539
16544WAT     H249875   6.803   5.067   3.700
16545WAT      O49876   6.808   0.759   4.170
16545WAT     H149877   6.852   0.753   4.080
16545WAT     H249878   6.875   0.737   4.241
16546WAT      O49879   3.401   0.553   0.700
16546WAT     H149880   3.418   0.462   0.737
16546WAT     H249881   3.308   0.581   0.722
16547WAT      O49882   2.126   2.717   8.967
16547WAT     H149883   2.132   2.638   8.905
16547WAT     H249884   2.153   2.689   9.059
16548WAT      O49885   4.065   4.261   0.154
16548WAT     H149886   4.144   4.270   0.093
16548WAT     H249887   4.011   4.345   0.150
16549WAT      O49888   2.624   0.555   1.326
16549WAT     H149889   2.548   0.553   1.261
16549WAT     H249890   2.605   0.491   1.401
16550WAT      O49891   1.827   8.612   2.432
16550WAT     H149892   1.867   8.521   2.430
16550WAT     H249893   1.847   8.660   2.346
16551WAT      O49894   4.069   9.023   4.162
16551WAT     H149895   4.103   9.113   4.191
16551WAT     H249896   4.141   8.975   4.112
16552WAT      O49897   3.273   9.606   9.648
16552WAT     H149898   3.262   9.518   9.693
16552WAT     H249899   3.212   9.673   9.690
16553WAT      O49900   6.980   7.900   9.451
16553WAT     H149901   6.983   7.997   9.425
16553WAT     H249902   6.915   7.852   9.393
16554WAT      O49903   4.803   3.768   7.931
16554WAT     H149904   4.900   3.761   7.951
16554WAT     H249905   4.790   3.824   7.848
16555WAT      O49906   0.263   4.084   7.634
16555WAT     H149907   0.330   4.158   7.623
16555WAT     H249908   0.306   3.997   7.611
16556WAT      O49909   6.883   6.450   8.833
16556WAT     H149910   6.912   6.391   8.758
16556WAT     H249911   6.962   6.497   8.872
16557WAT      O49912   0.944   9.219   7.558
16557WAT     H149913   1.008   9.220   7.481
16557WAT     H249914   0.952   9.303   7.611
16558WAT      O49915   6.320   8.122   3.683
16558WAT     H149916   6.406   8.083   3.715
16558WAT     H249917   6.313   8.113   3.584
16559WAT      O49918   0.136   7.787   7.187
16559WAT     H149919   0.145   7.795   7.286
16559WAT     H249920   0.166   7.695   7.159
16560WAT      O49921   8.792   4.662   1.345
16560WAT     H149922   8.801   4.759   1.324
16560WAT     H249923   8.851   4.639   1.423
16561WAT      O49924   4.288   8.194   0.101
16561WAT     H149925   4.350   8.242   0.038
16561WAT     H249926   4.325   8.201   0.194
16562WAT      O49927   8.468   0.363   1.173
16562WAT     H149928   8.446   0.272   1.208
16562WAT     H249929   8.390   0.424   1.189
16563WAT      O49930   7.861   4.089   7.075
16563WAT     H149931   7.842   4.179   7.037
16563WAT     H249932   7.872   4.023   7.000
16564WAT      O49933   9.459   2.141   5.720
16564WAT     H149934   9.512   2.057   5.729
16564WAT     H249935   9.502   2.200   5.652
16565WAT      O49936   9.824   0.257   0.020
16565WAT     H149937   9.868   0.233  -0.066
16565WAT     H249938   9.743   0.199   0.033
16566WAT      O49939   7.946   6.780   9.504
16566WAT     H149940   7.872   6.713   9.513
16566WAT     H249941   7.929   6.856   9.566
16567WAT      O49942   6.414   6.202   3.937
16567WAT     H149943   6.449   6.266   3.869
16567WAT     H249944   6.345   6.248   3.994
16568WAT      O49945   3.688   6.819   9.295
16568WAT     H149946   3.743   6.750   9.342
16568WAT     H249947   3.613   6.775   9.246
16569WAT      O49948   0.082   8.396   8.229
16569WAT     H149949   0.181   8.408   8.217
16569WAT     H249950   0.035   8.479   8.200
16570WAT      O49951   0.819   3.251   8.004
16570WAT     H149952   0.872   3.333   8.025
16570WAT     H249953   0.722   3.273   8.004
16571WAT      O49954   3.394   0.201   8.659
16571WAT     H149955   3.384   0.114   8.611
16571WAT     H249956   3.480   0.201   8.711
16572WAT      O49957   0.732   8.163   3.393
16572WAT     H149958   0.763   8.152   3.298
16572WAT     H249959   0.798   8.120   3.454
16573WAT      O49960   7.536   7.875   2.767
16573WAT     H149961   7.551   7.898   2.863
16573WAT     H249962   7.619   7.833   2.729
16574WAT      O49963   4.414   3.710   2.553
16574WAT     H149964   4.426   3.701   2.454
16574WAT     H249965   4.499   3.686   2.599
16575WAT      O49966   6.687   4.165   6.956
16575WAT     H149967   6.738   4.240   6.913
16575WAT     H249968   6.741   4.081   6.948
16576WAT      O49969   8.330   2.930   7.278
16576WAT     H149970   8.267   2.940   7.355
16576WAT     H249971   8.339   3.017   7.230
16577WAT      O49972   0.634   7.845   4.702
16577WAT     H149973   0.617   7.748   4.716
16577WAT     H249974   0.609   7.870   4.609
16578WAT      O49975   0.113   9.352   6.396
16578WAT     H149976   0.134   9.450   6.386
16578WAT     H249977   0.181   9.309   6.455
16579WAT      O49978   0.593   6.715   6.779
16579WAT     H149979   0.653   6.753   6.708
16579WAT     H249980   0.614   6.758   6.867
16580WAT      O49981   6.546   7.323   3.969
16580WAT     H149982   6.623   7.383   3.947
16580WAT     H249983   6.479   7.373   4.024
16581WAT      O49984   1.215   1.322   1.278
16581WAT     H149985   1.249   1.385   1.209
16581WAT     H249986   1.277   1.244   1.285
16582WAT      O49987   7.522   7.120   4.513
16582WAT     H149988   7.562   7.208   4.488
16582WAT     H249989   7.570   7.047   4.466
16583WAT      O49990   9.261   8.391   8.161
16583WAT     H149991   9.265   8.295   8.135
16583WAT     H249992   9.249   8.448   8.080
16584WAT      O49993   2.418   5.181   1.757
16584WAT     H149994   2.367   5.266   1.766
16584WAT     H249995   2.396   5.138   1.669
16585WAT      O49996   6.707   8.300   4.781
16585WAT     H149997   6.804   8.283   4.795
16585WAT     H249998   6.687   8.303   4.683
16586WAT      O49999   5.203   1.455   8.914
16586WAT     H150000   5.205   1.555   8.914
16586WAT     H250001   5.269   1.420   8.847
16587WAT      O50002   0.175   1.363   2.654
16587WAT     H150003   0.115   1.322   2.723
16587WAT     H250004   0.201   1.455   2.682
16588WAT      O50005   5.239   3.554   3.497
16588WAT     H150006   5.153   3.595   3.466
16588WAT     H250007   5.220   3.485   3.567
16589WAT      O50008   1.939   1.083   7.380
16589WAT     H150009   1.905   1.149   7.448
16589WAT     H250010   2.022   1.119   7.338
16590WAT      O50011   3.896   8.976   3.941
16590WAT     H150012   3.957   8.987   4.019
16590WAT     H250013   3.847   8.889   3.949
16591WAT      O50014   8.865   8.741   5.781
16591WAT     H150015   8.927   8.782   5.848
16591WAT     H250016   8.911   8.736   5.692
16592WAT      O50017   9.108   9.809   2.501
16592WAT     H150018   9.176   9.738   2.520
16592WAT     H250019   9.047   9.819   2.580
16593WAT      O50020   8.251   6.014   2.306
16593WAT     H150021   8.272   6.009   2.404
16593WAT     H250022   8.159   6.051   2.294
16594WAT      O50023   2.740   8.294   4.525
16594WAT     H150024   2.763   8.198   4.540
16594WAT     H250025   2.640   8.305   4.530
16595WAT      O50026   2.853   8.202   9.279
16595WAT     H150027   2.931   8.264   9.288
16595WAT     H250028   2.885   8.107   9.282
16596WAT      O50029   2.879   0.330   0.209
16596WAT     H150030   2.788   0.372   0.204
16596WAT     H250031   2.948   0.397   0.180
16597WAT      O50032   7.233   0.172   0.418
16597WAT     H150033   7.261   0.235   0.346
16597WAT     H250034   7.286   0.088   0.413
16598WAT      O50035   3.901   9.135   1.705
16598WAT     H150036   3.961   9.055   1.703
16598WAT     H250037   3.853   9.138   1.792
16599WAT      O50038   4.945   0.728   0.111
16599WAT     H150039   4.930   0.824   0.134
16599WAT     H250040   4.932   0.715   0.013
16600WAT      O50041   3.396   6.818   3.590
16600WAT     H150042   3.468   6.853   3.530
16600WAT     H250043   3.308   6.827   3.545
16601WAT      O50044   0.272   5.320   1.176
16601WAT     H150045   0.351   5.344   1.231
16601WAT     H250046   0.205   5.271   1.232
16602WAT      O50047   5.520   5.379   1.550
16602WAT     H150048   5.439   5.324   1.528
16602WAT     H250049   5.527   5.391   1.649
16603WAT      O50050   7.487   3.391   6.309
16603WAT     H150051   7.405   3.355   6.263
16603WAT     H250052   7.547   3.434   6.242
16604WAT      O50053   2.455   9.404   1.915
16604WAT     H150054   2.512   9.370   1.989
16604WAT     H250055   2.360   9.411   1.947
16605WAT      O50056   0.912   9.718   0.375
16605WAT     H150057   0.873   9.683   0.460
16605WAT     H250058   0.901   9.818   0.371
16606WAT      O50059   1.152   8.024   9.398
16606WAT     H150060   1.117   8.069   9.480
16606WAT     H250061   1.150   7.925   9.411
16607WAT      O50062   7.174   8.992   1.627
16607WAT     H150063   7.138   8.899   1.636
16607WAT     H250064   7.205   9.025   1.717
16608WAT      O50065   8.180   0.213   4.539
16608WAT     H150066   8.097   0.180   4.582
16608WAT     H250067   8.260   0.179   4.589
16609WAT      O50068   5.224   0.048   9.458
16609WAT     H150069   5.241  -0.020   9.529
16609WAT     H250070   5.154   0.014   9.395
16610WAT      O50071   0.416   7.251   0.773
16610WAT     H150072   0.484   7.196   0.725
16610WAT     H250073   0.450   7.275   0.864
16611WAT      O50074   2.408   8.428   1.164
16611WAT     H150075   2.354   8.441   1.081
16611WAT     H250076   2.488   8.488   1.161
16612WAT      O50077   3.899   0.795   1.291
16612WAT     H150078   3.806   0.823   1.268
16612WAT     H250079   3.964   0.860   1.253
16613WAT      O50080   6.199   6.700   4.843
16613WAT     H150081   6.171   6.611   4.878
16613WAT     H250082   6.270   6.739   4.901
16614WAT      O50083   9.476   0.054   5.184
16614WAT     H150084   9.501   0.075   5.090
16614WAT     H250085   9.559   0.040   5.238
16615WAT      O50086   3.895   0.842   2.108
16615WAT     H150087   3.953   0.778   2.157
16615WAT     H250088   3.861   0.912   2.171
16616WAT      O50089   4.908   2.620   6.621
16616WAT     H150090   4.923   2.525   6.649
16616WAT     H250091   4.919   2.680   6.700
16617WAT      O50092   9.007   6.107   0.725
16617WAT     H150093   9.086   6.168   0.718
16617WAT     H250094   9.023   6.041   0.798
16618WAT      O50095   3.003   8.511   0.418
16618WAT     H150096   2.934   8.583   0.428
16618WAT     H250097   3.088   8.541   0.461
16619WAT      O50098   3.883   8.922   8.810
16619WAT     H150099   3.928   8.968   8.734
16619WAT     H250100   3.919   8.829   8.819
16620WAT      O50101   8.951   6.375   4.845
16620WAT     H150102   9.009   6.403   4.769
16620WAT     H250103   9.007   6.358   4.926
16621WAT      O50104   6.254   4.154   3.454
16621WAT     H150105   6.170   4.183   3.409
16621WAT     H250106   6.232   4.082   3.521
16622WAT      O50107   9.253   3.570   0.433
16622WAT     H150108   9.225   3.547   0.527
16622WAT     H250109   9.302   3.657   0.434
16623WAT      O50110   6.110   1.210   6.649
16623WAT     H150111   6.061   1.187   6.565
16623WAT     H250112   6.147   1.127   6.691
16624WAT      O50113   3.134   7.217   8.757
16624WAT     H150114   3.187   7.297   8.787
16624WAT     H250115   3.045   7.247   8.725
16625WAT      O50116   0.454   0.243   0.867
16625WAT     H150117   0.467   0.315   0.935
16625WAT     H250118   0.364   0.202   0.879
16626WAT      O50119   3.586   5.868   1.651
16626WAT     H150120   3.612   5.772   1.660
16626WAT     H250121   3.592   5.912   1.741
16627WAT      O50122   2.870   9.717   6.155
16627WAT     H150123   2.949   9.656   6.149
16627WAT     H250124   2.885   9.798   6.099
16628WAT      O50125   6.020   9.123   7.334
16628WAT     H150126   6.055   9.030   7.323
16628WAT     H250127   5.979   9.133   7.424
16629WAT      O50128   9.354   1.965   3.634
16629WAT     H150129   9.264   2.008   3.639
16629WAT     H250130   9.425   2.035   3.631
16630WAT      O50131   4.685   5.200   3.049
16630WAT     H150132   4.614   5.152   2.999
16630WAT     H250133   4.775   5.172   3.016
16631WAT      O50134   5.418   8.381   8.570
16631WAT     H150135   5.490   8.341   8.627
16631WAT     H250136   5.341   8.408   8.628
16632WAT      O50137   2.030   6.564   1.155
16632WAT     H150138   2.044   6.649   1.105
16632WAT     H250139   2.048   6.580   1.252
16633WAT      O50140   5.901   8.067   9.165
16633WAT     H150141   5.962   8.088   9.241
16633WAT     H250142   5.815   8.118   9.177
16634WAT      O50143   7.658   0.173   0.373
16634WAT     H150144   7.753   0.200   0.361
16634WAT     H250145   7.621   0.142   0.285
16635WAT      O50146   3.827   9.159   0.801
16635WAT     H150147   3.828   9.252   0.764
16635WAT     H250148   3.877   9.098   0.741
16636WAT      O50149   9.192   3.404   7.879
16636WAT     H150150   9.186   3.430   7.976
16636WAT     H250151   9.265   3.456   7.835
16637WAT      O50152   0.444   1.759   0.598
16637WAT     H150153   0.516   1.717   0.653
16637WAT     H250154   0.364   1.700   0.597
16638WAT      O50155   5.511   4.855   1.219
16638WAT     H150156   5.591   4.914   1.206
16638WAT     H250157   5.532   4.785   1.288
16639WAT      O50158   6.421   3.547   2.991
16639WAT     H150159   6.447   3.488   3.069
16639WAT     H250160   6.503   3.582   2.947
16640WAT      O50161   3.321   9.250   0.504
16640WAT     H150162   3.316   9.212   0.596
16640WAT     H250163   3.315   9.175   0.437
16641WAT      O50164   3.109   1.125   3.136
16641WAT     H150165   3.125   1.122   3.235
16641WAT     H250166   3.192   1.154   3.089
16642WAT      O50167   1.111   5.609   1.573
16642WAT     H150168   1.188   5.582   1.516
16642WAT     H250169   1.131   5.696   1.617
16643WAT      O50170   6.119   5.830   9.103
16643WAT     H150171   6.023   5.823   9.077
16643WAT     H250172   6.173   5.766   9.048
16644WAT      O50173   9.027   2.210   3.399
16644WAT     H150174   8.951   2.186   3.340
16644WAT     H250175   9.111   2.219   3.345
16645WAT      O50176   6.799   1.061   2.441
16645WAT     H150177   6.897   1.046   2.459
16645WAT     H250178   6.755   1.092   2.525
16646WAT      O50179   6.440   2.303   7.590
16646WAT     H150180   6.476   2.213   7.567
16646WAT     H250181   6.512   2.372   7.576
16647WAT      O50182   7.349   5.071   9.293
16647WAT     H150183   7.379   5.139   9.360
16647WAT     H250184   7.331   5.117   9.206
16648WAT      O50185   3.437   8.860   4.934
16648WAT     H150186   3.375   8.899   5.002
16648WAT     H250187   3.493   8.933   4.894
16649WAT      O50188   8.996   1.530   8.461
16649WAT     H150189   8.971   1.627   8.462
16649WAT     H250190   9.015   1.500   8.554
16650WAT      O50191   9.798   9.076   8.309
16650WAT     H150192   9.717   9.050   8.362
16650WAT     H250193   9.774   9.083   8.212
16651WAT      O50194   5.650   8.078   7.725
16651WAT     H150195   5.714   8.030   7.785
16651WAT     H250196   5.566   8.024   7.715
16652WAT      O50197   3.571   5.253   8.087
16652WAT     H150198   3.495   5.274   8.148
16652WAT     H250199   3.656   5.289   8.126
16653WAT      O50200   2.393   7.005   8.142
16653WAT     H150201   2.485   6.976   8.170
16653WAT     H250202   2.400   7.084   8.081
16654WAT      O50203   7.300   8.083   3.273
16654WAT     H150204   7.210   8.098   3.313
16654WAT     H250205   7.306   8.129   3.184
16655WAT      O50206   7.668   1.365   2.367
16655WAT     H150207   7.765   1.361   2.339
16655WAT     H250208   7.659   1.427   2.444
16656WAT      O50209   6.445   7.320   8.888
16656WAT     H150210   6.522   7.335   8.950
16656WAT     H250211   6.479   7.311   8.794
16657WAT      O50212   0.861   8.589   0.360
16657WAT     H150213   0.861   8.622   0.454
16657WAT     H250214   0.785   8.632   0.310
16658WAT      O50215   5.021   1.698   8.122
16658WAT     H150216   4.998   1.613   8.075
16658WAT     H250217   5.038   1.679   8.219
16659WAT      O50218   5.984   2.044   4.463
16659WAT     H150219   6.008   2.141   4.464
16659WAT     H250220   6.015   2.004   4.377
16660WAT      O50221   8.028   1.289   9.248
16660WAT     H150222   8.101   1.246   9.194
16660WAT     H250223   8.068   1.360   9.306
16661WAT      O50224   9.843   7.598   6.974
16661WAT     H150225   9.929   7.637   7.004
16661WAT     H250226   9.837   7.602   6.874
16662WAT      O50227   1.974   5.640   2.719
16662WAT     H150228   2.010   5.565   2.774
16662WAT     H250229   1.945   5.605   2.630
16663WAT      O50230   1.277   3.186   4.381
16663WAT     H150231   1.186   3.225   4.364
16663WAT     H250232   1.330   3.187   4.296
16664WAT      O50233   7.781   6.774   2.084
16664WAT     H150234   7.707   6.709   2.098
16664WAT     H250235   7.866   6.738   2.124
16665WAT      O50236   9.425   8.531   9.795
16665WAT     H150237   9.414   8.593   9.717
16665WAT     H250238   9.501   8.469   9.778
16666WAT      O50239   7.768   2.345   0.955
16666WAT     H150240   7.806   2.426   0.911
16666WAT     H250241   7.674   2.363   0.981
16667WAT      O50242   0.889   7.550   6.839
16667WAT     H150243   0.985   7.533   6.815
16667WAT     H250244   0.860   7.637   6.799
16668WAT      O50245   1.684   2.429   6.695
16668WAT     H150246   1.730   2.457   6.611
16668WAT     H250247   1.597   2.476   6.703
16669WAT      O50248   0.841   9.124   7.847
16669WAT     H150249   0.873   9.145   7.754
16669WAT     H250250   0.915   9.082   7.899
16670WAT      O50251   0.926   4.246   3.870
16670WAT     H150252   0.938   4.345   3.886
16670WAT     H250253   1.016   4.202   3.873
16671WAT      O50254   1.623   6.635   2.581
16671WAT     H150255   1.550   6.567   2.575
16671WAT     H250256   1.613   6.701   2.507
16672WAT      O50257   5.339   4.904   9.130
16672WAT     H150258   5.412   4.848   9.170
16672WAT     H250259   5.262   4.909   9.193
16673WAT      O50260   1.938   0.313   7.306
16673WAT     H150261   2.026   0.288   7.265
16673WAT     H250262   1.936   0.411   7.324
16674WAT      O50263   6.783   9.484   0.904
16674WAT     H150264   6.708   9.516   0.847
16674WAT     H250265   6.759   9.492   1.000
16675WAT      O50266   8.824   0.627   4.948
16675WAT     H150267   8.785   0.559   4.886
16675WAT     H250268   8.845   0.585   5.036
16676WAT      O50269   7.508   4.480   6.924
16676WAT     H150270   7.535   4.480   6.828
16676WAT     H250271   7.590   4.487   6.981
16677WAT      O50272   4.472   8.389   7.956
16677WAT     H150273   4.529   8.470   7.971
16677WAT     H250274   4.377   8.410   7.981
16678WAT      O50275   0.872   7.986   6.094
16678WAT     H150276   0.863   7.903   6.149
16678WAT     H250277   0.937   7.970   6.020
16679WAT      O50278   2.104   0.452   5.713
16679WAT     H150279   2.048   0.469   5.632
16679WAT     H250280   2.045   0.420   5.788
16680WAT      O50281   2.871   5.395   9.031
16680WAT     H150282   2.849   5.448   9.113
16680WAT     H250283   2.787   5.376   8.980
16681WAT      O50284   9.302   8.812   8.953
16681WAT     H150285   9.345   8.809   8.863
16681WAT     H250286   9.348   8.880   9.010
16682WAT      O50287   3.072   9.779   5.198
16682WAT     H150288   3.062   9.681   5.211
16682WAT     H250289   3.002   9.812   5.134
16683WAT      O50290   1.416   7.643   7.696
16683WAT     H150291   1.372   7.660   7.784
16683WAT     H250292   1.385   7.555   7.659
16684WAT      O50293   4.414   7.947   6.536
16684WAT     H150294   4.493   7.987   6.488
16684WAT     H250295   4.369   8.018   6.590
16685WAT      O50296   3.805   3.842   5.028
16685WAT     H150297   3.807   3.754   5.075
16685WAT     H250298   3.835   3.830   4.933
16686WAT      O50299   5.379   1.582   4.537
16686WAT     H150300   5.314   1.570   4.462
16686WAT     H250301   5.340   1.547   4.622
16687WAT      O50302   9.558   0.367   7.829
16687WAT     H150303   9.503   0.367   7.746
16687WAT     H250304   9.655   0.371   7.805
16688WAT      O50305   0.750   8.540   6.434
16688WAT     H150306   0.772   8.568   6.527
16688WAT     H250307   0.735   8.441   6.431
16689WAT      O50308   4.250   6.703   1.676
16689WAT     H150309   4.151   6.716   1.672
16689WAT     H250310   4.295   6.778   1.628
16690WAT      O50311   8.701   2.987   3.634
16690WAT     H150312   8.635   2.964   3.706
16690WAT     H250313   8.783   3.026   3.675
16691WAT      O50314   4.844   0.365   2.002
16691WAT     H150315   4.766   0.350   1.942
16691WAT     H250316   4.827   0.320   2.090
16692WAT      O50317   5.643   1.251   1.075
16692WAT     H150318   5.553   1.244   1.031
16692WAT     H250319   5.639   1.208   1.165
16693WAT      O50320   5.396   2.908   8.117
16693WAT     H150321   5.334   2.879   8.190
16693WAT     H250322   5.486   2.869   8.133
16694WAT      O50323   3.678   1.568   2.185
16694WAT     H150324   3.654   1.495   2.248
16694WAT     H250325   3.682   1.655   2.234
16695WAT      O50326   2.206   9.101   5.219
16695WAT     H150327   2.258   9.131   5.299
16695WAT     H250328   2.223   9.004   5.201
16696WAT      O50329   9.424   5.021   6.911
16696WAT     H150330   9.381   4.964   6.840
16696WAT     H250331   9.510   4.979   6.939
16697WAT      O50332   3.856   5.705   8.020
16697WAT     H150333   3.865   5.745   8.111
16697WAT     H250334   3.947   5.682   7.985
16698WAT      O50335   8.663   1.951   6.083
16698WAT     H150336   8.676   2.031   6.141
16698WAT     H250337   8.666   1.868   6.139
16699WAT      O50338   1.118   0.101   9.519
16699WAT     H150339   1.053   0.093   9.443
16699WAT     H250340   1.117   0.017   9.573
16700WAT      O50341   9.005   7.374   9.256
16700WAT     H150342   8.934   7.357   9.187
16700WAT     H250343   8.962   7.413   9.338
16701WAT      O50344   8.777   1.425   5.348
16701WAT     H150345   8.836   1.503   5.328
16701WAT     H250346   8.719   1.406   5.269
16702WAT      O50347   4.895   6.983   1.904
16702WAT     H150348   4.800   6.994   1.875
16702WAT     H250349   4.956   7.021   1.834
16703WAT      O50350   1.091   5.520   0.992
16703WAT     H150351   1.091   5.612   1.030
16703WAT     H250352   1.182   5.480   1.001
16704WAT      O50353   8.679   4.615   5.026
16704WAT     H150354   8.666   4.527   5.072
16704WAT     H250355   8.767   4.616   4.980
16705WAT      O50356   3.950   1.667   1.758
16705WAT     H150357   3.965   1.589   1.818
16705WAT     H250358   3.990   1.647   1.668
16706WAT      O50359   4.758   1.830   9.096
16706WAT     H150360   4.687   1.766   9.124
16706WAT     H250361   4.802   1.797   9.013
16707WAT      O50362   8.405   6.186   5.155
16707WAT     H150363   8.476   6.148   5.096
16707WAT     H250364   8.345   6.112   5.187
16708WAT      O50365   2.741   3.185   0.853
16708WAT     H150366   2.691   3.217   0.934
16708WAT     H250367   2.831   3.152   0.881
16709WAT      O50368   3.261   9.471   5.562
16709WAT     H150369   3.346   9.470   5.614
16709WAT     H250370   3.266   9.539   5.489
16710WAT      O50371   0.343   3.577   3.691
16710WAT     H150372   0.273   3.602   3.625
16710WAT     H250373   0.411   3.651   3.697
16711WAT      O50374   6.730   2.941   2.979
16711WAT     H150375   6.807   2.952   2.916
16711WAT     H250376   6.645   2.936   2.927
16712WAT      O50377   4.229   8.379   1.511
16712WAT     H150378   4.160   8.429   1.459
16712WAT     H250379   4.254   8.431   1.592
16713WAT      O50380   9.821   5.983   3.260
16713WAT     H150381   9.784   6.004   3.170
16713WAT     H250382   9.757   6.012   3.331
16714WAT      O50383   1.030   5.151   5.983
16714WAT     H150384   0.938   5.113   5.990
16714WAT     H250385   1.097   5.080   6.002
16715WAT      O50386   8.807   2.406   7.856
16715WAT     H150387   8.804   2.360   7.767
16715WAT     H250388   8.714   2.428   7.885
16716WAT      O50389   2.811   5.322   6.261
16716WAT     H150390   2.721   5.337   6.220
16716WAT     H250391   2.825   5.388   6.335
16717WAT      O50392   2.792   7.524   5.571
16717WAT     H150393   2.818   7.451   5.634
16717WAT     H250394   2.772   7.607   5.622
16718WAT      O50395   7.794   1.819   6.088
16718WAT     H150396   7.791   1.776   6.178
16718WAT     H250397   7.887   1.813   6.051
16719WAT      O50398   0.367   0.812   3.807
16719WAT     H150399   0.439   0.770   3.752
16719WAT     H250400   0.369   0.773   3.899
16720WAT      O50401   9.100   5.207   1.753
16720WAT     H150402   9.113   5.111   1.779
16720WAT     H250403   9.124   5.219   1.657
16721WAT      O50404   9.656   8.080   1.353
16721WAT     H150405   9.667   8.031   1.266
16721WAT     H250406   9.579   8.042   1.403
16722WAT      O50407   6.146   0.909   5.180
16722WAT     H150408   6.050   0.911   5.208
16722WAT     H250409   6.153   0.931   5.083
16723WAT      O50410   6.892   5.615   3.310
16723WAT     H150411   6.973   5.637   3.365
16723WAT     H250412   6.818   5.587   3.371
16724WAT      O50413   0.866   2.586   8.142
16724WAT     H150414   0.925   2.609   8.219
16724WAT     H250415   0.783   2.541   8.176
16725WAT      O50416   7.965   7.143   3.106
16725WAT     H150417   8.039   7.085   3.072
16725WAT     H250418   7.978   7.160   3.203
16726WAT      O50419   0.793   1.797   6.126
16726WAT     H150420   0.733   1.726   6.088
16726WAT     H250421   0.853   1.831   6.054
16727WAT      O50422   9.646   0.050   9.898
16727WAT     H150423   9.685  -0.027   9.847
16727WAT     H250424   9.582   0.100   9.840
16728WAT      O50425   3.548   4.998   7.682
16728WAT     H150426   3.514   4.921   7.737
16728WAT     H250427   3.496   5.080   7.704
16729WAT      O50428   2.506   9.601   0.291
16729WAT     H150429   2.504   9.568   0.196
16729WAT     H250430   2.520   9.700   0.292
16730WAT      O50431   4.190   2.638   0.869
16730WAT     H150432   4.277   2.624   0.916
16730WAT     H250433   4.160   2.551   0.829
16731WAT      O50434   3.581   3.100   8.846
16731WAT     H150435   3.565   3.159   8.925
16731WAT     H250436   3.560   3.005   8.870
16732WAT      O50437   8.161   3.246   3.993
16732WAT     H150438   8.233   3.287   4.049
16732WAT     H250439   8.096   3.198   4.052
16733WAT      O50440   6.304   7.798   9.532
16733WAT     H150441   6.217   7.827   9.571
16733WAT     H250442   6.304   7.815   9.434
16734WAT      O50443   5.182   0.488   3.743
16734WAT     H150444   5.198   0.585   3.722
16734WAT     H250445   5.164   0.438   3.658
16735WAT      O50446   8.917   3.017   2.726
16735WAT     H150447   8.829   3.051   2.758
16735WAT     H250448   8.926   2.920   2.749
16736WAT      O50449   7.190   1.877   0.771
16736WAT     H150450   7.166   1.929   0.852
16736WAT     H250451   7.121   1.806   0.755
16737WAT      O50452   7.349   7.184   1.149
16737WAT     H150453   7.364   7.098   1.100
16737WAT     H250454   7.326   7.256   1.083
16738WAT      O50455   1.343   1.267   3.666
16738WAT     H150456   1.320   1.245   3.761
16738WAT     H250457   1.259   1.283   3.614
16739WAT      O50458   1.483   5.482   4.396
16739WAT     H150459   1.464   5.514   4.303
16739WAT     H250460   1.404   5.500   4.455
16740WAT      O50461   7.768   7.898   0.095
16740WAT     H150462   7.847   7.931   0.147
16740WAT     H250463   7.799   7.841   0.019
16741WAT      O50464   8.196   8.362   1.120
16741WAT     H150465   8.184   8.264   1.132
16741WAT     H250466   8.107   8.406   1.110
16742WAT      O50467   8.732   6.924   1.976
16742WAT     H150468   8.669   6.848   1.956
16742WAT     H250469   8.722   6.951   2.072
16743WAT      O50470   4.104   9.611   2.290
16743WAT     H150471   4.169   9.538   2.309
16743WAT     H250472   4.112   9.640   2.194
16744WAT      O50473   5.243   6.677   5.323
16744WAT     H150474   5.321   6.735   5.299
16744WAT     H250475   5.219   6.621   5.244
16745WAT      O50476   9.847   3.321   8.925
16745WAT     H150477   9.784   3.380   8.976
16745WAT     H250478   9.815   3.227   8.930
16746WAT      O50479   0.435   8.053   8.129
16746WAT     H150480   0.373   8.114   8.178
16746WAT     H250481   0.427   7.960   8.165
16747WAT      O50482   9.201   6.113   1.547
16747WAT     H150483   9.199   6.089   1.644
16747WAT     H250484   9.215   6.030   1.493
16748WAT      O50485   5.937   2.393   2.902
16748WAT     H150486   5.915   2.444   2.985
16748WAT     H250487   5.869   2.413   2.832
16749WAT      O50488   1.723   4.586   4.964
16749WAT     H150489   1.815   4.623   4.952
16749WAT     H250490   1.718   4.540   5.053
16750WAT      O50491   0.689   0.419   1.652
16750WAT     H150492   0.602   0.416   1.603
16750WAT     H250493   0.738   0.333   1.636
16751WAT      O50494   4.006   8.602   1.725
16751WAT     H150495   3.951   8.626   1.645
16751WAT     H250496   4.102   8.618   1.705
16752WAT      O50497   5.466   8.909   8.294
16752WAT     H150498   5.454   8.872   8.386
16752WAT     H250499   5.554   8.956   8.287
16753WAT      O50500   2.377   1.073   4.757
16753WAT     H150501   2.457   1.063   4.698
16753WAT     H250502   2.295   1.085   4.701
16754WAT      O50503   4.943   6.489   1.094
16754WAT     H150504   5.031   6.515   1.135
16754WAT     H250505   4.960   6.443   1.007
16755WAT      O50506   6.348   9.278   4.187
16755WAT     H150507   6.318   9.315   4.099
16755WAT     H250508   6.378   9.353   4.246
16756WAT      O50509   5.400   5.324   4.556
16756WAT     H150510   5.346   5.312   4.640
16756WAT     H250511   5.444   5.237   4.532
16757WAT      O50512   5.005   5.485   5.648
16757WAT     H150513   4.951   5.407   5.678
16757WAT     H250514   5.012   5.485   5.548
16758WAT      O50515   6.487   3.581   6.937
16758WAT     H150516   6.508   3.491   6.899
16758WAT     H250517   6.423   3.571   7.013
16759WAT      O50518   0.172   9.727   2.139
16759WAT     H150519   0.264   9.765   2.132
16759WAT     H250520   0.118   9.755   2.060
16760WAT      O50521   6.927   7.953   7.845
16760WAT     H150522   6.875   7.882   7.797
16760WAT     H250523   6.872   7.990   7.920
16761WAT      O50524   4.681   9.349   4.540
16761WAT     H150525   4.633   9.435   4.522
16761WAT     H250526   4.769   9.369   4.584
16762WAT      O50527   1.030   8.227   4.287
16762WAT     H150528   0.973   8.149   4.315
16762WAT     H250529   0.976   8.311   4.293
16763WAT      O50530   7.153   1.641   7.408
16763WAT     H150531   7.140   1.688   7.320
16763WAT     H250532   7.206   1.699   7.469
16764WAT      O50533   6.679   7.822   7.759
16764WAT     H150534   6.704   7.728   7.783
16764WAT     H250535   6.579   7.831   7.759
16765WAT      O50536   8.758   1.918   4.308
16765WAT     H150537   8.756   1.845   4.376
16765WAT     H250538   8.710   1.888   4.226
16766WAT      O50539   6.690   4.413   6.129
16766WAT     H150540   6.606   4.462   6.107
16766WAT     H250541   6.734   4.383   6.044
16767WAT      O50542   5.827   9.254   8.850
16767WAT     H150543   5.882   9.298   8.921
16767WAT     H250544   5.816   9.317   8.772
16768WAT      O50545   1.934   3.176   2.478
16768WAT     H150546   1.987   3.261   2.475
16768WAT     H250547   1.838   3.195   2.457
16769WAT      O50548   8.898   6.299   0.265
16769WAT     H150549   8.932   6.360   0.193
16769WAT     H250550   8.811   6.334   0.299
16770WAT      O50551   3.247   4.024   0.607
16770WAT     H150552   3.257   4.016   0.706
16770WAT     H250553   3.152   4.047   0.585
16771WAT      O50554   7.467   1.462   6.386
16771WAT     H150555   7.408   1.542   6.398
16771WAT     H250556   7.491   1.453   6.289
16772WAT      O50557   4.225   0.061   9.490
16772WAT     H150558   4.299   0.112   9.535
16772WAT     H250559   4.192  -0.010   9.552
16773WAT      O50560   0.367   4.523   7.720
16773WAT     H150561   0.437   4.571   7.773
16773WAT     H250562   0.328   4.450   7.775
16774WAT      O50563   5.756   9.486   0.217
16774WAT     H150564   5.778   9.397   0.259
16774WAT     H250565   5.791   9.559   0.274
16775WAT      O50566   1.952   5.872   1.426
16775WAT     H150567   1.870   5.869   1.368
16775WAT     H250568   2.032   5.887   1.368
16776WAT      O50569   7.091   1.926   9.745
16776WAT     H150570   7.025   1.924   9.820
16776WAT     H250571   7.179   1.957   9.780
16777WAT      O50572   3.892   2.722   0.921
16777WAT     H150573   3.936   2.777   0.850
16777WAT     H250574   3.830   2.656   0.879
16778WAT      O50575   7.912   6.456   2.603
16778WAT     H150576   7.906   6.365   2.563
16778WAT     H250577   7.984   6.508   2.558
16779WAT      O50578   6.118   5.464   2.588
16779WAT     H150579   6.075   5.490   2.674
16779WAT     H250580   6.191   5.529   2.566
16780WAT      O50581   5.365   2.424   9.477
16780WAT     H150582   5.443   2.371   9.443
16780WAT     H250583   5.319   2.468   9.400
16781WAT      O50584   0.412   7.530   6.635
16781WAT     H150585   0.345   7.605   6.639
16781WAT     H250586   0.502   7.567   6.613
16782WAT      O50587   0.070   4.905   4.861
16782WAT     H150588   0.120   4.820   4.844
16782WAT     H250589   0.052   4.951   4.773
16783WAT      O50590   3.259   6.862   2.157
16783WAT     H150591   3.242   6.925   2.082
16783WAT     H250592   3.354   6.873   2.189
16784WAT      O50593   7.487   9.761   2.684
16784WAT     H150594   7.406   9.775   2.627
16784WAT     H250595   7.568   9.755   2.626
16785WAT      O50596   4.678   3.018   7.503
16785WAT     H150597   4.673   3.113   7.471
16785WAT     H250598   4.666   3.015   7.602
16786WAT      O50599   8.746   2.949   7.034
16786WAT     H150600   8.816   2.886   7.067
16786WAT     H250601   8.715   2.921   6.943
16787WAT      O50602   0.567   5.965   2.079
16787WAT     H150603   0.568   5.933   2.174
16787WAT     H250604   0.512   5.902   2.024
16788WAT      O50605   8.581   5.741   5.702
16788WAT     H150606   8.642   5.803   5.653
16788WAT     H250607   8.536   5.791   5.776
16789WAT      O50608   7.300   7.929   2.017
16789WAT     H150609   7.234   7.990   2.060
16789WAT     H250610   7.380   7.980   1.988
16790WAT      O50611   1.627   7.265   1.344
16790WAT     H150612   1.585   7.200   1.407
16790WAT     H250613   1.597   7.245   1.250
16791WAT      O50614   9.867   8.152   2.914
16791WAT     H150615   9.827   8.060   2.922
16791WAT     H250616   9.793   8.220   2.919
16792WAT      O50617   7.041   4.086   0.825
16792WAT     H150618   7.056   3.999   0.873
16792WAT     H250619   7.007   4.154   0.890
16793WAT      O50620   3.122   5.301   4.941
16793WAT     H150621   3.116   5.393   4.903
16793WAT     H250622   3.134   5.235   4.867
16794WAT      O50623   1.004   1.423   3.201
16794WAT     H150624   1.029   1.354   3.133
16794WAT     H250625   0.904   1.425   3.211
16795WAT      O50626   2.930   9.596   6.843
16795WAT     H150627   2.843   9.639   6.868
16795WAT     H250628   2.984   9.660   6.788
16796WAT      O50629   1.679   9.567   9.221
16796WAT     H150630   1.653   9.613   9.306
16796WAT     H250631   1.657   9.470   9.227
16797WAT      O50632   7.391   8.346  -0.001
16797WAT     H150633   7.459   8.272   0.003
16797WAT     H250634   7.402   8.406   0.078
16798WAT      O50635   2.493   9.537   0.042
16798WAT     H150636   2.472   9.583  -0.044
16798WAT     H250637   2.427   9.464   0.058
16799WAT      O50638   5.522   0.881   6.513
16799WAT     H150639   5.591   0.844   6.451
16799WAT     H250640   5.479   0.806   6.564
16800WAT      O50641   6.443   7.843   7.188
16800WAT     H150642   6.407   7.933   7.214
16800WAT     H250643   6.401   7.813   7.103
16801WAT      O50644   6.819   8.689   0.919
16801WAT     H150645   6.883   8.765   0.926
16801WAT     H250646   6.781   8.686   0.827
16802WAT      O50647   8.712   1.049   2.184
16802WAT     H150648   8.792   1.101   2.213
16802WAT     H250649   8.723   1.021   2.088
16803WAT      O50650   5.651   6.893   2.691
16803WAT     H150651   5.561   6.910   2.651
16803WAT     H250652   5.718   6.877   2.618
16804WAT      O50653   8.999   3.504   1.846
16804WAT     H150654   8.928   3.453   1.895
16804WAT     H250655   8.999   3.599   1.877
16805WAT      O50656   6.315   7.208   0.358
16805WAT     H150657   6.362   7.126   0.324
16805WAT     H250658   6.219   7.206   0.329
16806WAT      O50659   9.723   1.593   9.802
16806WAT     H150660   9.798   1.658   9.789
16806WAT     H250661   9.679   1.575   9.714
16807WAT      O50662   2.609   4.804   9.599
16807WAT     H150663   2.705   4.806   9.572
16807WAT     H250664   2.553   4.778   9.520
16808WAT      O50665   1.933   5.850   5.819
16808WAT     H150666   2.016   5.904   5.830
16808WAT     H250667   1.945   5.786   5.743
16809WAT      O50668   0.791   8.908   1.852
16809WAT     H150669   0.887   8.909   1.879
16809WAT     H250670   0.785   8.908   1.752
16810WAT      O50671   6.469   3.959   8.657
16810WAT     H150672   6.393   3.896   8.672
16810WAT     H250673   6.522   3.968   8.741
16811WAT      O50674   1.811   3.791   2.808
16811WAT     H150675   1.733   3.853   2.800
16811WAT     H250676   1.804   3.719   2.738
16812WAT      O50677   2.820   8.280   0.724
16812WAT     H150678   2.799   8.324   0.812
16812WAT     H250679   2.834   8.182   0.738
16813WAT      O50680   5.951   4.450   0.702
16813WAT     H150681   5.963   4.543   0.666
16813WAT     H250682   6.018   4.433   0.774
16814WAT      O50683   6.748   4.782   0.139
16814WAT     H150684   6.697   4.841   0.201
16814WAT     H250685   6.845   4.783   0.164
16815WAT      O50686   3.318   0.308   5.072
16815WAT     H150687   3.241   0.358   5.033
16815WAT     H250688   3.284   0.237   5.134
16816WAT      O50689   2.308   6.670   7.988
16816WAT     H150690   2.388   6.623   8.027
16816WAT     H250691   2.229   6.610   7.993
16817WAT      O50692   4.906   8.636   5.710
16817WAT     H150693   4.917   8.689   5.626
16817WAT     H250694   4.830   8.673   5.763
16818WAT      O50695   6.552   2.903   2.199
16818WAT     H150696   6.549   2.803   2.202
16818WAT     H250697   6.532   2.940   2.290
16819WAT      O50698   3.167   4.757   8.882
16819WAT     H150699   3.217   4.819   8.942
16819WAT     H250700   3.216   4.747   8.795
16820WAT      O50701   5.085   4.296   3.652
16820WAT     H150702   5.020   4.275   3.579
16820WAT     H250703   5.035   4.319   3.735
16821WAT      O50704   6.665   0.090   2.012
16821WAT     H150705   6.722   0.036   1.951
16821WAT     H250706   6.635   0.034   2.089
16822WAT      O50707   7.644   7.435   8.761
16822WAT     H150708   7.667   7.456   8.856
16822WAT     H250709   7.592   7.350   8.757
16823WAT      O50710   5.023   0.749   1.171
16823WAT     H150711   4.930   0.770   1.203
16823WAT     H250712   5.081   0.829   1.184
16824WAT      O50713   0.880   6.795   5.151
16824WAT     H150714   0.827   6.710   5.146
16824WAT     H250715   0.948   6.796   5.077
16825WAT      O50716   5.598   6.184   2.726
16825WAT     H150717   5.506   6.223   2.717
16825WAT     H250718   5.592   6.084   2.725
16826WAT      O50719   7.394   2.233   8.194
16826WAT     H150720   7.342   2.305   8.147
16826WAT     H250721   7.478   2.272   8.232
16827WAT      O50722   9.561   7.934   2.617
16827WAT     H150723   9.626   7.863   2.644
16827WAT     H250724   9.604   8.024   2.628
16828WAT      O50725   0.328   2.975   7.110
16828WAT     H150726   0.424   2.949   7.099
16828WAT     H250727   0.276   2.946   7.029
16829WAT      O50728   7.196   2.893   8.300
16829WAT     H150729   7.224   2.989   8.307
16829WAT     H250730   7.120   2.876   8.362
16830WAT      O50731   3.399   1.947   5.592
16830WAT     H150732   3.332   2.002   5.643
16830WAT     H250733   3.359   1.920   5.504
16831WAT      O50734   6.465   3.775   1.403
16831WAT     H150735   6.409   3.837   1.349
16831WAT     H250736   6.471   3.809   1.497
16832WAT      O50737   0.234   2.144   9.650
16832WAT     H150738   0.219   2.194   9.565
16832WAT     H250739   0.293   2.065   9.633
16833WAT      O50740   2.046   2.377   6.100
16833WAT     H150741   2.008   2.286   6.113
16833WAT     H250742   1.981   2.446   6.131
16834WAT      O50743   0.394   7.473   3.144
16834WAT     H150744   0.490   7.500   3.137
16834WAT     H250745   0.351   7.480   3.054
16835WAT      O50746   3.937   3.812   6.648
16835WAT     H150747   4.026   3.791   6.690
16835WAT     H250748   3.864   3.790   6.712
16836WAT      O50749   0.436   3.399   5.486
16836WAT     H150750   0.460   3.469   5.420
16836WAT     H250751   0.518   3.367   5.533
16837WAT      O50752   3.167   7.830   0.282
16837WAT     H150753   3.106   7.909   0.290
16837WAT     H250754   3.139   7.759   0.347
16838WAT      O50755   3.313   2.996   8.660
16838WAT     H150756   3.407   2.975   8.687
16838WAT     H250757   3.257   3.010   8.742
16839WAT      O50758   1.022   8.365   6.843
16839WAT     H150759   1.014   8.322   6.933
16839WAT     H250760   0.980   8.306   6.774
16840WAT      O50761   6.152   3.687   2.293
16840WAT     H150762   6.127   3.638   2.376
16840WAT     H250763   6.247   3.719   2.301
16841WAT      O50764   6.623   7.615   1.346
16841WAT     H150765   6.644   7.700   1.298
16841WAT     H250766   6.566   7.635   1.426
16842WAT      O50767   8.624   4.498   9.549
16842WAT     H150768   8.659   4.571   9.607
16842WAT     H250769   8.531   4.521   9.519
16843WAT      O50770   3.967   3.595   9.367
16843WAT     H150771   4.041   3.663   9.369
16843WAT     H250772   3.879   3.641   9.374
16844WAT      O50773   1.528   4.781   1.442
16844WAT     H150774   1.584   4.860   1.418
16844WAT     H250775   1.580   4.697   1.427
16845WAT      O50776   3.070   8.176   1.482
16845WAT     H150777   3.084   8.235   1.561
16845WAT     H250778   3.113   8.087   1.499
16846WAT      O50779   6.813   3.080   6.006
16846WAT     H150780   6.739   3.017   5.983
16846WAT     H250781   6.879   3.083   5.931
16847WAT      O50782   0.528   0.057   0.122
16847WAT     H150783   0.486   0.016   0.041
16847WAT     H250784   0.537  -0.012   0.194
16848WAT      O50785   5.505   4.368   0.196
16848WAT     H150786   5.577   4.303   0.219
16848WAT     H250787   5.459   4.398   0.280
16849WAT      O50788   8.272   4.681   5.770
16849WAT     H150789   8.226   4.621   5.705
16849WAT     H250790   8.205   4.742   5.812
16850WAT      O50791   7.891   9.596   4.617
16850WAT     H150792   7.804   9.622   4.659
16850WAT     H250793   7.962   9.660   4.645
16851WAT      O50794   9.473   1.315   5.045
16851WAT     H150795   9.567   1.335   5.018
16851WAT     H250796   9.435   1.246   4.983
16852WAT      O50797   3.617   7.271   4.307
16852WAT     H150798   3.650   7.362   4.331
16852WAT     H250799   3.574   7.229   4.387
16853WAT      O50800   7.056   7.525   7.532
16853WAT     H150801   7.024   7.612   7.494
16853WAT     H250802   7.045   7.453   7.464
16854WAT      O50803   3.400   1.308   0.775
16854WAT     H150804   3.400   1.322   0.874
16854WAT     H250805   3.490   1.333   0.738
16855WAT      O50806   8.896   6.081   6.010
16855WAT     H150807   8.976   6.030   6.041
16855WAT     H250808   8.835   6.097   6.088
16856WAT      O50809   2.176   3.010   5.234
16856WAT     H150810   2.242   3.057   5.174
16856WAT     H250811   2.098   3.071   5.251
16857WAT      O50812   1.737   0.644   3.686
16857WAT     H150813   1.770   0.696   3.765
16857WAT     H250814   1.812   0.591   3.647
16858WAT      O50815   4.271   4.289   0.698
16858WAT     H150816   4.214   4.239   0.631
16858WAT     H250817   4.278   4.385   0.671
16859WAT      O50818   6.027   8.132   0.651
16859WAT     H150819   6.056   8.069   0.724
16859WAT     H250820   5.972   8.081   0.584
16860WAT      O50821   2.207   6.521   4.900
16860WAT     H150822   2.154   6.466   4.964
16860WAT     H250823   2.245   6.600   4.948
16861WAT      O50824   9.408   9.682   0.441
16861WAT     H150825   9.429   9.727   0.354
16861WAT     H250826   9.463   9.723   0.513
16862WAT      O50827   8.694   6.458   1.174
16862WAT     H150828   8.677   6.363   1.147
16862WAT     H250829   8.722   6.461   1.270
16863WAT      O50830   3.965   0.717   7.522
16863WAT     H150831   3.948   0.693   7.426
16863WAT     H250832   3.891   0.684   7.579
16864WAT      O50833   3.906   1.416   0.226
16864WAT     H150834   3.831   1.432   0.161
16864WAT     H250835   3.983   1.374   0.178
16865WAT      O50836   4.103   6.350   0.525
16865WAT     H150837   4.038   6.388   0.459
16865WAT     H250838   4.133   6.422   0.587
16866WAT      O50839   6.497   3.265   2.512
16866WAT     H150840   6.513   3.255   2.610
16866WAT     H250841   6.455   3.181   2.476
16867WAT      O50842   4.475   8.293   1.639
16867WAT     H150843   4.536   8.294   1.560
16867WAT     H250844   4.388   8.335   1.615
16868WAT      O50845   7.042   8.447   3.921
16868WAT     H150846   7.020   8.368   3.865
16868WAT     H250847   7.070   8.523   3.862
16869WAT      O50848   0.169   5.791   9.414
16869WAT     H150849   0.093   5.854   9.396
16869WAT     H250850   0.133   5.706   9.454
16870WAT      O50851   1.363   0.414   6.765
16870WAT     H150852   1.269   0.394   6.793
16870WAT     H250853   1.379   0.379   6.673
16871WAT      O50854   1.052   1.899   7.353
16871WAT     H150855   1.061   1.901   7.453
16871WAT     H250856   1.142   1.894   7.311
16872WAT      O50857   3.974   8.513   4.189
16872WAT     H150858   4.017   8.583   4.133
16872WAT     H250859   4.021   8.426   4.176
16873WAT      O50860   8.305   0.866   5.364
16873WAT     H150861   8.385   0.858   5.423
16873WAT     H250862   8.285   0.777   5.323
16874WAT      O50863   2.269   9.598   3.083
16874WAT     H150864   2.319   9.630   3.003
16874WAT     H250865   2.296   9.652   3.163
16875WAT      O50866   1.300   7.653   8.375
16875WAT     H150867   1.382   7.709   8.367
16875WAT     H250868   1.309   7.592   8.454
16876WAT      O50869   8.979   4.874   7.024
16876WAT     H150870   8.996   4.780   7.056
16876WAT     H250871   9.055   4.933   7.050
16877WAT      O50872   2.593   0.052   0.270
16877WAT     H150873   2.626   0.123   0.333
16877WAT     H250874   2.497   0.033   0.289
16878WAT      O50875   8.316   9.515   7.981
16878WAT     H150876   8.396   9.559   7.940
16878WAT     H250877   8.326   9.415   7.973
16879WAT      O50878   9.637   1.776   6.614
16879WAT     H150879   9.702   1.713   6.573
16879WAT     H250880   9.657   1.870   6.584
16880WAT      O50881   4.368   1.138   0.948
16880WAT     H150882   4.467   1.143   0.942
16880WAT     H250883   4.327   1.216   0.900
16881WAT      O50884   0.458   8.755   1.806
16881WAT     H150885   0.474   8.830   1.871
16881WAT     H250886   0.380   8.701   1.836
16882WAT      O50887   4.418   5.352   9.779
16882WAT     H150888   4.405   5.426   9.846
16882WAT     H250889   4.475   5.281   9.820
16883WAT      O50890   5.768   2.795   6.734
16883WAT     H150891   5.842   2.784   6.667
16883WAT     H250892   5.719   2.708   6.744
16884WAT      O50893   8.584   1.293   0.566
16884WAT     H150894   8.645   1.343   0.628
16884WAT     H250895   8.555   1.209   0.610
16885WAT      O50896   2.148   4.659   4.746
16885WAT     H150897   2.209   4.627   4.818
16885WAT     H250898   2.186   4.634   4.657
16886WAT      O50899   3.772   0.244   3.180
16886WAT     H150900   3.676   0.225   3.162
16886WAT     H250901   3.815   0.283   3.098
16887WAT      O50902   7.371   2.331   8.936
16887WAT     H150903   7.467   2.339   8.962
16887WAT     H250904   7.340   2.238   8.953
16888WAT      O50905   2.308   5.814   7.463
16888WAT     H150906   2.255   5.819   7.547
16888WAT     H250907   2.364   5.731   7.464
16889WAT      O50908   0.979   3.691   2.460
16889WAT     H150909   0.961   3.730   2.370
16889WAT     H250910   1.024   3.603   2.450
16890WAT      O50911   5.236   8.655   3.046
16890WAT     H150912   5.303   8.589   3.079
16890WAT     H250913   5.149   8.608   3.030
16891WAT      O50914   6.082   1.405   0.473
16891WAT     H150915   6.045   1.366   0.389
16891WAT     H250916   6.148   1.477   0.451
16892WAT      O50917   1.374   7.953   4.936
16892WAT     H150918   1.314   7.872   4.940
16892WAT     H250919   1.420   7.956   4.847
16893WAT      O50920   4.713   6.868   2.784
16893WAT     H150921   4.683   6.963   2.789
16893WAT     H250922   4.784   6.859   2.713
16894WAT      O50923   1.808   7.194   2.576
16894WAT     H150924   1.881   7.260   2.563
16894WAT     H250925   1.843   7.101   2.561
16895WAT      O50926   2.046   7.619   3.319
16895WAT     H150927   1.971   7.676   3.354
16895WAT     H250928   2.013   7.564   3.242
16896WAT      O50929   6.830   4.465   9.208
16896WAT     H150930   6.887   4.414   9.271
16896WAT     H250931   6.778   4.402   9.151
16897WAT      O50932   4.564   9.645   8.428
16897WAT     H150933   4.528   9.628   8.337
16897WAT     H250934   4.544   9.740   8.455
16898WAT      O50935   0.217   7.580   9.240
16898WAT     H150936   0.140   7.571   9.176
16898WAT     H250937   0.193   7.535   9.326
16899WAT      O50938   2.146   4.560   1.894
16899WAT     H150939   2.064   4.579   1.948
16899WAT     H250940   2.199   4.488   1.939
16900WAT      O50941   2.905   8.571   3.291
16900WAT     H150942   2.997   8.592   3.259
16900WAT     H250943   2.849   8.653   3.288
16901WAT      O50944   0.846   4.637   7.485
16901WAT     H150945   0.757   4.626   7.441
16901WAT     H250946   0.858   4.733   7.511
16902WAT      O50947   2.272   0.885   0.078
16902WAT     H150948   2.325   0.903   0.161
16902WAT     H250949   2.275   0.965   0.018
16903WAT      O50950   8.545   4.991   9.830
16903WAT     H150951   8.498   4.903   9.822
16903WAT     H250952   8.482   5.059   9.868
16904WAT      O50953   9.548   7.180   6.793
16904WAT     H150954   9.544   7.201   6.695
16904WAT     H250955   9.620   7.234   6.836
16905WAT      O50956   5.696   4.196   0.268
16905WAT     H150957   5.796   4.207   0.273
16905WAT     H250958   5.674   4.100   0.248
16906WAT      O50959   6.127   2.070   8.573
16906WAT     H150960   6.200   2.015   8.613
16906WAT     H250961   6.161   2.162   8.553
16907WAT      O50962   9.614   2.813   7.001
16907WAT     H150963   9.712   2.792   6.994
16907WAT     H250964   9.561   2.729   6.986
16908WAT      O50965   5.822   2.783   2.987
16908WAT     H150966   5.883   2.710   3.018
16908WAT     H250967   5.758   2.747   2.919
16909WAT      O50968   9.533   7.468   6.504
16909WAT     H150969   9.551   7.373   6.528
16909WAT     H250970   9.451   7.500   6.552
16910WAT      O50971   9.113   5.973   2.630
16910WAT     H150972   9.197   5.999   2.678
16910WAT     H250973   9.035   6.013   2.677
16911WAT      O50974   3.033   3.811   7.223
16911WAT     H150975   3.028   3.712   7.211
16911WAT     H250976   3.096   3.832   7.298
16912WAT      O50977   5.255   1.285   9.229
16912WAT     H150978   5.254   1.286   9.329
16912WAT     H250979   5.179   1.339   9.194
16913WAT      O50980   1.783   0.329   8.758
16913WAT     H150981   1.840   0.268   8.813
16913WAT     H250982   1.835   0.362   8.679
16914WAT      O50983   3.442   0.467   8.663
16914WAT     H150984   3.538   0.493   8.672
16914WAT     H250985   3.435   0.367   8.661
16915WAT      O50986   7.058   2.777   7.549
16915WAT     H150987   7.044   2.876   7.557
16915WAT     H250988   7.138   2.759   7.492
16916WAT      O50989   1.645   3.751   7.965
16916WAT     H150990   1.666   3.828   8.026
16916WAT     H250991   1.562   3.705   7.995
16917WAT      O50992   1.375   6.963   7.063
16917WAT     H150993   1.451   7.020   7.092
16917WAT     H250994   1.349   6.986   6.969
16918WAT      O50995   3.088   1.894   6.699
16918WAT     H150996   3.105   1.801   6.667
16918WAT     H250997   3.166   1.953   6.675
16919WAT      O50998   8.550   4.180   5.021
16919WAT     H150999   8.462   4.226   5.012
16919WAT     H251000   8.560   4.115   4.945
16920WAT      O51001   3.000   5.287   7.392
16920WAT     H151002   3.061   5.359   7.360
16920WAT     H251003   3.006   5.279   7.491
16921WAT      O51004   4.749   3.153   0.384
16921WAT     H151005   4.725   3.219   0.455
16921WAT     H251006   4.744   3.197   0.294
16922WAT      O51007   4.597   6.882   4.757
16922WAT     H151008   4.593   6.982   4.765
16922WAT     H251009   4.679   6.857   4.704
16923WAT      O51010   6.553   3.108   8.684
16923WAT     H151011   6.645   3.073   8.700
16923WAT     H251012   6.529   3.174   8.756
16924WAT      O51013   5.973   2.105   6.602
16924WAT     H151014   5.970   2.012   6.637
16924WAT     H251015   6.066   2.128   6.574
16925WAT      O51016   6.751   4.828   4.369
16925WAT     H151017   6.784   4.917   4.399
16925WAT     H251018   6.664   4.808   4.413
16926WAT      O51019   8.831   0.382   9.384
16926WAT     H151020   8.838   0.450   9.310
16926WAT     H251021   8.917   0.332   9.390
16927WAT      O51022   7.563   3.147   7.476
16927WAT     H151023   7.628   3.077   7.505
16927WAT     H251024   7.568   3.158   7.377
16928WAT      O51025   4.727   4.645   9.025
16928WAT     H151026   4.726   4.735   9.069
16928WAT     H251027   4.813   4.634   8.976
16929WAT      O51028   2.752   0.476   0.578
16929WAT     H151029   2.701   0.390   0.573
16929WAT     H251030   2.687   0.553   0.579
16930WAT      O51031   4.336   4.183   1.172
16930WAT     H151032   4.379   4.268   1.203
16930WAT     H251033   4.306   4.194   1.077
16931WAT      O51034   6.544   2.651   5.272
16931WAT     H151035   6.576   2.560   5.244
16931WAT     H251036   6.481   2.642   5.349
16932WAT      O51037   8.123   3.451   0.072
16932WAT     H151038   8.129   3.544   0.107
16932WAT     H251039   8.099   3.388   0.146
16933WAT      O51040   2.324   2.723   3.555
16933WAT     H151041   2.414   2.758   3.581
16933WAT     H251042   2.269   2.710   3.637
16934WAT      O51043   5.582   9.627   8.294
16934WAT     H151044   5.545   9.561   8.360
16934WAT     H251045   5.544   9.608   8.204
16935WAT      O51046   2.040   4.362   1.687
16935WAT     H151047   2.114   4.380   1.751
16935WAT     H251048   1.990   4.447   1.670
16936WAT      O51049   2.749   8.903   4.497
16936WAT     H151050   2.800   8.818   4.483
16936WAT     H251051   2.808   8.981   4.476
16937WAT      O51052   7.299   9.113   1.301
16937WAT     H151053   7.234   9.183   1.274
16937WAT     H251054   7.392   9.150   1.295
16938WAT      O51055   8.615   6.665   7.286
16938WAT     H151056   8.581   6.576   7.316
16938WAT     H251057   8.563   6.696   7.206
16939WAT      O51058   1.113   6.723   9.418
16939WAT     H151059   1.177   6.647   9.428
16939WAT     H251060   1.090   6.760   9.509
16940WAT      O51061   8.931   0.380   2.933
16940WAT     H151062   8.878   0.295   2.925
16940WAT     H251063   8.886   0.440   2.999
16941WAT      O51064   0.690   3.199   4.971
16941WAT     H151065   0.680   3.295   4.996
16941WAT     H251066   0.722   3.147   5.050
16942WAT      O51067   0.057   1.123   6.847
16942WAT     H151068   0.021   1.177   6.771
16942WAT     H251069   0.150   1.153   6.869
16943WAT      O51070   6.695   8.195   7.190
16943WAT     H151071   6.619   8.192   7.125
16943WAT     H251072   6.759   8.267   7.162
16944WAT      O51073   8.068   2.574   1.344
16944WAT     H151074   8.048   2.668   1.368
16944WAT     H251075   8.161   2.568   1.306
16945WAT      O51076   1.872   8.023   2.095
16945WAT     H151077   1.905   8.116   2.079
16945WAT     H251078   1.786   8.010   2.046
16946WAT      O51079   1.761   3.843   9.256
16946WAT     H151080   1.796   3.755   9.288
16946WAT     H251081   1.684   3.827   9.194
16947WAT      O51082   8.702   6.045   9.696
16947WAT     H151083   8.757   6.104   9.637
16947WAT     H251084   8.651   5.979   9.640
16948WAT      O51085   9.443   3.029   5.299
16948WAT     H151086   9.366   3.089   5.276
16948WAT     H251087   9.409   2.944   5.339
16949WAT      O51088   6.847   5.057   2.952
16949WAT     H151089   6.862   5.071   2.855
16949WAT     H251090   6.753   5.082   2.975
16950WAT      O51091   3.905   0.058   2.837
16950WAT     H151092   3.822   0.065   2.892
16950WAT     H251093   3.889  -0.005   2.760
16951WAT      O51094   4.984   2.373   8.301
16951WAT     H151095   4.977   2.466   8.337
16951WAT     H251096   4.897   2.346   8.260
16952WAT      O51097   4.090   7.709   3.286
16952WAT     H151098   4.090   7.612   3.260
16952WAT     H251099   3.999   7.735   3.320
16953WAT      O51100   6.545   1.172   7.342
16953WAT     H151101   6.513   1.133   7.428
16953WAT     H251102   6.629   1.223   7.358
16954WAT      O51103   8.591   6.862   6.069
16954WAT     H151104   8.605   6.788   6.135
16954WAT     H251105   8.640   6.841   5.984
16955WAT      O51106   6.727   2.113   4.969
16955WAT     H151107   6.795   2.051   4.930
16955WAT     H251108   6.771   2.199   4.995
16956WAT      O51109   7.142   5.393   1.539
16956WAT     H151110   7.203   5.472   1.529
16956WAT     H251111   7.099   5.395   1.629
16957WAT      O51112   4.995   4.217   8.252
16957WAT     H151113   4.972   4.255   8.341
16957WAT     H251114   4.919   4.233   8.189
16958WAT      O51115   3.813   0.985   5.312
16958WAT     H151116   3.827   0.939   5.400
16958WAT     H251117   3.715   0.990   5.292
16959WAT      O51118   2.299   3.694   2.364
16959WAT     H151119   2.294   3.600   2.398
16959WAT     H251120   2.217   3.714   2.312
16960WAT      O51121   0.340   3.067   1.481
16960WAT     H151122   0.334   3.024   1.391
16960WAT     H251123   0.281   3.018   1.546
16961WAT      O51124   4.569   2.271   7.736
16961WAT     H151125   4.587   2.369   7.748
16961WAT     H251126   4.552   2.252   7.640
16962WAT      O51127   8.291   8.575   4.962
16962WAT     H151128   8.227   8.632   4.911
16962WAT     H251129   8.250   8.485   4.977
16963WAT      O51130   0.870   5.570   3.691
16963WAT     H151131   0.859   5.488   3.746
16963WAT     H251132   0.822   5.646   3.735
16964WAT      O51133   6.912   8.469   3.197
16964WAT     H151134   6.895   8.447   3.294
16964WAT     H251135   6.874   8.396   3.140
16965WAT      O51136   4.747   7.752   8.106
16965WAT     H151137   4.820   7.818   8.122
16965WAT     H251138   4.659   7.801   8.101
16966WAT      O51139   5.403   6.541   2.803
16966WAT     H151140   5.492   6.567   2.843
16966WAT     H251141   5.369   6.617   2.748
16967WAT      O51142   0.627   5.680   7.404
16967WAT     H151143   0.572   5.665   7.322
16967WAT     H251144   0.567   5.686   7.484
16968WAT      O51145   9.616   3.682   5.975
16968WAT     H151146   9.660   3.683   5.886
16968WAT     H251147   9.644   3.764   6.026
16969WAT      O51148   9.029   4.882   4.663
16969WAT     H151149   9.100   4.913   4.599
16969WAT     H251150   9.070   4.863   4.752
16970WAT      O51151   4.572   5.632   5.714
16970WAT     H151152   4.600   5.593   5.627
16970WAT     H251153   4.651   5.673   5.760
16971WAT      O51154   6.612   0.551   4.532
16971WAT     H151155   6.565   0.465   4.511
16971WAT     H251156   6.553   0.609   4.588
16972WAT      O51157   7.168   4.590   5.501
16972WAT     H151158   7.131   4.669   5.452
16972WAT     H251159   7.093   4.530   5.529
16973WAT      O51160   7.214   5.024   6.611
16973WAT     H151161   7.253   5.102   6.660
16973WAT     H251162   7.273   5.001   6.534
16974WAT      O51163   0.186   2.268   1.075
16974WAT     H151164   0.116   2.216   1.125
16974WAT     H251165   0.277   2.235   1.101
16975WAT      O51166   5.330   4.182   0.047
16975WAT     H151167   5.389   4.258   0.075
16975WAT     H251168   5.322   4.180  -0.052
16976WAT      O51169   0.267   4.237   7.073
16976WAT     H151170   0.192   4.182   7.037
16976WAT     H251171   0.251   4.258   7.169
16977WAT      O51172   4.408   4.304   7.383
16977WAT     H151173   4.455   4.391   7.392
16977WAT     H251174   4.438   4.258   7.299
16978WAT      O51175   2.294   9.383   0.152
16978WAT     H151176   2.289   9.315   0.079
16978WAT     H251177   2.279   9.338   0.240
16979WAT      O51178   7.648   8.690   5.197
16979WAT     H151179   7.630   8.633   5.117
16979WAT     H251180   7.664   8.632   5.277
16980WAT      O51181   0.527   0.104   8.488
16980WAT     H151182   0.500   0.179   8.427
16980WAT     H251183   0.622   0.080   8.470
16981WAT      O51184   3.900   1.812   8.005
16981WAT     H151185   3.949   1.738   7.960
16981WAT     H251186   3.948   1.837   8.089
16982WAT      O51187   9.775   9.812   9.495
16982WAT     H151188   9.697   9.858   9.453
16982WAT     H251189   9.805   9.737   9.436
16983WAT      O51190   5.319   8.360   1.337
16983WAT     H151191   5.323   8.336   1.434
16983WAT     H251192   5.393   8.424   1.316
16984WAT      O51193   7.503   9.485   4.644
16984WAT     H151194   7.411   9.449   4.629
16984WAT     H251195   7.537   9.453   4.733
16985WAT      O51196   1.040   4.557   3.498
16985WAT     H151197   1.106   4.579   3.426
16985WAT     H251198   0.956   4.524   3.457
16986WAT      O51199   3.955   7.879   6.785
16986WAT     H151200   4.022   7.947   6.814
16986WAT     H251201   3.982   7.842   6.696
16987WAT      O51202   9.617   1.804   3.279
16987WAT     H151203   9.524   1.822   3.310
16987WAT     H251204   9.674   1.885   3.296
16988WAT      O51205   5.080   2.681   3.374
16988WAT     H151206   5.036   2.766   3.403
16988WAT     H251207   5.155   2.659   3.437
16989WAT      O51208   2.321   7.275   2.555
16989WAT     H151209   2.280   7.365   2.543
16989WAT     H251210   2.363   7.245   2.470
16990WAT      O51211   1.223   1.688   1.729
16990WAT     H151212   1.258   1.781   1.713
16990WAT     H251213   1.246   1.630   1.650
16991WAT      O51214   8.521   9.003   1.538
16991WAT     H151215   8.481   9.086   1.498
16991WAT     H251216   8.535   9.018   1.636
16992WAT      O51217   5.353   3.160   8.287
16992WAT     H151218   5.307   3.075   8.260
16992WAT     H251219   5.450   3.143   8.299
16993WAT      O51220   6.196   2.313   3.975
16993WAT     H151221   6.143   2.234   4.004
16993WAT     H251222   6.175   2.334   3.879
16994WAT      O51223   9.564   7.778   6.899
16994WAT     H151224   9.563   7.725   6.984
16994WAT     H251225   9.624   7.858   6.910
16995WAT      O51226   3.781   6.431   3.931
16995WAT     H151227   3.690   6.472   3.935
16995WAT     H251228   3.805   6.393   4.021
16996WAT      O51229   6.330   6.187   8.750
16996WAT     H151230   6.427   6.202   8.733
16996WAT     H251231   6.276   6.247   8.691
16997WAT      O51232   5.385   0.203   8.172
16997WAT     H151233   5.411   0.129   8.233
16997WAT     H251234   5.398   0.291   8.218
16998WAT      O51235   2.394   5.710   3.776
16998WAT     H151236   2.462   5.744   3.712
16998WAT     H251237   2.437   5.696   3.865
16999WAT      O51238   1.713   0.348   5.444
16999WAT     H151239   1.643   0.398   5.395
16999WAT     H251240   1.785   0.319   5.380
17000WAT      O51241   3.545   7.183   5.971
17000WAT     H151242   3.510   7.221   6.056
17000WAT     H251243   3.473   7.186   5.901
17001WAT      O51244   7.580   4.472   4.866
17001WAT     H151245   7.656   4.485   4.803
17001WAT     H251246   7.573   4.550   4.927
17002WAT      O51247   2.984   7.602   4.974
17002WAT     H151248   3.080   7.595   4.946
17002WAT     H251249   2.928   7.544   4.916
17003WAT      O51250   8.683   6.255   1.841
17003WAT     H151251   8.639   6.344   1.850
17003WAT     H251252   8.781   6.267   1.829
17004WAT      O51253   5.818   1.349   1.644
17004WAT     H151254   5.818   1.253   1.674
17004WAT     H251255   5.843   1.407   1.721
17005WAT      O51256   6.237   2.658   3.061
17005WAT     H151257   6.250   2.714   3.143
17005WAT     H251258   6.326   2.639   3.019
17006WAT      O51259   9.118   1.677   8.974
17006WAT     H151260   9.079   1.614   9.041
17006WAT     H251261   9.176   1.626   8.910
17007WAT      O51262   5.572   8.192   6.120
17007WAT     H151263   5.645   8.153   6.065
17007WAT     H251264   5.489   8.200   6.065
17008WAT      O51265   1.021   5.062   9.212
17008WAT     H151266   1.089   5.105   9.152
17008WAT     H251267   0.977   4.986   9.164
17009WAT      O51268   1.104   0.670   6.586
17009WAT     H151269   1.093   0.701   6.681
17009WAT     H251270   1.077   0.574   6.580
17010WAT      O51271   0.162   6.519   6.013
17010WAT     H151272   0.243   6.517   6.071
17010WAT     H251273   0.180   6.575   5.932
17011WAT      O51274   6.768   0.380   8.598
17011WAT     H151275   6.678   0.353   8.564
17011WAT     H251276   6.824   0.412   8.522
17012WAT      O51277   6.335   2.299   8.856
17012WAT     H151278   6.431   2.312   8.831
17012WAT     H251279   6.278   2.315   8.775
17013WAT      O51280   5.013   4.776   2.624
17013WAT     H151281   5.051   4.725   2.547
17013WAT     H251282   4.922   4.742   2.645
17014WAT      O51283   0.593   4.313   8.805
17014WAT     H151284   0.499   4.282   8.814
17014WAT     H251285   0.613   4.331   8.708
17015WAT      O51286   4.637   5.221   7.240
17015WAT     H151287   4.640   5.159   7.162
17015WAT     H251288   4.681   5.178   7.319
17016WAT      O51289   0.035   6.222   2.636
17016WAT     H151290   0.050   6.262   2.726
17016WAT     H251291  -0.033   6.276   2.586
17017WAT      O51292   0.240   9.369   8.788
17017WAT     H151293   0.192   9.447   8.827
17017WAT     H251294   0.173   9.305   8.749
17018WAT      O51295   3.449   9.137   6.287
17018WAT     H151296   3.474   9.148   6.383
17018WAT     H251297   3.400   9.050   6.275
17019WAT      O51298   0.092   3.484   6.772
17019WAT     H151299   0.148   3.542   6.712
17019WAT     H251300   0.040   3.543   6.835
17020WAT      O51301   2.160   8.240   1.904
17020WAT     H151302   2.150   8.141   1.913
17020WAT     H251303   2.190   8.279   1.991
17021WAT      O51304   5.564   2.611   6.060
17021WAT     H151305   5.477   2.569   6.037
17021WAT     H251306   5.567   2.704   6.026
17022WAT      O51307   2.920   3.844   2.922
17022WAT     H151308   2.935   3.745   2.922
17022WAT     H251309   3.000   3.890   2.883
17023WAT      O51310   4.738   2.245   9.789
17023WAT     H151311   4.647   2.286   9.782
17023WAT     H251312   4.806   2.307   9.751
17024WAT      O51313   3.320   9.157   9.873
17024WAT     H151314   3.259   9.100   9.928
17024WAT     H251315   3.387   9.201   9.933
17025WAT      O51316   7.615   5.514   0.257
17025WAT     H151317   7.583   5.592   0.202
17025WAT     H251318   7.536   5.464   0.291
17026WAT      O51319   8.404   4.626   2.946
17026WAT     H151320   8.311   4.589   2.956
17026WAT     H251321   8.434   4.614   2.851
17027WAT      O51322   8.704   2.635   4.233
17027WAT     H151323   8.730   2.630   4.136
17027WAT     H251324   8.779   2.675   4.285
17028WAT      O51325   2.000   6.366   4.008
17028WAT     H151326   2.062   6.299   4.050
17028WAT     H251327   1.956   6.325   3.928
17029WAT      O51328   1.816   0.475   3.153
17029WAT     H151329   1.818   0.561   3.204
17029WAT     H251330   1.841   0.399   3.213
17030WAT      O51331   7.214   6.815   1.808
17030WAT     H151332   7.122   6.829   1.772
17030WAT     H251333   7.275   6.787   1.734
17031WAT      O51334   3.533   9.831   2.676
17031WAT     H151335   3.578   9.909   2.633
17031WAT     H251336   3.435   9.837   2.662
17032WAT      O51337   0.300   5.345   5.420
17032WAT     H151338   0.227   5.290   5.461
17032WAT     H251339   0.340   5.294   5.344
17033WAT      O51340   3.441   2.958   8.236
17033WAT     H151341   3.499   3.031   8.272
17033WAT     H251342   3.352   2.961   8.282
17034WAT      O51343   5.057   7.966   7.522
17034WAT     H151344   5.099   8.056   7.537
17034WAT     H251345   4.960   7.978   7.502
17035WAT      O51346   8.693   0.444   7.078
17035WAT     H151347   8.793   0.447   7.066
17035WAT     H251348   8.653   0.527   7.038
17036WAT      O51349   7.874   4.911   2.399
17036WAT     H151350   7.923   4.990   2.435
17036WAT     H251351   7.777   4.933   2.391
17037WAT      O51352   2.956   9.419   4.789
17037WAT     H151353   2.981   9.494   4.850
17037WAT     H251354   2.944   9.453   4.696
17038WAT      O51355   6.856   4.444   3.845
17038WAT     H151356   6.833   4.357   3.888
17038WAT     H251357   6.805   4.517   3.890
17039WAT      O51358   1.618   4.802   3.107
17039WAT     H151359   1.588   4.761   3.194
17039WAT     H251360   1.697   4.752   3.073
17040WAT      O51361   6.856   8.605   7.735
17040WAT     H151362   6.939   8.656   7.757
17040WAT     H251363   6.864   8.566   7.643
17041WAT      O51364   1.262   6.089   3.521
17041WAT     H151365   1.242   6.022   3.449
17041WAT     H251366   1.183   6.148   3.535
17042WAT      O51367   3.276   5.286   6.123
17042WAT     H151368   3.277   5.256   6.218
17042WAT     H251369   3.369   5.281   6.086
17043WAT      O51370   3.044   1.504   8.304
17043WAT     H151371   3.098   1.456   8.373
17043WAT     H251372   3.077   1.598   8.296
17044WAT      O51373   1.623   0.422   8.132
17044WAT     H151374   1.719   0.434   8.109
17044WAT     H251375   1.588   0.505   8.177
17045WAT      O51376   0.736   0.279   9.035
17045WAT     H151377   0.707   0.270   9.131
17045WAT     H251378   0.658   0.308   8.980
17046WAT      O51379   8.849   0.700   5.378
17046WAT     H151380   8.868   0.672   5.283
17046WAT     H251381   8.893   0.788   5.396
17047WAT      O51382   4.382   8.694   7.812
17047WAT     H151383   4.382   8.782   7.765
17047WAT     H251384   4.423   8.624   7.753
17048WAT      O51385   8.611   8.145   2.232
17048WAT     H151386   8.671   8.157   2.153
17048WAT     H251387   8.521   8.112   2.201
17049WAT      O51388   7.793   3.710   8.636
17049WAT     H151389   7.873   3.674   8.589
17049WAT     H251390   7.715   3.648   8.622
17050WAT      O51391   7.454   6.465   1.935
17050WAT     H151392   7.487   6.526   1.863
17050WAT     H251393   7.364   6.495   1.967
17051WAT      O51394   2.097   2.209   8.533
17051WAT     H151395   2.141   2.297   8.518
17051WAT     H251396   2.137   2.164   8.612
17052WAT      O51397   0.469   6.479   6.666
17052WAT     H151398   0.531   6.467   6.587
17052WAT     H251399   0.512   6.540   6.732
17053WAT      O51400   1.650   3.466   5.087
17053WAT     H151401   1.700   3.501   5.009
17053WAT     H251402   1.628   3.370   5.072
17054WAT      O51403   2.495   9.259   3.739
17054WAT     H151404   2.557   9.281   3.814
17054WAT     H251405   2.460   9.166   3.751
17055WAT      O51406   7.566   3.104   1.313
17055WAT     H151407   7.625   3.184   1.323
17055WAT     H251408   7.509   3.094   1.395
17056WAT      O51409   1.192   8.865   1.135
17056WAT     H151410   1.209   8.810   1.217
17056WAT     H251411   1.199   8.962   1.158
17057WAT      O51412   5.807   1.650   3.401
17057WAT     H151413   5.783   1.635   3.497
17057WAT     H251414   5.788   1.744   3.375
17058WAT      O51415   1.541   9.322   9.136
17058WAT     H151416   1.489   9.349   9.217
17058WAT     H251417   1.616   9.261   9.164
17059WAT      O51418   3.476   4.687   5.282
17059WAT     H151419   3.477   4.761   5.215
17059WAT     H251420   3.570   4.664   5.307
17060WAT      O51421   4.173   1.258   6.831
17060WAT     H151422   4.266   1.233   6.804
17060WAT     H251423   4.111   1.244   6.754
17061WAT      O51424   4.056   0.501   4.487
17061WAT     H151425   4.110   0.418   4.479
17061WAT     H251426   4.029   0.532   4.395
17062WAT      O51427   5.647   5.451   2.666
17062WAT     H151428   5.560   5.406   2.690
17062WAT     H251429   5.631   5.515   2.592
17063WAT      O51430   7.345   3.880   0.844
17063WAT     H151431   7.276   3.851   0.778
17063WAT     H251432   7.329   3.834   0.932
17064WAT      O51433   9.035   0.689   9.049
17064WAT     H151434   9.057   0.786   9.058
17064WAT     H251435   9.066   0.656   8.960
17065WAT      O51436   7.817   7.500   7.554
17065WAT     H151437   7.875   7.544   7.622
17065WAT     H251438   7.798   7.564   7.480
17066WAT      O51439   4.167   4.656   7.269
17066WAT     H151440   4.110   4.671   7.350
17066WAT     H251441   4.142   4.569   7.226
17067WAT      O51442   7.740   3.430   2.254
17067WAT     H151443   7.778   3.519   2.228
17067WAT     H251444   7.811   3.375   2.297
17068WAT      O51445   2.373   7.901   8.613
17068WAT     H151446   2.433   7.855   8.547
17068WAT     H251447   2.279   7.871   8.599
17069WAT      O51448   9.766   6.340   6.006
17069WAT     H151449   9.788   6.319   5.911
17069WAT     H251450   9.833   6.296   6.066
17070WAT      O51451   4.075   5.727   0.681
17070WAT     H151452   4.168   5.730   0.645
17070WAT     H251453   4.025   5.808   0.651
17071WAT      O51454   4.705   4.831   0.985
17071WAT     H151455   4.622   4.777   0.968
17071WAT     H251456   4.682   4.928   0.986
17072WAT      O51457   3.512   3.741   3.084
17072WAT     H151458   3.576   3.702   3.151
17072WAT     H251459   3.557   3.815   3.035
17073WAT      O51460   4.788   2.484   3.887
17073WAT     H151461   4.718   2.426   3.844
17073WAT     H251462   4.846   2.524   3.817
17074WAT      O51463   1.966   5.445   0.218
17074WAT     H151464   2.029   5.515   0.252
17074WAT     H251465   2.018   5.369   0.177
17075WAT      O51466   9.853   4.967   6.344
17075WAT     H151467   9.919   4.902   6.382
17075WAT     H251468   9.767   4.920   6.326
17076WAT      O51469   0.707   6.187   8.287
17076WAT     H151470   0.692   6.117   8.217
17076WAT     H251471   0.669   6.156   8.374
17077WAT      O51472   8.827   6.988   0.480
17077WAT     H151473   8.878   7.053   0.423
17077WAT     H251474   8.862   6.993   0.574
17078WAT      O51475   7.383   2.619   3.291
17078WAT     H151476   7.444   2.540   3.303
17078WAT     H251477   7.308   2.593   3.231
17079WAT      O51478   2.480   1.082   3.749
17079WAT     H151479   2.516   1.166   3.791
17079WAT     H251480   2.555   1.029   3.711
17080WAT      O51481   8.867   3.950   0.485
17080WAT     H151482   8.839   3.854   0.485
17080WAT     H251483   8.966   3.956   0.499
17081WAT      O51484   1.248   0.792   1.371
17081WAT     H151485   1.246   0.694   1.353
17081WAT     H251486   1.155   0.826   1.381
17082WAT      O51487   5.019   1.524   1.091
17082WAT     H151488   4.979   1.481   1.010
17082WAT     H251489   5.005   1.623   1.087
17083WAT      O51490   5.875   5.746   3.564
17083WAT     H151491   5.930   5.766   3.482
17083WAT     H251492   5.791   5.700   3.536
17084WAT      O51493   4.696   0.219   0.497
17084WAT     H151494   4.639   0.177   0.568
17084WAT     H251495   4.638   0.256   0.425
17085WAT      O51496   9.352   1.395   9.648
17085WAT     H151497   9.450   1.408   9.636
17085WAT     H251498   9.304   1.414   9.562
17086WAT      O51499   8.972   6.198   3.577
17086WAT     H151500   9.035   6.241   3.642
17086WAT     H251501   8.879   6.201   3.614
17087WAT      O51502   8.649   0.844   4.921
17087WAT     H151503   8.727   0.788   4.893
17087WAT     H251504   8.648   0.850   5.021
17088WAT      O51505   4.194   5.855   2.120
17088WAT     H151506   4.264   5.926   2.106
17088WAT     H251507   4.183   5.838   2.218
17089WAT      O51508   1.007   6.920   6.474
17089WAT     H151509   0.982   7.007   6.517
17089WAT     H251510   1.018   6.935   6.375
17090WAT      O51511   1.199   6.229   7.606
17090WAT     H151512   1.143   6.251   7.527
17090WAT     H251513   1.163   6.277   7.687
17091WAT      O51514   6.830   9.786   0.937
17091WAT     H151515   6.834   9.688   0.915
17091WAT     H251516   6.821   9.839   0.852
17092WAT      O51517   5.441   8.678   4.189
17092WAT     H151518   5.436   8.641   4.097
17092WAT     H251519   5.393   8.765   4.193
17093WAT      O51520   5.342   7.608   6.252
17093WAT     H151521   5.387   7.671   6.315
17093WAT     H251522   5.243   7.618   6.261
17094WAT      O51523   7.942   2.169   9.610
17094WAT     H151524   7.859   2.114   9.605
17094WAT     H251525   7.990   2.150   9.696
17095WAT      O51526   0.828   9.122   4.522
17095WAT     H151527   0.795   9.180   4.596
17095WAT     H251528   0.826   9.173   4.436
17096WAT      O51529   4.366   0.697   8.856
17096WAT     H151530   4.442   0.758   8.879
17096WAT     H251531   4.370   0.675   8.758
17097WAT      O51532   7.739   4.281   7.924
17097WAT     H151533   7.807   4.331   7.977
17097WAT     H251534   7.760   4.183   7.925
17098WAT      O51535   0.765   1.070   0.624
17098WAT     H151536   0.823   1.065   0.706
17098WAT     H251537   0.687   1.009   0.635
17099WAT      O51538   2.337   5.014   6.035
17099WAT     H151539   2.256   4.960   6.058
17099WAT     H251540   2.319   5.066   5.952
17100WAT      O51541   2.926   0.463   5.322
17100WAT     H151542   2.985   0.382   5.328
17100WAT     H251543   2.862   0.452   5.247
17101WAT      O51544   6.749   2.247   9.130
17101WAT     H151545   6.662   2.212   9.097
17101WAT     H251546   6.788   2.183   9.197
17102WAT      O51547   0.208   2.890   4.981
17102WAT     H151548   0.114   2.858   4.970
17102WAT     H251549   0.243   2.920   4.892
17103WAT      O51550   3.114   2.395   3.258
17103WAT     H151551   3.150   2.386   3.351
17103WAT     H251552   3.186   2.372   3.193
17104WAT      O51553   0.705   8.751   0.214
17104WAT     H151554   0.634   8.720   0.150
17104WAT     H251555   0.754   8.829   0.175
17105WAT      O51556   1.905   7.099   8.862
17105WAT     H151557   1.932   7.152   8.781
17105WAT     H251558   1.853   7.158   8.924
17106WAT      O51559   0.823   3.292   0.553
17106WAT     H151560   0.851   3.386   0.533
17106WAT     H251561   0.904   3.237   0.574
17107WAT      O51562   3.623   1.934   5.723
17107WAT     H151563   3.666   2.014   5.681
17107WAT     H251564   3.535   1.917   5.679
17108WAT      O51565   3.879   7.723   1.851
17108WAT     H151566   3.962   7.693   1.897
17108WAT     H251567   3.803   7.727   1.916
17109WAT      O51568   2.686   4.928   2.573
17109WAT     H151569   2.785   4.921   2.569
17109WAT     H251570   2.659   5.024   2.578
17110WAT      O51571   4.975   2.579   0.980
17110WAT     H151572   4.939   2.514   0.913
17110WAT     H251573   5.034   2.531   1.045
17111WAT      O51574   9.249   3.668   4.668
17111WAT     H151575   9.202   3.642   4.753
17111WAT     H251576   9.279   3.586   4.620
17112WAT      O51577   7.042   7.505   6.170
17112WAT     H151578   7.014   7.431   6.232
17112WAT     H251579   7.062   7.587   6.224
17113WAT      O51580   1.370   0.327   6.208
17113WAT     H151581   1.426   0.281   6.138
17113WAT     H251582   1.362   0.424   6.186
17114WAT      O51583   4.619   7.672   0.085
17114WAT     H151584   4.612   7.633  -0.007
17114WAT     H251585   4.545   7.636   0.142
17115WAT      O51586   2.568   1.833   9.483
17115WAT     H151587   2.598   1.759   9.544
17115WAT     H251588   2.468   1.840   9.487
17116WAT      O51589   6.074   9.366   4.609
17116WAT     H151590   6.113   9.449   4.568
17116WAT     H251591   6.124   9.286   4.576
17117WAT      O51592   5.837   4.515   4.040
17117WAT     H151593   5.923   4.537   4.086
17117WAT     H251594   5.837   4.419   4.011
17118WAT      O51595   3.232   9.315   3.706
17118WAT     H151596   3.140   9.354   3.696
17118WAT     H251597   3.230   9.219   3.680
17119WAT      O51598   6.927   3.123   4.301
17119WAT     H151599   6.967   3.213   4.290
17119WAT     H251600   6.984   3.055   4.254
17120WAT      O51601   3.032   3.779   0.702
17120WAT     H151602   3.013   3.790   0.800
17120WAT     H251603   3.111   3.718   0.691
17121WAT      O51604   3.976   7.606   5.068
17121WAT     H151605   3.943   7.623   5.161
17121WAT     H251606   3.928   7.528   5.029
17122WAT      O51607   3.398   1.965   1.087
17122WAT     H151608   3.319   1.930   1.136
17122WAT     H251609   3.481   1.919   1.120
17123WAT      O51610   2.564   7.069   2.989
17123WAT     H151611   2.471   7.101   2.970
17123WAT     H251612   2.581   6.984   2.940
17124WAT      O51613   9.747   8.125   4.924
17124WAT     H151614   9.826   8.115   4.984
17124WAT     H251615   9.703   8.036   4.911
17125WAT      O51616   4.062   3.638   5.655
17125WAT     H151617   4.055   3.556   5.599
17125WAT     H251618   4.069   3.612   5.751
17126WAT      O51619   0.795   0.708   1.213
17126WAT     H151620   0.833   0.800   1.221
17126WAT     H251621   0.696   0.711   1.228
17127WAT      O51622   4.304   6.729   5.422
17127WAT     H151623   4.402   6.734   5.440
17127WAT     H251624   4.255   6.795   5.480
17128WAT      O51625   6.728   4.312   6.659
17128WAT     H151626   6.700   4.226   6.618
17128WAT     H251627   6.828   4.322   6.653
17129WAT      O51628   8.154   4.797   4.283
17129WAT     H151629   8.252   4.796   4.264
17129WAT     H251630   8.129   4.881   4.331
17130WAT      O51631   7.920   1.274   8.357
17130WAT     H151632   7.844   1.210   8.346
17130WAT     H251633   7.899   1.338   8.430
17131WAT      O51634   0.406   6.747   3.534
17131WAT     H151635   0.479   6.799   3.490
17131WAT     H251636   0.386   6.785   3.624
17132WAT      O51637   4.203   6.820   7.273
17132WAT     H151638   4.144   6.747   7.309
17132WAT     H251639   4.152   6.874   7.206
17133WAT      O51640   1.758   3.918   6.998
17133WAT     H151641   1.842   3.868   7.019
17133WAT     H251642   1.750   3.996   7.060
17134WAT      O51643   1.194   2.352   3.799
17134WAT     H151644   1.157   2.404   3.876
17134WAT     H251645   1.284   2.316   3.822
17135WAT      O51646   1.278   5.584   3.369
17135WAT     H151647   1.229   5.596   3.456
17135WAT     H251648   1.359   5.643   3.368
17136WAT      O51649   1.986   7.876   5.036
17136WAT     H151650   2.041   7.944   5.085
17136WAT     H251651   1.893   7.876   5.073
17137WAT      O51652   1.880   8.353   8.746
17137WAT     H151653   1.819   8.400   8.682
17137WAT     H251654   1.825   8.308   8.817
17138WAT      O51655   2.495   6.760   1.973
17138WAT     H151656   2.483   6.824   2.049
17138WAT     H251657   2.517   6.810   1.890
17139WAT      O51658   4.491   3.990   7.353
17139WAT     H151659   4.425   4.021   7.285
17139WAT     H251660   4.582   4.025   7.331
17140WAT      O51661   4.062   5.435   1.061
17140WAT     H151662   4.076   5.448   0.963
17140WAT     H251663   4.038   5.523   1.102
17141WAT      O51664   3.975   5.571   5.992
17141WAT     H151665   3.955   5.492   5.935
17141WAT     H251666   4.074   5.577   6.007
17142WAT      O51667   4.155   6.812   8.261
17142WAT     H151668   4.181   6.908   8.273
17142WAT     H251669   4.186   6.781   8.171
17143WAT      O51670   3.534   9.776   3.387
17143WAT     H151671   3.596   9.720   3.332
17143WAT     H251672   3.564   9.775   3.482
17144WAT      O51673   7.331   1.592   4.336
17144WAT     H151674   7.257   1.557   4.393
17144WAT     H251675   7.300   1.599   4.242
17145WAT      O51676   2.475   0.666   3.645
17145WAT     H151677   2.411   0.742   3.635
17145WAT     H251678   2.459   0.598   3.575
17146WAT      O51679   3.271   0.185   5.562
17146WAT     H151680   3.327   0.199   5.480
17146WAT     H251681   3.249   0.274   5.602
17147WAT      O51682   6.219   0.948   5.506
17147WAT     H151683   6.308   0.927   5.466
17147WAT     H251684   6.214   1.045   5.528
17148WAT      O51685   8.054   8.844   3.184
17148WAT     H151686   8.144   8.799   3.185
17148WAT     H251687   7.987   8.783   3.141
17149WAT      O51688   8.528   1.216   4.064
17149WAT     H151689   8.440   1.262   4.052
17149WAT     H251690   8.595   1.283   4.097
17150WAT      O51691   2.671   8.442   5.167
17150WAT     H151692   2.633   8.444   5.075
17150WAT     H251693   2.770   8.453   5.162
17151WAT      O51694   8.204   5.021   7.219
17151WAT     H151695   8.291   4.984   7.187
17151WAT     H251696   8.129   4.963   7.187
17152WAT      O51697   8.533   4.687   1.237
17152WAT     H151698   8.469   4.718   1.307
17152WAT     H251699   8.619   4.659   1.281
17153WAT      O51700   8.223   6.365   5.045
17153WAT     H151701   8.304   6.310   5.067
17153WAT     H251702   8.156   6.356   5.118
17154WAT      O51703   0.919   0.867   3.128
17154WAT     H151704   1.008   0.822   3.136
17154WAT     H251705   0.917   0.948   3.186
17155WAT      O51706   1.671   0.106   5.577
17155WAT     H151707   1.608   0.086   5.503
17155WAT     H251708   1.710   0.197   5.563
17156WAT      O51709   2.657   3.928   5.404
17156WAT     H151710   2.672   4.010   5.349
17156WAT     H251711   2.573   3.938   5.457
17157WAT      O51712   6.936   6.711   5.955
17157WAT     H151713   6.944   6.756   5.866
17157WAT     H251714   6.899   6.619   5.942
17158WAT      O51715   2.991   2.523   4.400
17158WAT     H151716   3.015   2.433   4.438
17158WAT     H251717   3.016   2.594   4.466
17159WAT      O51718   5.982   5.462   7.609
17159WAT     H151719   5.937   5.523   7.545
17159WAT     H251720   5.915   5.425   7.673
17160WAT      O51721   2.672   8.528   2.858
17160WAT     H151722   2.585   8.520   2.809
17160WAT     H251723   2.748   8.522   2.793
17161WAT      O51724   0.790   3.138   3.021
17161WAT     H151725   0.759   3.151   3.115
17161WAT     H251726   0.711   3.142   2.959
17162WAT      O51727   4.526   5.059   6.716
17162WAT     H151728   4.456   5.043   6.786
17162WAT     H251729   4.504   5.008   6.633
17163WAT      O51730   1.452   7.533   4.536
17163WAT     H151731   1.439   7.441   4.574
17163WAT     H251732   1.418   7.601   4.601
17164WAT      O51733   6.720   7.621   6.264
17164WAT     H151734   6.633   7.671   6.259
17164WAT     H251735   6.702   7.524   6.250
17165WAT      O51736   9.470   5.481   5.855
17165WAT     H151737   9.504   5.409   5.795
17165WAT     H251738   9.400   5.444   5.916
17166WAT      O51739   1.625   4.185   6.760
17166WAT     H151740   1.702   4.161   6.701
17166WAT     H251741   1.657   4.239   6.837
17167WAT      O51742   2.512   0.479   7.328
17167WAT     H151743   2.430   0.491   7.384
17167WAT     H251744   2.488   0.480   7.231
17168WAT      O51745   1.323   8.017   3.656
17168WAT     H151746   1.387   8.090   3.677
17168WAT     H251747   1.233   8.039   3.694
17169WAT      O51748   7.729   4.626   0.772
17169WAT     H151749   7.739   4.535   0.732
17169WAT     H251750   7.658   4.624   0.843
17170WAT      O51751   3.457   3.312   0.558
17170WAT     H151752   3.386   3.363   0.608
17170WAT     H251753   3.531   3.375   0.533
17171WAT      O51754   4.067   6.414   1.128
17171WAT     H151755   4.130   6.392   1.053
17171WAT     H251756   4.044   6.511   1.126
17172WAT      O51757   2.117   0.097   3.156
17172WAT     H151758   2.040   0.124   3.098
17172WAT     H251759   2.097   0.009   3.200
17173WAT      O51760   6.571   8.629   7.462
17173WAT     H151761   6.664   8.598   7.481
17173WAT     H251762   6.550   8.614   7.365
17174WAT      O51763   1.409   6.473   2.557
17174WAT     H151764   1.313   6.500   2.564
17174WAT     H251765   1.424   6.424   2.471
17175WAT      O51766   2.026   9.653   4.571
17175WAT     H151767   1.928   9.666   4.556
17175WAT     H251768   2.040   9.568   4.622
17176WAT      O51769   4.538   7.656   3.198
17176WAT     H151770   4.624   7.699   3.223
17176WAT     H251771   4.512   7.589   3.268
17177WAT      O51772   5.216   2.244   4.679
17177WAT     H151773   5.141   2.192   4.640
17177WAT     H251774   5.292   2.248   4.613
17178WAT      O51775   5.247   9.067   0.931
17178WAT     H151776   5.191   9.043   0.852
17178WAT     H251777   5.224   9.158   0.962
17179WAT      O51778   1.334   2.083   7.236
17179WAT     H151779   1.266   2.070   7.164
17179WAT     H251780   1.290   2.125   7.316
17180WAT      O51781   7.234   9.319   7.965
17180WAT     H151782   7.212   9.374   7.885
17180WAT     H251783   7.168   9.245   7.975
17181WAT      O51784   5.836   2.014   5.845
17181WAT     H151785   5.821   2.027   5.943
17181WAT     H251786   5.929   1.982   5.830
17182WAT      O51787   1.494   0.650   7.689
17182WAT     H151788   1.508   0.716   7.615
17182WAT     H251789   1.571   0.586   7.692
17183WAT      O51790   8.886   4.034   7.107
17183WAT     H151791   8.815   4.022   7.037
17183WAT     H251792   8.974   4.005   7.070
17184WAT      O51793   2.151   3.610   3.904
17184WAT     H151794   2.064   3.617   3.854
17184WAT     H251795   2.160   3.518   3.942
17185WAT      O51796   5.871   5.790   0.806
17185WAT     H151797   5.820   5.706   0.787
17185WAT     H251798   5.877   5.803   0.905
17186WAT      O51799   4.017   9.278   0.323
17186WAT     H151800   4.062   9.215   0.386
17186WAT     H251801   3.936   9.234   0.284
17187WAT      O51802   5.583   5.672   1.752
17187WAT     H151803   5.627   5.671   1.662
17187WAT     H251804   5.625   5.602   1.810
17188WAT      O51805   4.741   4.293   9.428
17188WAT     H151806   4.745   4.374   9.371
17188WAT     H251807   4.799   4.221   9.389
17189WAT      O51808   3.819   3.692   6.014
17189WAT     H151809   3.899   3.641   5.982
17189WAT     H251810   3.739   3.666   5.961
17190WAT      O51811   7.665   2.352   7.248
17190WAT     H151812   7.692   2.411   7.324
17190WAT     H251813   7.583   2.388   7.205
17191WAT      O51814   2.616   6.882   5.853
17191WAT     H151815   2.588   6.793   5.888
17191WAT     H251816   2.639   6.873   5.756
17192WAT      O51817   8.598   4.234   9.650
17192WAT     H151818   8.621   4.326   9.618
17192WAT     H251819   8.597   4.170   9.573
17193WAT      O51820   3.879   5.436   6.296
17193WAT     H151821   3.912   5.528   6.315
17193WAT     H251822   3.855   5.429   6.199
17194WAT      O51823   8.143   2.083   7.514
17194WAT     H151824   8.223   2.035   7.477
17194WAT     H251825   8.096   2.023   7.579
17195WAT      O51826   7.354   8.772   3.649
17195WAT     H151827   7.347   8.757   3.551
17195WAT     H251828   7.373   8.869   3.667
17196WAT      O51829   9.870   1.930   6.298
17196WAT     H151830   9.930   1.867   6.349
17196WAT     H251831   9.910   1.949   6.209
17197WAT      O51832   8.929   3.338   2.668
17197WAT     H151833   8.852   3.275   2.664
17197WAT     H251834   9.012   3.292   2.635
17198WAT      O51835   1.307   8.084   7.790
17198WAT     H151836   1.275   8.033   7.711
17198WAT     H251837   1.400   8.054   7.814
17199WAT      O51838   6.146   8.377   7.262
17199WAT     H151839   6.222   8.320   7.231
17199WAT     H251840   6.075   8.380   7.192
17200WAT      O51841   0.050   0.239   9.328
17200WAT     H151842   0.113   0.170   9.362
17200WAT     H251843   0.097   0.327   9.322
17201WAT      O51844   8.707   2.831   5.025
17201WAT     H151845   8.691   2.749   4.970
17201WAT     H251846   8.720   2.805   5.121
17202WAT      O51847   1.031   8.622   3.774
17202WAT     H151848   1.109   8.598   3.716
17202WAT     H251849   0.997   8.712   3.748
17203WAT      O51850   8.543   2.396   6.363
17203WAT     H151851   8.588   2.483   6.381
17203WAT     H251852   8.521   2.351   6.450
17204WAT      O51853   3.521   1.127   3.173
17204WAT     H151854   3.606   1.131   3.121
17204WAT     H251855   3.448   1.172   3.121
17205WAT      O51856   9.303   3.528   9.376
17205WAT     H151857   9.314   3.539   9.475
17205WAT     H251858   9.225   3.582   9.345
17206WAT      O51859   0.839   9.780   9.822
17206WAT     H151860   0.808   9.872   9.846
17206WAT     H251861   0.845   9.771   9.723
17207WAT      O51862   4.026   3.585   2.934
17207WAT     H151863   3.989   3.607   3.024
17207WAT     H251864   3.957   3.607   2.864
17208WAT      O51865   2.975   1.514   6.821
17208WAT     H151866   2.994   1.472   6.732
17208WAT     H251867   2.920   1.450   6.876
17209WAT      O51868   7.788   5.632   1.620
17209WAT     H151869   7.718   5.564   1.603
17209WAT     H251870   7.748   5.709   1.670
17210WAT      O51871   7.290   5.286   3.197
17210WAT     H151872   7.377   5.289   3.247
17210WAT     H251873   7.278   5.196   3.156
17211WAT      O51874   1.242   7.722   4.975
17211WAT     H151875   1.150   7.713   4.936
17211WAT     H251876   1.295   7.640   4.954
17212WAT      O51877   5.673   3.344   6.443
17212WAT     H151878   5.627   3.427   6.411
17212WAT     H251879   5.769   3.363   6.460
17213WAT      O51880   7.918   0.938   2.417
17213WAT     H151881   7.851   0.865   2.404
17213WAT     H251882   7.999   0.920   2.361
17214WAT      O51883   2.189   8.560   2.964
17214WAT     H151884   2.234   8.623   2.901
17214WAT     H251885   2.106   8.603   2.999
17215WAT      O51886   3.988   3.418   2.365
17215WAT     H151887   4.034   3.367   2.438
17215WAT     H251888   3.943   3.498   2.405
17216WAT      O51889   8.715   8.847   6.240
17216WAT     H151890   8.668   8.934   6.227
17216WAT     H251891   8.681   8.804   6.324
17217WAT      O51892   2.906   4.715   5.958
17217WAT     H151893   2.917   4.725   5.859
17217WAT     H251894   2.927   4.802   6.002
17218WAT      O51895   5.199   5.425   7.970
17218WAT     H151896   5.216   5.422   8.068
17218WAT     H251897   5.201   5.332   7.932
17219WAT      O51898   7.444   9.217   5.743
17219WAT     H151899   7.388   9.299   5.733
17219WAT     H251900   7.398   9.140   5.698
17220WAT      O51901   9.759   4.983   0.001
17220WAT     H151902   9.667   5.018   0.019
17220WAT     H251903   9.788   4.926   0.078
17221WAT      O51904   9.118   4.029   8.823
17221WAT     H151905   9.030   4.035   8.776
17221WAT     H251906   9.189   4.004   8.757
17222WAT      O51907   5.507   4.944   2.245
17222WAT     H151908   5.498   5.042   2.263
17222WAT     H251909   5.568   4.903   2.313
17223WAT      O51910   3.410   1.343   8.873
17223WAT     H151911   3.417   1.271   8.804
17223WAT     H251912   3.334   1.404   8.850
17224WAT      O51913   7.610   6.198   4.310
17224WAT     H151914   7.591   6.278   4.253
17224WAT     H251915   7.545   6.195   4.386
17225WAT      O51916   5.617   6.857   7.608
17225WAT     H151917   5.684   6.846   7.682
17225WAT     H251918   5.525   6.866   7.647
17226WAT      O51919   9.479   1.580   0.025
17226WAT     H151920   9.575   1.584  -0.003
17226WAT     H251921   9.472   1.603   0.122
17227WAT      O51922   3.524   1.134   6.099
17227WAT     H151923   3.534   1.175   6.008
17227WAT     H251924   3.481   1.200   6.161
17228WAT      O51925   2.583   1.524   1.357
17228WAT     H151926   2.521   1.465   1.305
17228WAT     H251927   2.665   1.543   1.302
17229WAT      O51928   7.872   1.568   9.268
17229WAT     H151929   7.773   1.571   9.280
17229WAT     H251930   7.893   1.513   9.186
17230WAT      O51931   8.294   8.247   6.037
17230WAT     H151932   8.208   8.296   6.053
17230WAT     H251933   8.340   8.286   5.957
17231WAT      O51934   8.613   1.189   7.251
17231WAT     H151935   8.708   1.169   7.228
17231WAT     H251936   8.583   1.271   7.202
17232WAT      O51937   1.503   4.894   4.007
17232WAT     H151938   1.546   4.983   4.023
17232WAT     H251939   1.573   4.823   4.001
17233WAT      O51940   9.382   7.236   7.902
17233WAT     H151941   9.341   7.323   7.929
17233WAT     H251942   9.311   7.167   7.894
17234WAT      O51943   5.002   5.875   5.073
17234WAT     H151944   4.906   5.899   5.088
17234WAT     H251945   5.037   5.828   5.154
17235WAT      O51946   3.802   7.712   2.981
17235WAT     H151947   3.884   7.670   2.942
17235WAT     H251948   3.738   7.642   3.010
17236WAT      O51949   0.336   6.967   6.205
17236WAT     H151950   0.374   7.009   6.287
17236WAT     H251951   0.238   6.954   6.216
17237WAT      O51952   4.881   2.244   3.983
17237WAT     H151953   4.847   2.335   3.959
17237WAT     H251954   4.804   2.185   4.007
17238WAT      O51955   1.163   8.087   4.809
17238WAT     H151956   1.188   8.183   4.817
17238WAT     H251957   1.236   8.030   4.847
17239WAT      O51958   7.531   9.608   3.673
17239WAT     H151959   7.508   9.536   3.607
17239WAT     H251960   7.622   9.589   3.712
17240WAT      O51961   5.446   6.416   4.012
17240WAT     H151962   5.436   6.320   3.986
17240WAT     H251963   5.469   6.470   3.931
17241WAT      O51964   3.139   7.978   2.702
17241WAT     H151965   3.146   8.004   2.798
17241WAT     H251966   3.079   7.898   2.693
17242WAT      O51967   7.577   6.669   8.669
17242WAT     H151968   7.625   6.650   8.755
17242WAT     H251969   7.638   6.650   8.592
17243WAT      O51970   5.760   3.575   0.022
17243WAT     H151971   5.813   3.492   0.037
17243WAT     H251972   5.803   3.629  -0.050
17244WAT      O51973   6.578   0.722   6.049
17244WAT     H151974   6.621   0.632   6.046
17244WAT     H251975   6.585   0.765   5.959
17245WAT      O51976   2.420   4.870   8.478
17245WAT     H151977   2.348   4.814   8.437
17245WAT     H251978   2.483   4.812   8.529
17246WAT      O51979   9.374   7.241   2.422
17246WAT     H151980   9.362   7.331   2.381
17246WAT     H251981   9.327   7.172   2.367
17247WAT      O51982   3.264   0.210   1.851
17247WAT     H151983   3.221   0.170   1.932
17247WAT     H251984   3.361   0.186   1.850
17248WAT      O51985   6.600   6.962   6.184
17248WAT     H151986   6.606   6.889   6.115
17248WAT     H251987   6.641   6.930   6.269
17249WAT      O51988   7.831   0.863   3.627
17249WAT     H151989   7.829   0.854   3.726
17249WAT     H251990   7.740   0.890   3.595
17250WAT      O51991   4.103   0.228   2.921
17250WAT     H151992   4.152   0.189   2.999
17250WAT     H251993   4.042   0.159   2.882
17251WAT      O51994   0.352   1.921   4.633
17251WAT     H151995   0.253   1.905   4.637
17251WAT     H251996   0.369   2.010   4.591
17252WAT      O51997   0.421   9.215   1.001
17252WAT     H151998   0.401   9.312   1.020
17252WAT     H251999   0.369   9.158   1.065
17253WAT      O52000   2.663   4.506   0.327
17253WAT     H152001   2.660   4.491   0.425
17253WAT     H252002   2.753   4.480   0.291
17254WAT      O52003   1.533   5.158   5.809
17254WAT     H152004   1.620   5.202   5.788
17254WAT     H252005   1.471   5.168   5.732
17255WAT      O52006   3.258   5.429   1.888
17255WAT     H152007   3.216   5.379   1.812
17255WAT     H252008   3.191   5.439   1.962
17256WAT      O52009   3.122   6.674   3.686
17256WAT     H152010   3.137   6.735   3.608
17256WAT     H252011   3.091   6.727   3.765
17257WAT      O52012   8.065   0.958   8.167
17257WAT     H152013   8.026   0.884   8.222
17257WAT     H252014   8.002   0.980   8.092
17258WAT      O52015   3.443   2.012   6.986
17258WAT     H152016   3.384   2.077   6.938
17258WAT     H252017   3.512   1.976   6.923
17259WAT      O52018   3.343   5.830   3.733
17259WAT     H152019   3.404   5.879   3.796
17259WAT     H252020   3.364   5.857   3.639
17260WAT      O52021   6.673   6.128   7.173
17260WAT     H152022   6.681   6.033   7.143
17260WAT     H252023   6.701   6.189   7.099
17261WAT      O52024   4.575   4.981   8.358
17261WAT     H152025   4.618   4.894   8.379
17261WAT     H252026   4.629   5.030   8.289
17262WAT      O52027   7.811   1.860   8.639
17262WAT     H152028   7.738   1.921   8.605
17262WAT     H252029   7.896   1.880   8.591
17263WAT      O52030   5.965   2.965   9.382
17263WAT     H152031   6.041   2.900   9.374
17263WAT     H252032   5.968   3.008   9.473
17264WAT      O52033   4.463   6.410   3.957
17264WAT     H152034   4.560   6.392   3.945
17264WAT     H252035   4.448   6.509   3.964
17265WAT      O52036   1.358   8.216   7.481
17265WAT     H152037   1.429   8.248   7.544
17265WAT     H252038   1.294   8.291   7.463
17266WAT      O52039   1.998   8.233   6.591
17266WAT     H152040   1.945   8.214   6.674
17266WAT     H252041   2.090   8.196   6.602
17267WAT      O52042   3.396   7.258   1.820
17267WAT     H152043   3.392   7.238   1.722
17267WAT     H252044   3.484   7.298   1.842
17268WAT      O52045   2.311   2.064   5.228
17268WAT     H152046   2.391   2.024   5.275
17268WAT     H252047   2.311   2.163   5.241
17269WAT      O52048   1.066   3.392   6.314
17269WAT     H152049   1.122   3.413   6.394
17269WAT     H252050   1.078   3.464   6.245
17270WAT      O52051   5.291   3.329   2.573
17270WAT     H152052   5.370   3.390   2.560
17270WAT     H252053   5.282   3.306   2.670
17271WAT      O52054   9.065   6.754   6.492
17271WAT     H152055   8.994   6.791   6.432
17271WAT     H252056   9.071   6.655   6.479
17272WAT      O52057   2.600   8.253   7.408
17272WAT     H152058   2.592   8.207   7.320
17272WAT     H252059   2.684   8.307   7.411
17273WAT      O52060   1.576   2.226   4.779
17273WAT     H152061   1.644   2.289   4.742
17273WAT     H252062   1.605   2.196   4.870
17274WAT      O52063   0.123   0.126   8.867
17274WAT     H152064   0.069   0.119   8.950
17274WAT     H252065   0.062   0.140   8.789
17275WAT      O52066   2.024   4.514   9.016
17275WAT     H152067   1.981   4.425   8.999
17275WAT     H252068   2.057   4.553   8.930
17276WAT      O52069   7.724   4.979   1.001
17276WAT     H152070   7.638   5.021   1.028
17276WAT     H252071   7.748   5.009   0.908
17277WAT      O52072   2.191   5.873   4.747
17277WAT     H152073   2.174   5.776   4.764
17277WAT     H252074   2.287   5.888   4.724
17278WAT      O52075   5.698   5.206   1.427
17278WAT     H152076   5.622   5.262   1.462
17278WAT     H252077   5.755   5.177   1.504
17279WAT      O52078   7.554   1.737   5.375
17279WAT     H152079   7.568   1.820   5.429
17279WAT     H252080   7.509   1.761   5.289
17280WAT      O52081   0.868   5.710   0.122
17280WAT     H152082   0.847   5.808   0.127
17280WAT     H252083   0.814   5.669   0.048
17281WAT      O52084   7.460   5.353   6.924
17281WAT     H152085   7.543   5.392   6.962
17281WAT     H252086   7.439   5.267   6.972
17282WAT      O52087   1.105   7.597   8.697
17282WAT     H152088   1.051   7.662   8.750
17282WAT     H252089   1.177   7.559   8.756
17283WAT      O52090   9.072   3.713   9.085
17283WAT     H152091   8.986   3.694   9.133
17283WAT     H252092   9.115   3.627   9.059
17284WAT      O52093   0.789   5.440   8.476
17284WAT     H152094   0.704   5.493   8.476
17284WAT     H252095   0.786   5.372   8.549
17285WAT      O52096   6.736   3.213   6.633
17285WAT     H152097   6.771   3.123   6.659
17285WAT     H252098   6.666   3.203   6.562
17286WAT      O52099   7.933   9.820   3.687
17286WAT     H152100   7.991   9.898   3.661
17286WAT     H252101   7.897   9.777   3.604
17287WAT      O52102   2.850   5.548   2.284
17287WAT     H152103   2.865   5.537   2.382
17287WAT     H252104   2.775   5.488   2.255
17288WAT      O52105   3.763   1.383   4.555
17288WAT     H152106   3.690   1.338   4.504
17288WAT     H252107   3.786   1.469   4.511
17289WAT      O52108   1.212   1.597   7.749
17289WAT     H152109   1.270   1.650   7.687
17289WAT     H252110   1.267   1.532   7.800
17290WAT      O52111   0.936   8.765   2.210
17290WAT     H152112   0.889   8.850   2.235
17290WAT     H252113   0.870   8.691   2.202
17291WAT      O52114   0.818   1.459   4.738
17291WAT     H152115   0.878   1.389   4.778
17291WAT     H252116   0.794   1.526   4.809
17292WAT      O52117   7.107   9.001   6.146
17292WAT     H152118   7.182   9.029   6.085
17292WAT     H252119   7.026   8.981   6.091
17293WAT      O52120   1.221   1.190   5.843
17293WAT     H152121   1.290   1.118   5.847
17293WAT     H252122   1.213   1.233   5.933
17294WAT      O52123   3.329   4.916   2.916
17294WAT     H152124   3.325   4.969   3.001
17294WAT     H252125   3.388   4.837   2.928
17295WAT      O52126   7.587   6.280   4.982
17295WAT     H152127   7.492   6.290   4.955
17295WAT     H252128   7.647   6.321   4.914
17296WAT      O52129   7.248   6.115   7.225
17296WAT     H152130   7.239   6.017   7.242
17296WAT     H252131   7.329   6.132   7.169
17297WAT      O52132   4.126   3.774   0.128
17297WAT     H152133   4.091   3.725   0.048
17297WAT     H252134   4.208   3.826   0.103
17298WAT      O52135   4.902   7.894   6.365
17298WAT     H152136   4.891   7.986   6.327
17298WAT     H252137   4.918   7.901   6.464
17299WAT      O52138   8.353   4.635   4.550
17299WAT     H152139   8.377   4.669   4.459
17299WAT     H252140   8.258   4.658   4.570
17300WAT      O52141   8.733   1.559   2.354
17300WAT     H152142   8.825   1.549   2.316
17300WAT     H252143   8.668   1.508   2.298
17301WAT      O52144   7.358   2.870   2.589
17301WAT     H152145   7.292   2.931   2.545
17301WAT     H252146   7.312   2.815   2.658
17302WAT      O52147   9.055   0.867   8.471
17302WAT     H152148   9.113   0.820   8.538
17302WAT     H252149   9.110   0.890   8.390
17303WAT      O52150   4.594   6.392   3.008
17303WAT     H152151   4.625   6.474   3.056
17303WAT     H252152   4.669   6.327   3.001
17304WAT      O52153   9.395   8.524   6.079
17304WAT     H152154   9.319   8.578   6.116
17304WAT     H252155   9.396   8.434   6.123
17305WAT      O52156   8.549   9.554   5.696
17305WAT     H152157   8.645   9.552   5.724
17305WAT     H252158   8.543   9.587   5.602
17306WAT      O52159   5.016   2.437   8.745
17306WAT     H152160   5.067   2.398   8.822
17306WAT     H252161   4.990   2.364   8.681
17307WAT      O52162   0.137   4.922   1.582
17307WAT     H152163   0.059   4.865   1.607
17307WAT     H252164   0.108   4.994   1.519
17308WAT      O52165   1.051   6.874   8.850
17308WAT     H152166   1.136   6.869   8.797
17308WAT     H252167   1.073   6.874   8.947
17309WAT      O52168   3.983   3.207   5.760
17309WAT     H152169   4.012   3.269   5.687
17309WAT     H252170   4.032   3.230   5.845
17310WAT      O52171   1.925   2.689   9.809
17310WAT     H152172   1.961   2.603   9.845
17310WAT     H252173   1.995   2.734   9.753
17311WAT      O52174   4.868   6.152   6.662
17311WAT     H152175   4.859   6.208   6.744
17311WAT     H252176   4.918   6.202   6.592
17312WAT      O52177   5.344   4.677   7.722
17312WAT     H152178   5.317   4.772   7.741
17312WAT     H252179   5.361   4.630   7.808
17313WAT      O52180   5.778   7.926   1.252
17313WAT     H152181   5.814   7.955   1.341
17313WAT     H252182   5.689   7.881   1.266
17314WAT      O52183   2.478   1.784   6.900
17314WAT     H152184   2.540   1.861   6.912
17314WAT     H252185   2.385   1.812   6.926
17315WAT      O52186   1.031   3.648   5.895
17315WAT     H152187   1.003   3.700   5.814
17315WAT     H252188   1.063   3.558   5.867
17316WAT      O52189   9.370   4.871   4.130
17316WAT     H152190   9.410   4.835   4.045
17316WAT     H252191   9.362   4.798   4.197
17317WAT      O52192   8.024   2.596   5.936
17317WAT     H152193   7.977   2.515   5.971
17317WAT     H252194   7.960   2.654   5.886
17318WAT      O52195   2.832   1.116   0.301
17318WAT     H152196   2.900   1.083   0.236
17318WAT     H252197   2.879   1.155   0.381
17319WAT      O52198   5.426   4.006   7.927
17319WAT     H152199   5.346   4.014   7.869
17319WAT     H252200   5.487   3.935   7.891
17320WAT      O52201   8.491   4.613   5.938
17320WAT     H152202   8.415   4.620   5.873
17320WAT     H252203   8.571   4.574   5.891
17321WAT      O52204   2.689   3.241   8.212
17321WAT     H152205   2.650   3.261   8.301
17321WAT     H252206   2.643   3.297   8.142
17322WAT      O52207   6.053   4.813   9.748
17322WAT     H152208   6.046   4.729   9.693
17322WAT     H252209   5.962   4.845   9.770
17323WAT      O52210   6.047   3.307   8.450
17323WAT     H152211   6.080   3.392   8.491
17323WAT     H252212   6.122   3.241   8.446
17324WAT      O52213   4.043   0.817   4.216
17324WAT     H152214   4.043   0.849   4.122
17324WAT     H252215   4.055   0.895   4.278
17325WAT      O52216   4.905   4.682   1.373
17325WAT     H152217   4.827   4.743   1.357
17325WAT     H252218   4.969   4.724   1.437
17326WAT      O52219   6.559   9.045   8.374
17326WAT     H152220   6.519   9.064   8.464
17326WAT     H252221   6.490   9.000   8.317
17327WAT      O52222   2.806   1.678   8.214
17327WAT     H152223   2.890   1.628   8.237
17327WAT     H252224   2.789   1.670   8.116
17328WAT      O52225   0.357   9.432   1.388
17328WAT     H152226   0.389   9.503   1.451
17328WAT     H252227   0.433   9.373   1.363
17329WAT      O52228   6.865   7.514   4.726
17329WAT     H152229   6.831   7.606   4.710
17329WAT     H252230   6.859   7.461   4.642
17330WAT      O52231   0.080   4.469   2.448
17330WAT     H152232   0.161   4.470   2.507
17330WAT     H252233   0.040   4.377   2.448
17331WAT      O52234   2.391   8.016   2.019
17331WAT     H152235   2.460   8.080   1.984
17331WAT     H252236   2.320   8.004   1.951
17332WAT      O52237   8.415   4.226   5.371
17332WAT     H152238   8.351   4.272   5.310
17332WAT     H252239   8.496   4.284   5.385
17333WAT      O52240   3.258   5.123   2.278
17333WAT     H152241   3.322   5.067   2.330
17333WAT     H252242   3.237   5.207   2.329
17334WAT      O52243   9.771   4.153   2.266
17334WAT     H152244   9.818   4.147   2.354
17334WAT     H252245   9.696   4.088   2.263
17335WAT      O52246   1.238   7.964   8.142
17335WAT     H152247   1.232   8.061   8.121
17335WAT     H252248   1.286   7.952   8.229
17336WAT      O52249   7.803   2.521   0.207
17336WAT     H152250   7.813   2.460   0.286
17336WAT     H252251   7.718   2.500   0.159
17337WAT      O52252   9.675   4.173   4.304
17337WAT     H152253   9.680   4.241   4.376
17337WAT     H252254   9.746   4.192   4.235
17338WAT      O52255   8.472   6.501   2.256
17338WAT     H152256   8.541   6.451   2.307
17338WAT     H252257   8.447   6.584   2.304
17339WAT      O52258   0.266   6.167   8.644
17339WAT     H152259   0.272   6.109   8.724
17339WAT     H252260   0.278   6.263   8.671
17340WAT      O52261   5.119   9.094   3.117
17340WAT     H152262   5.132   9.189   3.145
17340WAT     H252263   5.026   9.066   3.140
17341WAT      O52264   0.638   2.151   5.434
17341WAT     H152265   0.626   2.059   5.395
17341WAT     H252266   0.652   2.216   5.359
17342WAT      O52267   4.240   8.935   9.324
17342WAT     H152268   4.323   8.926   9.269
17342WAT     H252269   4.263   8.921   9.421
17343WAT      O52270   8.631   2.891   7.505
17343WAT     H152271   8.611   2.885   7.407
17343WAT     H252272   8.549   2.869   7.558
17344WAT      O52273   1.794   7.926   5.417
17344WAT     H152274   1.773   7.923   5.515
17344WAT     H252275   1.888   7.895   5.402
17345WAT      O52276   8.430   0.778   8.447
17345WAT     H152277   8.525   0.800   8.469
17345WAT     H252278   8.387   0.735   8.525
17346WAT      O52279   8.862   1.780   6.521
17346WAT     H152280   8.860   1.694   6.469
17346WAT     H252281   8.775   1.791   6.569
17347WAT      O52282   7.180   0.440   7.615
17347WAT     H152283   7.279   0.448   7.626
17347WAT     H252284   7.156   0.344   7.601
17348WAT      O52285   7.224   3.909   5.527
17348WAT     H152286   7.225   3.827   5.584
17348WAT     H252287   7.318   3.935   5.505
17349WAT      O52288   9.281   8.446   6.429
17349WAT     H152289   9.273   8.348   6.409
17349WAT     H252290   9.240   8.498   6.354
17350WAT      O52291   2.604   1.252   1.214
17350WAT     H152292   2.677   1.236   1.148
17350WAT     H252293   2.517   1.260   1.167
17351WAT      O52294   2.821   7.853   6.285
17351WAT     H152295   2.803   7.804   6.371
17351WAT     H252296   2.761   7.932   6.278
17352WAT      O52297   2.216   9.403   1.169
17352WAT     H152298   2.301   9.372   1.214
17352WAT     H252299   2.197   9.345   1.090
17353WAT      O52300   5.917   8.826   8.877
17353WAT     H152301   5.945   8.817   8.973
17353WAT     H252302   5.978   8.772   8.819
17354WAT      O52303   1.748   7.015   3.405
17354WAT     H152304   1.842   7.031   3.435
17354WAT     H252305   1.714   7.096   3.357
17355WAT      O52306   0.984   4.820   5.827
17355WAT     H152307   0.944   4.773   5.906
17355WAT     H252308   1.084   4.819   5.835
17356WAT      O52309   0.673   5.258   6.104
17356WAT     H152310   0.693   5.167   6.069
17356WAT     H252311   0.754   5.295   6.149
17357WAT      O52312   5.052   0.330   3.067
17357WAT     H152313   4.985   0.341   3.140
17357WAT     H252314   5.118   0.259   3.092
17358WAT      O52315   0.012   4.245   3.774
17358WAT     H152316  -0.070   4.190   3.760
17358WAT     H252317   0.087   4.185   3.805
17359WAT      O52318   6.739   8.062   5.928
17359WAT     H152319   6.795   8.105   5.999
17359WAT     H252320   6.760   7.964   5.925
17360WAT      O52321   1.483   8.232   3.692
17360WAT     H152322   1.541   8.302   3.733
17360WAT     H252323   1.480   8.245   3.593
17361WAT      O52324   8.416   1.640   6.800
17361WAT     H152325   8.321   1.657   6.823
17361WAT     H252326   8.422   1.557   6.744
17362WAT      O52327   4.919   5.366   1.248
17362WAT     H152328   4.914   5.458   1.211
17362WAT     H252329   4.849   5.354   1.318
17363WAT      O52330   8.052   8.586   7.430
17363WAT     H152331   8.128   8.530   7.465
17363WAT     H252332   8.000   8.532   7.364
17364WAT      O52333   2.571   0.733   0.106
17364WAT     H152334   2.606   0.652   0.059
17364WAT     H252335   2.492   0.707   0.162
17365WAT      O52336   9.492   2.536   3.497
17365WAT     H152337   9.499   2.462   3.564
17365WAT     H252338   9.425   2.603   3.530
17366WAT      O52339   3.712   4.458   0.470
17366WAT     H152340   3.691   4.510   0.553
17366WAT     H252341   3.670   4.503   0.391
17367WAT      O52342   4.931   3.004   6.594
17367WAT     H152343   4.923   2.930   6.660
17367WAT     H252344   4.859   2.996   6.525
17368WAT      O52345   9.272   6.235   6.887
17368WAT     H152346   9.333   6.303   6.845
17368WAT     H252347   9.206   6.282   6.945
17369WAT      O52348   6.232   3.097   3.182
17369WAT     H152349   6.267   3.153   3.257
17369WAT     H252350   6.136   3.119   3.166
17370WAT      O52351   0.476   1.939   9.880
17370WAT     H152352   0.520   2.027   9.901
17370WAT     H252353   0.382   1.941   9.915
17371WAT      O52354   2.777   5.419   0.638
17371WAT     H152355   2.827   5.459   0.561
17371WAT     H252356   2.728   5.338   0.607
17372WAT      O52357   9.030   8.208   0.666
17372WAT     H152358   8.950   8.224   0.724
17372WAT     H252359   9.108   8.259   0.703
17373WAT      O52360   8.053   2.559   2.217
17373WAT     H152361   8.045   2.628   2.289
17373WAT     H252362   7.962   2.535   2.183
17374WAT      O52363   1.407   0.823   5.301
17374WAT     H152364   1.478   0.753   5.298
17374WAT     H252365   1.418   0.878   5.384
17375WAT      O52366   5.082   9.611   8.792
17375WAT     H152367   5.083   9.594   8.693
17375WAT     H252368   5.045   9.531   8.840
17376WAT      O52369   6.313   0.995   8.501
17376WAT     H152370   6.262   0.915   8.471
17376WAT     H252371   6.292   1.013   8.597
17377WAT      O52372   5.748   9.444   9.848
17377WAT     H152373   5.763   9.466   9.944
17377WAT     H252374   5.718   9.526   9.799
17378WAT      O52375   0.370   4.326   7.543
17378WAT     H152376   0.354   4.405   7.602
17378WAT     H252377   0.464   4.294   7.554
17379WAT      O52378   2.689   4.312   8.248
17379WAT     H152379   2.685   4.274   8.156
17379WAT     H252380   2.602   4.355   8.271
17380WAT      O52381   1.597   1.846   6.518
17380WAT     H152382   1.660   1.874   6.445
17380WAT     H252383   1.538   1.773   6.483
17381WAT      O52384   8.697   7.743   9.086
17381WAT     H152385   8.714   7.773   9.180
17381WAT     H252386   8.602   7.765   9.061
17382WAT      O52387   2.567   6.326   7.818
17382WAT     H152388   2.502   6.327   7.894
17382WAT     H252389   2.583   6.419   7.786
17383WAT      O52390   0.601   4.547   6.661
17383WAT     H152391   0.660   4.613   6.614
17383WAT     H252392   0.628   4.454   6.636
17384WAT      O52393   2.280   4.963   9.294
17384WAT     H152394   2.215   4.967   9.218
17384WAT     H252395   2.230   4.964   9.381
17385WAT      O52396   3.492   2.396   2.775
17385WAT     H152397   3.495   2.487   2.732
17385WAT     H252398   3.562   2.391   2.846
17386WAT      O52399   3.986   1.093   0.595
17386WAT     H152400   4.056   1.164   0.602
17386WAT     H252401   3.898   1.135   0.572
17387WAT      O52402   1.050   2.540   2.224
17387WAT     H152403   0.986   2.527   2.299
17387WAT     H252404   1.117   2.466   2.224
17388WAT      O52405   1.926   6.974   1.136
17388WAT     H152406   1.915   6.957   1.234
17388WAT     H252407   1.835   6.981   1.094
17389WAT      O52408   0.593   1.651   4.306
17389WAT     H152409   0.644   1.704   4.238
17389WAT     H252410   0.570   1.710   4.383
17390WAT      O52411   6.382   4.741   3.089
17390WAT     H152412   6.438   4.738   3.006
17390WAT     H252413   6.308   4.808   3.077
17391WAT      O52414   2.188   0.241   4.275
17391WAT     H152415   2.167   0.196   4.362
17391WAT     H252416   2.110   0.231   4.213
17392WAT      O52417   7.180   0.676   5.836
17392WAT     H152418   7.246   0.744   5.867
17392WAT     H252419   7.087   0.708   5.857
17393WAT      O52420   4.577   3.837   4.974
17393WAT     H152421   4.516   3.889   4.913
17393WAT     H252422   4.529   3.755   5.006
17394WAT      O52423   7.191   5.075   3.913
17394WAT     H152424   7.270   5.033   3.957
17394WAT     H252425   7.123   5.005   3.892
17395WAT      O52426   9.625   9.301   1.838
17395WAT     H152427   9.562   9.378   1.831
17395WAT     H252428   9.710   9.324   1.790
17396WAT      O52429   9.719   0.620   8.907
17396WAT     H152430   9.702   0.526   8.935
17396WAT     H252431   9.778   0.665   8.974
17397WAT      O52432   2.071   7.482   9.224
17397WAT     H152433   2.030   7.396   9.255
17397WAT     H252434   1.999   7.546   9.198
17398WAT      O52435   2.959   2.381   6.549
17398WAT     H152436   2.927   2.390   6.455
17398WAT     H252437   2.908   2.308   6.594
17399WAT      O52438   2.127   7.372   0.151
17399WAT     H152439   2.094   7.282   0.180
17399WAT     H252440   2.226   7.368   0.139
17400WAT      O52441   5.889   5.788   1.079
17400WAT     H152442   5.904   5.693   1.107
17400WAT     H252443   5.965   5.845   1.109
17401WAT      O52444   3.784   5.021   4.983
17401WAT     H152445   3.773   4.975   5.071
17401WAT     H252446   3.873   4.998   4.944
17402WAT      O52447   7.420   5.622   0.449
17402WAT     H152448   7.429   5.569   0.534
17402WAT     H252449   7.368   5.569   0.382
17403WAT      O52450   2.345   8.760   0.550
17403WAT     H152451   2.362   8.661   0.546
17403WAT     H252452   2.265   8.777   0.607
17404WAT      O52453   8.694   2.726   9.037
17404WAT     H152454   8.786   2.699   9.065
17404WAT     H252455   8.664   2.668   8.961
17405WAT      O52456   9.179   7.754   6.265
17405WAT     H152457   9.256   7.724   6.209
17405WAT     H252458   9.150   7.680   6.325
17406WAT      O52459   3.042   0.558   2.567
17406WAT     H152460   3.029   0.639   2.624
17406WAT     H252461   3.138   0.531   2.566
17407WAT      O52462   3.071   6.799   1.767
17407WAT     H152463   3.158   6.780   1.812
17407WAT     H252464   3.083   6.876   1.704
17408WAT      O52465   6.387   3.268   2.784
17408WAT     H152466   6.417   3.214   2.863
17408WAT     H252467   6.311   3.326   2.811
17409WAT      O52468   9.194   0.771   6.474
17409WAT     H152469   9.273   0.832   6.475
17409WAT     H252470   9.214   0.690   6.529
17410WAT      O52471   4.523   8.936   9.276
17410WAT     H152472   4.527   9.001   9.352
17410WAT     H252473   4.601   8.951   9.215
17411WAT      O52474   7.414   3.678   8.909
17411WAT     H152475   7.510   3.704   8.898
17411WAT     H252476   7.406   3.607   8.979
17412WAT      O52477   4.490   6.813   4.329
17412WAT     H152478   4.555   6.740   4.306
17412WAT     H252479   4.440   6.788   4.412
17413WAT      O52480   8.765   1.570   5.618
17413WAT     H152481   8.843   1.547   5.676
17413WAT     H252482   8.778   1.530   5.528
17414WAT      O52483   0.831   3.534   0.019
17414WAT     H152484   0.857   3.630   0.032
17414WAT     H252485   0.762   3.527  -0.053
17415WAT      O52486   6.884   2.925   4.932
17415WAT     H152487   6.944   2.867   4.987
17415WAT     H252488   6.935   2.963   4.855
17416WAT      O52489   7.792   3.558   7.845
17416WAT     H152490   7.820   3.639   7.793
17416WAT     H252491   7.868   3.528   7.903
17417WAT      O52492   3.345   6.213   8.831
17417WAT     H152493   3.379   6.281   8.895
17417WAT     H252494   3.356   6.247   8.737
17418WAT      O52495   7.265   9.812   4.511
17418WAT     H152496   7.363   9.794   4.499
17418WAT     H252497   7.253   9.886   4.578
17419WAT      O52498   3.964   9.699   5.280
17419WAT     H152499   3.967   9.720   5.377
17419WAT     H252500   4.000   9.775   5.227
17420WAT      O52501   6.557   8.826   0.262
17420WAT     H152502   6.475   8.783   0.299
17420WAT     H252503   6.599   8.883   0.332
17421WAT      O52504   5.808   6.155   2.507
17421WAT     H152505   5.816   6.253   2.524
17421WAT     H252506   5.782   6.108   2.591
17422WAT      O52507   4.148   5.675   7.283
17422WAT     H152508   4.164   5.577   7.275
17422WAT     H252509   4.236   5.723   7.280
17423WAT      O52510   8.900   9.626   6.359
17423WAT     H152511   8.995   9.602   6.378
17423WAT     H252512   8.892   9.661   6.265
17424WAT      O52513   1.605   5.241   2.636
17424WAT     H152514   1.676   5.302   2.670
17424WAT     H252515   1.596   5.254   2.537
17425WAT      O52516   3.773   2.303   4.825
17425WAT     H152517   3.831   2.262   4.754
17425WAT     H252518   3.830   2.359   4.886
17426WAT      O52519   9.461   9.108   2.674
17426WAT     H152520   9.389   9.144   2.614
17426WAT     H252521   9.533   9.177   2.684
17427WAT      O52522   6.894   2.278   2.816
17427WAT     H152523   6.831   2.241   2.749
17427WAT     H252524   6.918   2.207   2.882
17428WAT      O52525   6.234   5.386   8.173
17428WAT     H152526   6.183   5.390   8.087
17428WAT     H252527   6.242   5.290   8.201
17429WAT      O52528   5.665   4.470   0.705
17429WAT     H152529   5.638   4.401   0.638
17429WAT     H252530   5.753   4.445   0.745
17430WAT      O52531   2.749   9.615   3.463
17430WAT     H152532   2.785   9.613   3.370
17430WAT     H252533   2.815   9.661   3.523
17431WAT      O52534   5.766   7.949   6.408
17431WAT     H152535   5.783   7.853   6.430
17431WAT     H252536   5.836   7.982   6.345
17432WAT      O52537   9.690   2.232   7.481
17432WAT     H152538   9.705   2.254   7.385
17432WAT     H252539   9.773   2.191   7.519
17433WAT      O52540   4.219   7.791   9.658
17433WAT     H152541   4.131   7.829   9.688
17433WAT     H252542   4.291   7.860   9.671
17434WAT      O52543   2.513   0.634   6.917
17434WAT     H152544   2.596   0.591   6.881
17434WAT     H252545   2.531   0.731   6.934
17435WAT      O52546   4.645   4.311   6.761
17435WAT     H152547   4.640   4.334   6.858
17435WAT     H252548   4.555   4.325   6.719
17436WAT      O52549   1.746   9.513   3.742
17436WAT     H152550   1.716   9.593   3.793
17436WAT     H252551   1.837   9.528   3.704
17437WAT      O52552   7.490   9.631   5.792
17437WAT     H152553   7.465   9.536   5.774
17437WAT     H252554   7.443   9.662   5.875
17438WAT      O52555   1.476   6.344   6.311
17438WAT     H152556   1.467   6.257   6.360
17438WAT     H252557   1.392   6.397   6.322
17439WAT      O52558   1.290   5.315   0.466
17439WAT     H152559   1.254   5.335   0.375
17439WAT     H252560   1.213   5.303   0.530
17440WAT      O52561   9.679   3.611   2.928
17440WAT     H152562   9.669   3.622   2.829
17440WAT     H252563   9.610   3.547   2.962
17441WAT      O52564   5.981   6.798   7.509
17441WAT     H152565   5.905   6.824   7.449
17441WAT     H252566   6.027   6.881   7.541
17442WAT      O52567   8.949   7.352   8.057
17442WAT     H152568   8.856   7.324   8.033
17442WAT     H252569   8.974   7.433   8.003
17443WAT      O52570   1.890   9.587   7.540
17443WAT     H152571   1.939   9.549   7.619
17443WAT     H252572   1.818   9.523   7.512
17444WAT      O52573   9.168   4.466   9.744
17444WAT     H152574   9.099   4.438   9.810
17444WAT     H252575   9.128   4.531   9.679
17445WAT      O52576   3.876   3.848   0.628
17445WAT     H152577   3.883   3.837   0.529
17445WAT     H252578   3.949   3.910   0.660
17446WAT      O52579   5.908   3.009   4.325
17446WAT     H152580   5.842   2.956   4.379
17446WAT     H252581   5.860   3.083   4.277
17447WAT      O52582   0.356   5.821   9.693
17447WAT     H152583   0.389   5.812   9.599
17447WAT     H252584   0.432   5.844   9.753
17448WAT      O52585   3.630   2.425   9.014
17448WAT     H152586   3.541   2.390   8.984
17448WAT     H252587   3.688   2.439   8.934
17449WAT      O52588   0.758   9.183   4.070
17449WAT     H152589   0.815   9.203   4.149
17449WAT     H252590   0.805   9.117   4.011
17450WAT      O52591   5.336   0.787   1.819
17450WAT     H152592   5.421   0.747   1.785
17450WAT     H252593   5.279   0.815   1.741
17451WAT      O52594   1.115   3.549   9.874
17451WAT     H152595   1.147   3.455   9.889
17451WAT     H252596   1.021   3.557   9.908
17452WAT      O52597   9.313   6.147   4.805
17452WAT     H152598   9.375   6.126   4.880
17452WAT     H252599   9.320   6.244   4.782
17453WAT      O52600   6.410   4.568   7.220
17453WAT     H152601   6.333   4.508   7.197
17453WAT     H252602   6.383   4.631   7.293
17454WAT      O52603   1.972   5.857   5.136
17454WAT     H152604   1.938   5.828   5.047
17454WAT     H252605   1.981   5.778   5.197
17455WAT      O52606   1.365   4.677   8.941
17455WAT     H152607   1.335   4.652   9.032
17455WAT     H252608   1.332   4.769   8.919
17456WAT      O52609   1.175   2.083   7.785
17456WAT     H152610   1.220   2.172   7.773
17456WAT     H252611   1.224   2.030   7.854
17457WAT      O52612   7.287   6.889   6.775
17457WAT     H152613   7.198   6.853   6.803
17457WAT     H252614   7.275   6.982   6.738
17458WAT      O52615   3.720   7.506   4.454
17458WAT     H152616   3.811   7.477   4.484
17458WAT     H252617   3.670   7.544   4.532
17459WAT      O52618   8.609   2.635   3.025
17459WAT     H152619   8.554   2.704   3.071
17459WAT     H252620   8.552   2.582   2.962
17460WAT      O52621   0.294   4.207   1.175
17460WAT     H152622   0.307   4.276   1.245
17460WAT     H252623   0.373   4.205   1.113
17461WAT      O52624   2.083   3.363   9.328
17461WAT     H152625   2.114   3.388   9.237
17461WAT     H252626   2.047   3.270   9.326
17462WAT      O52627   2.473   4.615   9.002
17462WAT     H152628   2.554   4.673   9.015
17462WAT     H252629   2.404   4.638   9.070
17463WAT      O52630   5.798   9.201   8.510
17463WAT     H152631   5.804   9.291   8.553
17463WAT     H252632   5.879   9.147   8.534
17464WAT      O52633   2.749   6.271   8.465
17464WAT     H152634   2.734   6.201   8.396
17464WAT     H252635   2.840   6.260   8.505
17465WAT      O52636   3.180   7.222   6.840
17465WAT     H152637   3.269   7.264   6.858
17465WAT     H252638   3.108   7.292   6.845
17466WAT      O52639   9.277   0.847   0.222
17466WAT     H152640   9.325   0.772   0.176
17466WAT     H252641   9.264   0.922   0.158
17467WAT      O52642   4.295   6.194   8.013
17467WAT     H152643   4.364   6.266   8.000
17467WAT     H252644   4.312   6.147   8.100
17468WAT      O52645   1.914   7.759   2.012
17468WAT     H152646   1.899   7.849   2.052
17468WAT     H252647   1.826   7.719   1.987
17469WAT      O52648   7.005   9.588   1.246
17469WAT     H152649   6.918   9.559   1.207
17469WAT     H252650   6.989   9.639   1.330
17470WAT      O52651   8.385   5.869   6.726
17470WAT     H152652   8.292   5.882   6.692
17470WAT     H252653   8.451   5.900   6.656
17471WAT      O52654   3.293   1.071   0.696
17471WAT     H152655   3.345   1.142   0.742
17471WAT     H252656   3.203   1.061   0.739
17472WAT      O52657   9.079   8.143   7.571
17472WAT     H152658   9.164   8.093   7.555
17472WAT     H252659   9.002   8.079   7.574
17473WAT      O52660   3.656   3.370   8.408
17473WAT     H152661   3.616   3.312   8.480
17473WAT     H252662   3.609   3.458   8.407
17474WAT      O52663   7.396   0.905   3.364
17474WAT     H152664   7.467   0.858   3.313
17474WAT     H252665   7.361   0.981   3.310
17475WAT      O52666   8.674   7.731   7.327
17475WAT     H152667   8.695   7.823   7.360
17475WAT     H252668   8.745   7.668   7.358
17476WAT      O52669   5.789   0.936   7.333
17476WAT     H152670   5.766   1.022   7.287
17476WAT     H252671   5.852   0.955   7.408
17477WAT      O52672   6.305   3.527   7.132
17477WAT     H152673   6.295   3.600   7.199
17477WAT     H252674   6.369   3.458   7.169
17478WAT      O52675   5.654   8.975   3.396
17478WAT     H152676   5.597   9.057   3.403
17478WAT     H252677   5.617   8.914   3.326
17479WAT      O52678   0.311   1.271   9.436
17479WAT     H152679   0.407   1.297   9.440
17479WAT     H252680   0.301   1.175   9.463
17480WAT      O52681   3.964   5.462   8.991
17480WAT     H152682   3.942   5.466   9.088
17480WAT     H252683   4.034   5.392   8.976
17481WAT      O52684   9.614   8.011   8.236
17481WAT     H152685   9.594   8.050   8.146
17481WAT     H252686   9.696   7.954   8.229
17482WAT      O52687   0.487   7.901   5.352
17482WAT     H152688   0.421   7.832   5.322
17482WAT     H252689   0.579   7.863   5.349
17483WAT      O52690   7.501   3.934   3.294
17483WAT     H152691   7.542   3.973   3.212
17483WAT     H252692   7.401   3.932   3.283
17484WAT      O52693   0.947   8.047   0.457
17484WAT     H152694   1.002   8.128   0.478
17484WAT     H252695   0.851   8.065   0.478
17485WAT      O52696   5.853   9.054   2.614
17485WAT     H152697   5.895   9.139   2.644
17485WAT     H252698   5.899   8.976   2.657
17486WAT      O52699   5.528   5.799   6.944
17486WAT     H152700   5.436   5.833   6.961
17486WAT     H252701   5.538   5.778   6.846
17487WAT      O52702   1.127   5.230   5.748
17487WAT     H152703   1.096   5.322   5.724
17487WAT     H252704   1.078   5.197   5.829
17488WAT      O52705   0.196   8.325   9.699
17488WAT     H152706   0.136   8.246   9.704
17488WAT     H252707   0.291   8.295   9.704
17489WAT      O52708   8.635   3.251   3.522
17489WAT     H152709   8.658   3.171   3.577
17489WAT     H252710   8.604   3.325   3.583
17490WAT      O52711   9.784   2.528   1.346
17490WAT     H152712   9.815   2.585   1.423
17490WAT     H252713   9.694   2.559   1.315
17491WAT      O52714   0.165   1.526   1.649
17491WAT     H152715   0.188   1.487   1.738
17491WAT     H252716   0.185   1.624   1.650
17492WAT      O52717   3.224   3.727   3.104
17492WAT     H152718   3.319   3.736   3.075
17492WAT     H252719   3.193   3.814   3.142
17493WAT      O52720   6.755   6.336   1.530
17493WAT     H152721   6.842   6.384   1.532
17493WAT     H252722   6.706   6.359   1.446
17494WAT      O52723   6.533   4.050   3.750
17494WAT     H152724   6.486   4.065   3.837
17494WAT     H252725   6.573   3.959   3.749
17495WAT      O52726   1.264   6.169   5.829
17495WAT     H152727   1.308   6.182   5.740
17495WAT     H252728   1.195   6.097   5.822
17496WAT      O52729   6.582   9.037   7.558
17496WAT     H152730   6.637   8.994   7.630
17496WAT     H252731   6.493   8.990   7.552
17497WAT      O52732   3.526   6.084   1.020
17497WAT     H152733   3.484   6.138   1.093
17497WAT     H252734   3.454   6.046   0.961
17498WAT      O52735   3.070   5.250   1.152
17498WAT     H152736   3.039   5.342   1.175
17498WAT     H252737   3.097   5.248   1.055
17499WAT      O52738   7.891   9.743   5.008
17499WAT     H152739   7.824   9.720   4.938
17499WAT     H252740   7.899   9.667   5.073
17500WAT      O52741   4.278   2.143   8.419
17500WAT     H152742   4.218   2.150   8.499
17500WAT     H252743   4.373   2.157   8.448
17501WAT      O52744   1.756   3.642   5.590
17501WAT     H152745   1.771   3.548   5.619
17501WAT     H252746   1.827   3.670   5.526
17502WAT      O52747   3.975   6.589   3.840
17502WAT     H152748   3.904   6.533   3.882
17502WAT     H252749   4.016   6.648   3.909
17503WAT      O52750   0.099   2.561   6.191
17503WAT     H152751   0.167   2.562   6.264
17503WAT     H252752   0.025   2.624   6.212
17504WAT      O52753   4.839   5.406   5.217
17504WAT     H152754   4.745   5.382   5.193
17504WAT     H252755   4.873   5.474   5.152
17505WAT      O52756   9.367   6.101   0.538
17505WAT     H152757   9.330   6.014   0.507
17505WAT     H252758   9.406   6.151   0.461
17506WAT      O52759   1.658   6.788   0.475
17506WAT     H152760   1.672   6.826   0.384
17506WAT     H252761   1.732   6.724   0.497
17507WAT      O52762   3.746   8.557   5.791
17507WAT     H152763   3.735   8.522   5.698
17507WAT     H252764   3.750   8.657   5.789
17508WAT      O52765   2.623   5.869   7.576
17508WAT     H152766   2.556   5.942   7.586
17508WAT     H252767   2.648   5.833   7.666
17509WAT      O52768   7.226   5.203   4.323
17509WAT     H152769   7.271   5.269   4.262
17509WAT     H252770   7.141   5.243   4.358
17510WAT      O52771   8.547   9.377   1.948
17510WAT     H152772   8.473   9.425   1.995
17510WAT     H252773   8.623   9.362   2.012
17511WAT      O52774   2.734   4.751   9.289
17511WAT     H152775   2.823   4.745   9.334
17511WAT     H252776   2.742   4.717   9.195
17512WAT      O52777   4.393   9.436   7.698
17512WAT     H152778   4.321   9.407   7.761
17512WAT     H252779   4.363   9.419   7.604
17513WAT      O52780   0.483   1.378   3.257
17513WAT     H152781   0.407   1.424   3.211
17513WAT     H252782   0.477   1.392   3.356
17514WAT      O52783   0.147   6.579   8.452
17514WAT     H152784   0.062   6.528   8.444
17514WAT     H252785   0.156   6.642   8.375
17515WAT      O52786   5.001   9.769   4.952
17515WAT     H152787   4.906   9.789   4.975
17515WAT     H252788   5.062   9.826   5.008
17516WAT      O52789   9.282   7.323   0.393
17516WAT     H152790   9.259   7.349   0.299
17516WAT     H252791   9.264   7.401   0.454
17517WAT      O52792   4.022   1.118   2.791
17517WAT     H152793   3.922   1.110   2.783
17517WAT     H252794   4.063   1.028   2.776
17518WAT      O52795   1.810   5.832   2.545
17518WAT     H152796   1.909   5.841   2.549
17518WAT     H252797   1.767   5.919   2.572
17519WAT      O52798   3.364   9.319   1.832
17519WAT     H152799   3.407   9.286   1.748
17519WAT     H252800   3.315   9.404   1.813
17520WAT      O52801   3.261   3.702   5.439
17520WAT     H152802   3.316   3.619   5.429
17520WAT     H252803   3.260   3.731   5.534
17521WAT      O52804   3.192   5.413   6.533
17521WAT     H152805   3.287   5.395   6.558
17521WAT     H252806   3.154   5.333   6.486
17522WAT      O52807   8.888   5.026   1.561
17522WAT     H152808   8.834   5.074   1.630
17522WAT     H252809   8.879   4.928   1.574
17523WAT      O52810   0.433   9.712   6.975
17523WAT     H152811   0.439   9.644   6.902
17523WAT     H252812   0.451   9.803   6.938
17524WAT      O52813   4.709   1.114   0.060
17524WAT     H152814   4.648   1.147   0.132
17524WAT     H252815   4.726   1.187  -0.007
17525WAT      O52816   0.870   7.888   8.575
17525WAT     H152817   0.872   7.982   8.608
17525WAT     H252818   0.784   7.844   8.602
17526WAT      O52819   2.012   6.758   3.390
17526WAT     H152820   2.019   6.699   3.310
17526WAT     H252821   1.934   6.730   3.445
17527WAT      O52822   9.256   7.958   4.477
17527WAT     H152823   9.311   7.877   4.457
17527WAT     H252824   9.316   8.039   4.476
17528WAT      O52825   4.707   5.972   0.708
17528WAT     H152826   4.675   5.949   0.616
17528WAT     H252827   4.789   6.028   0.701
17529WAT      O52828   4.971   5.674   0.290
17529WAT     H152829   4.993   5.655   0.385
17529WAT     H252830   4.909   5.753   0.285
17530WAT      O52831   1.896   4.229   3.311
17530WAT     H152832   1.932   4.241   3.404
17530WAT     H252833   1.915   4.311   3.257
17531WAT      O52834   8.230   7.357   6.237
17531WAT     H152835   8.156   7.359   6.304
17531WAT     H252836   8.232   7.442   6.185
17532WAT      O52837   7.987   5.637   7.094
17532WAT     H152838   7.911   5.603   7.149
17532WAT     H252839   8.049   5.692   7.151
17533WAT      O52840   6.643   4.136   2.831
17533WAT     H152841   6.582   4.061   2.807
17533WAT     H252842   6.735   4.116   2.796
17534WAT      O52843   6.222   2.670   6.290
17534WAT     H152844   6.153   2.738   6.315
17534WAT     H252845   6.192   2.622   6.208
17535WAT      O52846   7.052   3.659   2.432
17535WAT     H152847   7.036   3.743   2.484
17535WAT     H252848   7.013   3.582   2.482
17536WAT      O52849   0.259   7.203   7.814
17536WAT     H152850   0.257   7.205   7.914
17536WAT     H252851   0.262   7.108   7.782
17537WAT      O52852   0.236   0.576   8.968
17537WAT     H152853   0.260   0.504   8.904
17537WAT     H252854   0.317   0.603   9.020
17538WAT      O52855   3.452   0.843   1.738
17538WAT     H152856   3.356   0.867   1.724
17538WAT     H252857   3.482   0.873   1.828
17539WAT      O52858   5.460   8.837   9.424
17539WAT     H152859   5.478   8.921   9.475
17539WAT     H252860   5.516   8.762   9.460
17540WAT      O52861   9.187   0.060   7.123
17540WAT     H152862   9.130   0.118   7.065
17540WAT     H252863   9.154  -0.034   7.118
17541WAT      O52864   2.809   4.964   6.820
17541WAT     H152865   2.815   5.026   6.899
17541WAT     H252866   2.798   4.870   6.852
17542WAT      O52867   8.889   7.314   2.725
17542WAT     H152868   8.894   7.289   2.629
17542WAT     H252869   8.890   7.231   2.782
17543WAT      O52870   7.870   7.356   3.908
17543WAT     H152871   7.911   7.278   3.955
17543WAT     H252872   7.803   7.323   3.841
17544WAT      O52873   9.756   0.077   5.377
17544WAT     H152874   9.705   0.076   5.463
17544WAT     H252875   9.770   0.172   5.347
17545WAT      O52876   5.907   9.644   2.824
17545WAT     H152877   6.006   9.655   2.819
17545WAT     H252878   5.872   9.613   2.736
17546WAT      O52879   6.472   4.101   4.885
17546WAT     H152880   6.449   4.136   4.976
17546WAT     H252881   6.560   4.139   4.856
17547WAT      O52882   9.206   6.068   1.820
17547WAT     H152883   9.198   6.152   1.874
17547WAT     H252884   9.163   5.992   1.869
17548WAT      O52885   0.508   5.156   9.679
17548WAT     H152886   0.567   5.118   9.750
17548WAT     H252887   0.464   5.239   9.713
17549WAT      O52888   1.087   6.363   4.842
17549WAT     H152889   1.145   6.299   4.791
17549WAT     H252890   1.013   6.312   4.887
17550WAT      O52891   4.724   5.000   2.593
17550WAT     H152892   4.773   5.059   2.656
17550WAT     H252893   4.650   4.952   2.642
17551WAT      O52894   1.666   5.108   9.553
17551WAT     H152895   1.587   5.112   9.492
17551WAT     H252896   1.731   5.181   9.528
17552WAT      O52897   4.791   8.424   8.590
17552WAT     H152898   4.833   8.388   8.673
17552WAT     H252899   4.860   8.432   8.518
17553WAT      O52900   8.830   4.102   5.966
17553WAT     H152901   8.813   4.140   6.057
17553WAT     H252902   8.898   4.157   5.919
17554WAT      O52903   5.480   8.084   9.664
17554WAT     H152904   5.577   8.108   9.656
17554WAT     H252905   5.440   8.078   9.572
17555WAT      O52906   7.648   3.240   3.777
17555WAT     H152907   7.664   3.167   3.710
17555WAT     H252908   7.621   3.323   3.729
17556WAT      O52909   1.527   2.241   2.124
17556WAT     H152910   1.474   2.305   2.068
17556WAT     H252911   1.538   2.279   2.216
17557WAT      O52912   6.249   9.543   8.573
17557WAT     H152913   6.265   9.457   8.525
17557WAT     H252914   6.222   9.614   8.507
17558WAT      O52915   6.082   7.364   5.290
17558WAT     H152916   6.095   7.461   5.271
17558WAT     H252917   6.110   7.311   5.210
17559WAT      O52918   3.492   1.156   7.870
17559WAT     H152919   3.416   1.184   7.811
17559WAT     H252920   3.544   1.083   7.825
17560WAT      O52921   3.095   9.065   3.841
17560WAT     H152922   3.180   9.032   3.882
17560WAT     H252923   3.091   9.036   3.746
17561WAT      O52924   7.862   6.748   9.107
17561WAT     H152925   7.815   6.798   9.180
17561WAT     H252926   7.882   6.810   9.032
17562WAT      O52927   5.215   7.386   6.544
17562WAT     H152928   5.206   7.382   6.445
17562WAT     H252929   5.291   7.327   6.573
17563WAT      O52930   4.933   5.017   1.249
17563WAT     H152931   4.950   5.030   1.347
17563WAT     H252932   5.006   5.062   1.197
17564WAT      O52933   6.033   4.129   8.537
17564WAT     H152934   6.119   4.172   8.512
17564WAT     H252935   6.052   4.044   8.586
17565WAT      O52936   1.821   1.423   4.919
17565WAT     H152937   1.877   1.495   4.879
17565WAT     H252938   1.826   1.341   4.862
17566WAT      O52939   3.092   2.210   6.394
17566WAT     H152940   3.110   2.290   6.451
17566WAT     H252941   2.994   2.206   6.371
17567WAT      O52942   4.883   7.920   4.986
17567WAT     H152943   4.956   7.976   5.026
17567WAT     H252944   4.924   7.843   4.936
17568WAT      O52945   6.279   1.811   6.784
17568WAT     H152946   6.333   1.879   6.734
17568WAT     H252947   6.206   1.777   6.725
17569WAT      O52948   3.799   2.221   9.149
17569WAT     H152949   3.868   2.275   9.197
17569WAT     H252950   3.733   2.283   9.106
17570WAT      O52951   6.740   5.693   9.016
17570WAT     H152952   6.811   5.759   8.992
17570WAT     H252953   6.727   5.693   9.115
17571WAT      O52954   3.422   3.813   0.584
17571WAT     H152955   3.356   3.745   0.616
17571WAT     H252956   3.374   3.893   0.549
17572WAT      O52957   0.251   2.071   0.045
17572WAT     H152958   0.249   2.112  -0.046
17572WAT     H252959   0.251   2.142   0.114
17573WAT      O52960   6.802   6.931   4.975
17573WAT     H152961   6.846   6.965   5.058
17573WAT     H252962   6.843   6.975   4.895
17574WAT      O52963   6.469   6.594   6.227
17574WAT     H152964   6.552   6.625   6.273
17574WAT     H252965   6.493   6.551   6.140
17575WAT      O52966   5.166   3.080   4.402
17575WAT     H152967   5.237   3.031   4.452
17575WAT     H252968   5.077   3.064   4.445
17576WAT      O52969   7.259   0.105   3.927
17576WAT     H152970   7.278   0.185   3.870
17576WAT     H252971   7.245   0.133   4.022
17577WAT      O52972   5.068   6.539   2.689
17577WAT     H152973   4.995   6.544   2.622
17577WAT     H252974   5.029   6.533   2.781
17578WAT      O52975   4.923   0.432   3.815
17578WAT     H152976   4.851   0.485   3.772
17578WAT     H252977   5.012   0.465   3.783
17579WAT      O52978   4.581   1.287   6.083
17579WAT     H152979   4.504   1.343   6.052
17579WAT     H252980   4.547   1.215   6.143
17580WAT      O52981   0.686   4.455   5.506
17580WAT     H152982   0.693   4.396   5.587
17580WAT     H252983   0.725   4.408   5.427
17581WAT      O52984   3.904   6.662   7.775
17581WAT     H152985   3.960   6.582   7.794
17581WAT     H252986   3.945   6.715   7.701
17582WAT      O52987   7.164   1.643   8.341
17582WAT     H152988   7.099   1.635   8.265
17582WAT     H252989   7.253   1.607   8.313
17583WAT      O52990   0.963   6.319   6.065
17583WAT     H152991   1.052   6.355   6.036
17583WAT     H252992   0.890   6.363   6.012
17584WAT      O52993   0.587   2.537   8.271
17584WAT     H152994   0.627   2.469   8.333
17584WAT     H252995   0.556   2.616   8.324
17585WAT      O52996   7.239   3.819   6.215
17585WAT     H152997   7.243   3.755   6.138
17585WAT     H252998   7.267   3.910   6.185
17586WAT      O52999   2.774   7.196   1.932
17586WAT     H153000   2.721   7.188   1.847
17586WAT     H253001   2.846   7.126   1.933
17587WAT      O53002   1.170   6.445   4.095
17587WAT     H153003   1.234   6.450   4.172
17587WAT     H253004   1.147   6.538   4.066
17588WAT      O53005   2.672   0.115   4.487
17588WAT     H153006   2.612   0.187   4.450
17588WAT     H253007   2.746   0.157   4.539
17589WAT      O53008   5.244   4.500   3.480
17589WAT     H153009   5.253   4.434   3.554
17589WAT     H253010   5.245   4.593   3.518
17590WAT      O53011   6.374   6.959   5.472
17590WAT     H153012   6.443   6.952   5.400
17590WAT     H253013   6.286   6.930   5.436
17591WAT      O53014   7.588   2.390   8.318
17591WAT     H153015   7.569   2.462   8.250
17591WAT     H253016   7.589   2.430   8.409
17592WAT      O53017   5.917   0.402   9.858
17592WAT     H153018   5.863   0.400   9.774
17592WAT     H253019   5.937   0.308   9.888
17593WAT      O53020   1.494   4.371   3.397
17593WAT     H153021   1.466   4.282   3.432
17593WAT     H253022   1.489   4.440   3.470
17594WAT      O53023   9.107   9.317   7.238
17594WAT     H153024   9.112   9.262   7.322
17594WAT     H253025   9.192   9.305   7.186
17595WAT      O53026   7.656   7.077   1.231
17595WAT     H153027   7.601   7.151   1.269
17595WAT     H253028   7.744   7.112   1.202
17596WAT      O53029   7.049   1.723   2.718
17596WAT     H153030   7.045   1.626   2.692
17596WAT     H253031   7.137   1.742   2.763
17597WAT      O53032   8.686   9.655   9.354
17597WAT     H153033   8.776   9.621   9.381
17597WAT     H253034   8.659   9.731   9.415
17598WAT      O53035   0.240   3.707   2.280
17598WAT     H153036   0.304   3.723   2.355
17598WAT     H253037   0.238   3.787   2.220
17599WAT      O53038   1.914   8.338   9.669
17599WAT     H153039   1.964   8.347   9.755
17599WAT     H253040   1.820   8.309   9.689
17600WAT      O53041   7.276   3.166   5.701
17600WAT     H153042   7.260   3.214   5.615
17600WAT     H253043   7.239   3.073   5.694
17601WAT      O53044   6.862   1.602   1.297
17601WAT     H153045   6.808   1.557   1.225
17601WAT     H253046   6.956   1.613   1.266
17602WAT      O53047   9.248   8.409   4.166
17602WAT     H153048   9.243   8.443   4.072
17602WAT     H253049   9.323   8.344   4.175
17603WAT      O53050   9.879   2.515   5.829
17603WAT     H153051   9.811   2.452   5.866
17603WAT     H253052   9.844   2.609   5.835
17604WAT      O53053   5.302   2.002   9.193
17604WAT     H153054   5.304   2.007   9.292
17604WAT     H253055   5.213   2.035   9.160
17605WAT      O53056   0.649   1.159   3.201
17605WAT     H153057   0.590   1.224   3.249
17605WAT     H253058   0.625   1.158   3.104
17606WAT      O53059   2.543   5.161   0.047
17606WAT     H153060   2.596   5.146  -0.036
17606WAT     H253061   2.583   5.107   0.122
17607WAT      O53062   0.764   5.732   6.508
17607WAT     H153063   0.726   5.738   6.415
17607WAT     H253064   0.856   5.695   6.505
17608WAT      O53065   2.664   4.147   4.750
17608WAT     H153066   2.734   4.202   4.796
17608WAT     H253067   2.706   4.066   4.709
17609WAT      O53068   3.272   3.184   2.161
17609WAT     H153069   3.226   3.241   2.092
17609WAT     H253070   3.210   3.111   2.190
17610WAT      O53071   6.039   0.601   0.921
17610WAT     H153072   6.135   0.628   0.922
17610WAT     H253073   6.031   0.505   0.895
17611WAT      O53074   8.286   5.759   5.113
17611WAT     H153075   8.365   5.699   5.125
17611WAT     H253076   8.294   5.838   5.174
17612WAT      O53077   0.548   5.744   8.719
17612WAT     H153078   0.500   5.801   8.785
17612WAT     H253079   0.519   5.649   8.730
17613WAT      O53080   3.992   3.090   6.724
17613WAT     H153081   3.906   3.039   6.721
17613WAT     H253082   4.051   3.051   6.794
17614WAT      O53083   4.794   2.097   7.939
17614WAT     H153084   4.816   2.000   7.929
17614WAT     H253085   4.695   2.110   7.932
17615WAT      O53086   3.190   1.449   1.084
17615WAT     H153087   3.268   1.393   1.112
17615WAT     H253088   3.178   1.524   1.150
17616WAT      O53089   2.313   9.459   9.440
17616WAT     H153090   2.237   9.448   9.504
17616WAT     H253091   2.279   9.484   9.350
17617WAT      O53092   9.569   7.470   0.914
17617WAT     H153093   9.641   7.424   0.966
17617WAT     H253094   9.589   7.463   0.816
17618WAT      O53095   3.743   5.842   8.564
17618WAT     H153096   3.734   5.934   8.601
17618WAT     H253097   3.668   5.785   8.598
17619WAT      O53098   9.127   0.374   7.771
17619WAT     H153099   9.160   0.294   7.821
17619WAT     H253100   9.159   0.369   7.676
17620WAT      O53101   6.626   9.456   6.059
17620WAT     H153102   6.652   9.440   6.154
17620WAT     H253103   6.647   9.375   6.004
17621WAT      O53104   6.555   6.434   6.015
17621WAT     H153105   6.543   6.336   6.030
17621WAT     H253106   6.493   6.464   5.943
17622WAT      O53107   4.150   0.516   8.292
17622WAT     H153108   4.165   0.418   8.301
17622WAT     H253109   4.161   0.561   8.381
17623WAT      O53110   6.638   7.025   6.664
17623WAT     H153111   6.691   6.963   6.722
17623WAT     H253112   6.698   7.066   6.595
17624WAT      O53113   3.244   0.286   7.181
17624WAT     H153114   3.337   0.249   7.187
17624WAT     H253115   3.246   0.371   7.130
17625WAT      O53116   7.248   7.872   6.942
17625WAT     H153117   7.252   7.829   7.032
17625WAT     H253118   7.341   7.887   6.908
17626WAT      O53119   5.572   9.227   1.226
17626WAT     H153120   5.513   9.147   1.212
17626WAT     H253121   5.574   9.282   1.142
17627WAT      O53122   8.875   6.501   5.824
17627WAT     H153123   8.892   6.515   5.726
17627WAT     H253124   8.957   6.461   5.866
17628WAT      O53125   9.626   9.391   2.138
17628WAT     H153126   9.720   9.404   2.169
17628WAT     H253127   9.625   9.376   2.040
17629WAT      O53128   6.456   2.132   8.271
17629WAT     H153129   6.428   2.045   8.312
17629WAT     H253130   6.381   2.198   8.279
17630WAT      O53131   1.320   5.041   1.597
17630WAT     H153132   1.265   5.036   1.680
17630WAT     H253133   1.261   5.049   1.517
17631WAT      O53134   5.470   0.134   2.371
17631WAT     H153135   5.446   0.051   2.319
17631WAT     H253136   5.569   0.148   2.369
17632WAT      O53137   1.877   2.755   5.155
17632WAT     H153138   1.890   2.811   5.237
17632WAT     H253139   1.911   2.663   5.173
17633WAT      O53140   5.305   0.907   5.829
17633WAT     H153141   5.206   0.920   5.830
17633WAT     H253142   5.327   0.819   5.872
17634WAT      O53143   3.663   1.257   0.082
17634WAT     H153144   3.744   1.199   0.084
17634WAT     H253145   3.590   1.210   0.032
17635WAT      O53146   8.896   8.955   3.476
17635WAT     H153147   8.906   8.932   3.573
17635WAT     H253148   8.814   9.011   3.463
17636WAT      O53149   4.080   1.795   7.012
17636WAT     H153150   4.121   1.707   6.988
17636WAT     H253151   4.128   1.834   7.090
17637WAT      O53152   4.770   8.572   1.058
17637WAT     H153153   4.810   8.558   1.149
17637WAT     H253154   4.741   8.484   1.020
17638WAT      O53155   7.989   7.143   7.954
17638WAT     H153156   7.994   7.149   7.855
17638WAT     H253157   7.987   7.235   7.993
17639WAT      O53158   1.674   1.394   1.360
17639WAT     H153159   1.760   1.429   1.324
17639WAT     H253160   1.674   1.401   1.460
17640WAT      O53161   0.142   0.932   6.580
17640WAT     H153162   0.054   0.977   6.594
17640WAT     H253163   0.145   0.847   6.632
17641WAT      O53164   4.906   5.779   2.219
17641WAT     H153165   4.887   5.874   2.244
17641WAT     H253166   4.850   5.755   2.139
17642WAT      O53167   4.369   2.185   4.021
17642WAT     H153168   4.319   2.211   4.103
17642WAT     H253169   4.309   2.194   3.941
17643WAT      O53170   6.905   6.128   5.991
17643WAT     H153171   6.912   6.057   6.061
17643WAT     H253172   6.868   6.088   5.907
17644WAT      O53173   3.813   5.631   0.643
17644WAT     H153174   3.903   5.673   0.639
17644WAT     H253175   3.750   5.691   0.692
17645WAT      O53176   5.653   0.333   1.130
17645WAT     H153177   5.584   0.370   1.068
17645WAT     H253178   5.678   0.402   1.198
17646WAT      O53179   4.845   1.417   0.119
17646WAT     H153180   4.770   1.420   0.185
17646WAT     H253181   4.810   1.393   0.029
17647WAT      O53182   0.992   4.356   0.983
17647WAT     H153183   1.039   4.383   0.899
17647WAT     H253184   1.040   4.279   1.025
17648WAT      O53185   3.559   8.398   4.768
17648WAT     H153186   3.631   8.389   4.699
17648WAT     H253187   3.478   8.348   4.738
17649WAT      O53188   2.767   8.751   6.365
17649WAT     H153189   2.696   8.808   6.406
17649WAT     H253190   2.740   8.655   6.372
17650WAT      O53191   0.936   2.703   3.922
17650WAT     H153192   0.877   2.725   4.000
17650WAT     H253193   1.003   2.777   3.908
17651WAT      O53194   7.637   2.623   4.752
17651WAT     H153195   7.608   2.539   4.707
17651WAT     H253196   7.557   2.674   4.783
17652WAT      O53197   8.095   5.123   8.532
17652WAT     H153198   8.030   5.054   8.564
17652WAT     H253199   8.186   5.102   8.567
17653WAT      O53200   6.158   9.216   8.824
17653WAT     H153201   6.251   9.249   8.812
17653WAT     H253202   6.102   9.289   8.864
17654WAT      O53203   6.436   4.679   1.664
17654WAT     H153204   6.375   4.600   1.665
17654WAT     H253205   6.526   4.651   1.697
17655WAT      O53206   8.509   1.794   4.061
17655WAT     H153207   8.472   1.862   4.125
17655WAT     H253208   8.568   1.839   3.994
17656WAT      O53209   1.445   3.326   2.583
17656WAT     H153210   1.439   3.424   2.600
17656WAT     H253211   1.508   3.285   2.648
17657WAT      O53212   8.979   0.619   2.639
17657WAT     H153213   8.931   0.535   2.616
17657WAT     H253214   9.049   0.637   2.570
17658WAT      O53215   0.542   9.696   0.316
17658WAT     H153216   0.612   9.628   0.340
17658WAT     H253217   0.514   9.745   0.399
17659WAT      O53218   8.837   0.622   0.760
17659WAT     H153219   8.843   0.552   0.690
17659WAT     H253220   8.862   0.711   0.722
17660WAT      O53221   4.882   6.526   6.491
17660WAT     H153222   4.960   6.568   6.538
17660WAT     H253223   4.903   6.430   6.473
17661WAT      O53224   9.721   3.758   6.469
17661WAT     H153225   9.790   3.686   6.480
17661WAT     H253226   9.754   3.842   6.513
17662WAT      O53227   5.165   3.590   6.840
17662WAT     H153228   5.226   3.566   6.915
17662WAT     H253229   5.160   3.514   6.775
17663WAT      O53230   1.899   3.274   1.003
17663WAT     H153231   1.983   3.230   0.971
17663WAT     H253232   1.912   3.373   1.006
17664WAT      O53233   1.929   3.348   3.189
17664WAT     H153234   1.882   3.412   3.128
17664WAT     H253235   1.945   3.393   3.277
17665WAT      O53236   4.341   8.639   8.255
17665WAT     H153237   4.292   8.654   8.340
17665WAT     H253238   4.362   8.727   8.212
17666WAT      O53239   6.656   8.879   8.086
17666WAT     H153240   6.665   8.795   8.034
17666WAT     H253241   6.582   8.870   8.153
17667WAT      O53242   5.626   8.547   4.338
17667WAT     H153243   5.547   8.592   4.295
17667WAT     H253244   5.671   8.610   4.401
17668WAT      O53245   7.818   6.677   5.613
17668WAT     H153246   7.793   6.772   5.596
17668WAT     H253247   7.804   6.623   5.530
17669WAT      O53248   2.103   0.178   1.216
17669WAT     H153249   2.143   0.163   1.306
17669WAT     H253250   2.039   0.254   1.220
17670WAT      O53251   0.488   8.510   5.504
17670WAT     H153252   0.549   8.473   5.433
17670WAT     H253253   0.393   8.501   5.474
17671WAT      O53254   1.726   0.347   5.011
17671WAT     H153255   1.762   0.386   4.927
17671WAT     H253256   1.801   0.325   5.073
17672WAT      O53257   2.039   0.637   2.708
17672WAT     H153258   2.119   0.602   2.756
17672WAT     H253259   2.016   0.728   2.743
17673WAT      O53260   0.402   1.486   2.880
17673WAT     H153261   0.397   1.524   2.788
17673WAT     H253262   0.494   1.452   2.898
17674WAT      O53263   4.968   2.441   3.018
17674WAT     H153264   4.907   2.385   2.962
17674WAT     H253265   4.913   2.492   3.085
17675WAT      O53266   9.227   3.932   9.050
17675WAT     H153267   9.167   3.855   9.072
17675WAT     H253268   9.199   3.974   8.964
17676WAT      O53269   5.196   9.589   2.957
17676WAT     H153270   5.161   9.512   2.904
17676WAT     H253271   5.120   9.638   2.999
17677WAT      O53272   1.187   0.262   5.783
17677WAT     H153273   1.274   0.285   5.828
17677WAT     H253274   1.188   0.166   5.756
17678WAT      O53275   6.966   1.442   3.754
17678WAT     H153276   6.882   1.390   3.768
17678WAT     H253277   7.035   1.413   3.821
17679WAT      O53278   5.133   9.270   7.943
17679WAT     H153279   5.109   9.351   7.997
17679WAT     H253280   5.103   9.283   7.848
17680WAT      O53281   7.481   8.457   8.929
17680WAT     H153282   7.577   8.472   8.954
17680WAT     H253283   7.433   8.419   9.008
17681WAT      O53284   6.262   6.158   9.535
17681WAT     H153285   6.279   6.252   9.506
17681WAT     H253286   6.193   6.117   9.476
17682WAT      O53287   9.047   6.946   9.795
17682WAT     H153288   9.138   6.977   9.766
17682WAT     H253289   9.041   6.847   9.785
17683WAT      O53290   2.457   3.994   8.523
17683WAT     H153291   2.521   3.985   8.446
17683WAT     H253292   2.473   4.081   8.570
17684WAT      O53293   6.172   2.199   3.148
17684WAT     H153294   6.096   2.155   3.100
17684WAT     H253295   6.143   2.226   3.240
17685WAT      O53296   1.791   9.823   3.650
17685WAT     H153297   1.741   9.870   3.723
17685WAT     H253298   1.888   9.818   3.674
17686WAT      O53299   0.609   9.213   7.636
17686WAT     H153300   0.597   9.115   7.621
17686WAT     H253301   0.524   9.253   7.670
17687WAT      O53302   0.507   4.028   6.076
17687WAT     H153303   0.569   4.106   6.073
17687WAT     H253304   0.526   3.973   6.157
17688WAT      O53305   4.127   1.912   3.450
17688WAT     H153306   4.223   1.921   3.423
17688WAT     H253307   4.117   1.834   3.512
17689WAT      O53308   5.439   5.515   3.738
17689WAT     H153309   5.472   5.425   3.769
17689WAT     H253310   5.421   5.511   3.639
17690WAT      O53311   7.493   6.046   3.172
17690WAT     H153312   7.394   6.059   3.167
17690WAT     H253313   7.515   5.990   3.251
17691WAT      O53314   3.645   2.441   5.586
17691WAT     H153315   3.572   2.374   5.572
17691WAT     H253316   3.625   2.524   5.534
17692WAT      O53317   6.299   6.836   1.633
17692WAT     H153318   6.356   6.823   1.715
17692WAT     H253319   6.212   6.787   1.645
17693WAT      O53320   8.079   8.864   5.258
17693WAT     H153321   8.109   8.857   5.353
17693WAT     H253322   8.151   8.905   5.202
17694WAT      O53323   2.522   3.423   7.098
17694WAT     H153324   2.445   3.409   7.036
17694WAT     H253325   2.534   3.520   7.116
17695WAT      O53326   1.990   8.352   3.206
17695WAT     H153327   2.051   8.394   3.138
17695WAT     H253328   2.042   8.290   3.264
17696WAT      O53329   0.804   0.329   5.511
17696WAT     H153330   0.873   0.372   5.452
17696WAT     H253331   0.844   0.249   5.555
17697WAT      O53332   4.163   9.186   6.112
17697WAT     H153333   4.193   9.273   6.072
17697WAT     H253334   4.063   9.185   6.119
17698WAT      O53335   5.852   6.899   1.385
17698WAT     H153336   5.922   6.829   1.372
17698WAT     H253337   5.857   6.966   1.312
17699WAT      O53338   7.726   2.134   7.511
17699WAT     H153339   7.813   2.162   7.470
17699WAT     H253340   7.742   2.064   7.580
17700WAT      O53341   0.445   0.447   6.664
17700WAT     H153342   0.447   0.539   6.626
17700WAT     H253343   0.451   0.451   6.764
17701WAT      O53344   6.974   4.939   9.151
17701WAT     H153345   6.981   5.037   9.133
17701WAT     H253346   6.984   4.889   9.066
17702WAT      O53347   2.930   6.534   4.691
17702WAT     H153348   2.939   6.560   4.787
17702WAT     H253349   2.908   6.436   4.685
17703WAT      O53350   7.262   4.165   8.654
17703WAT     H153351   7.263   4.189   8.751
17703WAT     H253352   7.197   4.091   8.638
17704WAT      O53353   4.645   4.440   5.448
17704WAT     H153354   4.626   4.357   5.500
17704WAT     H253355   4.722   4.488   5.489
17705WAT      O53356   7.833   5.172   7.472
17705WAT     H153357   7.752   5.114   7.466
17705WAT     H253358   7.811   5.256   7.522
17706WAT      O53359   4.262   1.942   8.822
17706WAT     H153360   4.236   1.997   8.742
17706WAT     H253361   4.192   1.873   8.839
17707WAT      O53362   9.635   2.985   7.964
17707WAT     H153363   9.646   3.066   7.906
17707WAT     H253364   9.644   2.903   7.908
17708WAT      O53365   8.855   0.404   6.481
17708WAT     H153366   8.878   0.307   6.470
17708WAT     H253367   8.891   0.456   6.403
17709WAT      O53368   2.010   7.797   2.469
17709WAT     H153369   1.980   7.775   2.376
17709WAT     H253370   1.985   7.891   2.491
17710WAT      O53371   6.351   3.587   0.680
17710WAT     H153372   6.350   3.679   0.641
17710WAT     H253373   6.310   3.523   0.615
17711WAT      O53374   6.797   4.547   4.451
17711WAT     H153375   6.813   4.641   4.423
17711WAT     H253376   6.700   4.525   4.441
17712WAT      O53377   1.687   3.006   7.458
17712WAT     H153378   1.701   2.936   7.388
17712WAT     H253379   1.720   3.094   7.424
17713WAT      O53380   7.951   5.343   8.926
17713WAT     H153381   7.853   5.347   8.908
17713WAT     H253382   8.000   5.341   8.839
17714WAT      O53383   8.760   5.186   1.730
17714WAT     H153384   8.777   5.194   1.828
17714WAT     H253385   8.743   5.276   1.691
17715WAT      O53386   9.364   6.868   9.202
17715WAT     H153387   9.316   6.902   9.282
17715WAT     H253388   9.325   6.780   9.174
17716WAT      O53389   7.722   9.656   7.589
17716WAT     H153390   7.690   9.722   7.658
17716WAT     H253391   7.661   9.578   7.587
17717WAT      O53392   4.484   3.907   6.156
17717WAT     H153393   4.395   3.900   6.201
17717WAT     H253394   4.545   3.835   6.189
17718WAT      O53395   8.788   7.271   5.258
17718WAT     H153396   8.826   7.179   5.264
17718WAT     H253397   8.812   7.312   5.170
17719WAT      O53398   9.842   3.900   2.119
17719WAT     H153399   9.824   3.997   2.107
17719WAT     H253400   9.941   3.884   2.123
17720WAT      O53401   7.001   0.393   0.055
17720WAT     H153402   6.949   0.462   0.106
17720WAT     H253403   7.013   0.423  -0.039
17721WAT      O53404   4.720   9.817   6.094
17721WAT     H153405   4.670   9.848   6.175
17721WAT     H253406   4.798   9.761   6.123
17722WAT      O53407   1.226   4.720   3.344
17722WAT     H153408   1.265   4.651   3.283
17722WAT     H253409   1.298   4.758   3.402
17723WAT      O53410   0.307   6.254   2.193
17723WAT     H153411   0.312   6.213   2.284
17723WAT     H253412   0.321   6.183   2.124
17724WAT      O53413   4.036   0.109   8.580
17724WAT     H153414   4.099   0.032   8.576
17724WAT     H253415   3.987   0.108   8.667
17725WAT      O53416   8.925   9.524   9.419
17725WAT     H153417   9.012   9.572   9.414
17725WAT     H253418   8.919   9.456   9.346
17726WAT      O53419   8.322   8.311   9.709
17726WAT     H153420   8.376   8.253   9.648
17726WAT     H253421   8.236   8.265   9.732
17727WAT      O53422   5.535   6.644   9.373
17727WAT     H153423   5.440   6.650   9.404
17727WAT     H253424   5.565   6.549   9.378
17728WAT      O53425   8.085   0.661   6.726
17728WAT     H153426   8.036   0.666   6.814
17728WAT     H253427   8.054   0.580   6.676
17729WAT      O53428   4.327   0.463   8.999
17729WAT     H153429   4.334   0.393   8.928
17729WAT     H253430   4.350   0.552   8.960
17730WAT      O53431   5.528   8.471   1.980
17730WAT     H153432   5.519   8.428   1.890
17730WAT     H253433   5.567   8.562   1.969
17731WAT      O53434   0.556   8.036   7.697
17731WAT     H153435   0.468   8.077   7.723
17731WAT     H253436   0.610   8.017   7.779
17732WAT      O53437   1.738   5.716   3.266
17732WAT     H153438   1.806   5.764   3.320
17732WAT     H253439   1.648   5.724   3.311
17733WAT      O53440   3.707   0.643   0.746
17733WAT     H153441   3.744   0.573   0.685
17733WAT     H253442   3.771   0.719   0.754
17734WAT      O53443   9.577   3.054   9.822
17734WAT     H153444   9.640   3.117   9.777
17734WAT     H253445   9.575   2.967   9.772
17735WAT      O53446   7.726   7.578   5.084
17735WAT     H153447   7.749   7.663   5.131
17735WAT     H253448   7.738   7.501   5.147
17736WAT      O53449   7.027   4.681   1.499
17736WAT     H153450   6.939   4.639   1.518
17736WAT     H253451   7.034   4.700   1.401
17737WAT      O53452   2.620   2.763   4.534
17737WAT     H153453   2.620   2.863   4.538
17737WAT     H253454   2.531   2.729   4.505
17738WAT      O53455   3.021   2.148   3.628
17738WAT     H153456   2.958   2.144   3.550
17738WAT     H253457   3.038   2.056   3.662
17739WAT      O53458   0.345   9.112   9.672
17739WAT     H153459   0.320   9.182   9.605
17739WAT     H253460   0.291   9.125   9.756
17740WAT      O53461   6.595   2.223   5.988
17740WAT     H153462   6.510   2.268   6.016
17740WAT     H253463   6.588   2.125   6.006
17741WAT      O53464   2.278   7.063   5.694
17741WAT     H153465   2.358   7.088   5.749
17741WAT     H253466   2.257   6.966   5.708
17742WAT      O53467   2.114   6.305   5.053
17742WAT     H153468   2.167   6.318   5.137
17742WAT     H253469   2.135   6.216   5.014
17743WAT      O53470   3.824   7.533   3.668
17743WAT     H153471   3.856   7.605   3.730
17743WAT     H253472   3.731   7.554   3.637
17744WAT      O53473   1.558   6.134   3.243
17744WAT     H153474   1.517   6.196   3.310
17744WAT     H253475   1.646   6.101   3.277
17745WAT      O53476   4.272   8.505   1.724
17745WAT     H153477   4.231   8.444   1.792
17745WAT     H253478   4.348   8.555   1.765
17746WAT      O53479   8.101   8.552   0.625
17746WAT     H153480   8.168   8.581   0.694
17746WAT     H253481   8.031   8.623   0.615
17747WAT      O53482   5.519   5.453   8.336
17747WAT     H153483   5.594   5.475   8.273
17747WAT     H253484   5.452   5.528   8.336
17748WAT      O53485   1.836   8.260   1.380
17748WAT     H153486   1.790   8.279   1.466
17748WAT     H253487   1.812   8.168   1.349
17749WAT      O53488   6.632   4.649   9.210
17749WAT     H153489   6.719   4.600   9.219
17749WAT     H253490   6.649   4.745   9.189
17750WAT      O53491   9.017   3.006   2.413
17750WAT     H153492   9.095   2.960   2.456
17750WAT     H253493   8.939   3.004   2.476
17751WAT      O53494   2.282   9.616   7.091
17751WAT     H153495   2.200   9.570   7.126
17751WAT     H253496   2.261   9.659   7.003
17752WAT      O53497   1.675   6.367   8.950
17752WAT     H153498   1.624   6.432   9.007
17752WAT     H253499   1.754   6.413   8.910
17753WAT      O53500   6.169   3.396   4.497
17753WAT     H153501   6.166   3.297   4.484
17753WAT     H253502   6.180   3.442   4.409
17754WAT      O53503   6.194   3.725   5.255
17754WAT     H153504   6.114   3.669   5.274
17754WAT     H253505   6.200   3.799   5.322
17755WAT      O53506   6.914   3.105   8.053
17755WAT     H153507   6.819   3.092   8.082
17755WAT     H253508   6.942   3.028   7.994
17756WAT      O53509   2.001   4.491   0.831
17756WAT     H153510   2.089   4.444   0.840
17756WAT     H253511   1.971   4.524   0.921
17757WAT      O53512   1.273   1.560   3.671
17757WAT     H153513   1.319   1.608   3.597
17757WAT     H253514   1.308   1.467   3.679
17758WAT      O53515   9.613   5.865   7.103
17758WAT     H153516   9.522   5.885   7.067
17758WAT     H253517   9.663   5.950   7.116
17759WAT      O53518   4.587   3.567   6.006
17759WAT     H153519   4.594   3.493   5.940
17759WAT     H253520   4.672   3.620   6.006
17760WAT      O53521   6.027   0.672   7.797
17760WAT     H153522   5.982   0.761   7.807
17760WAT     H253523   6.057   0.640   7.887
17761WAT      O53524   0.278   3.491   3.218
17761WAT     H153525   0.201   3.489   3.154
17761WAT     H253526   0.313   3.584   3.226
17762WAT      O53527   9.428   0.887   4.950
17762WAT     H153528   9.411   0.985   4.939
17762WAT     H253529   9.351   0.835   4.913
17763WAT      O53530   8.130   0.095   8.027
17763WAT     H153531   8.043   0.123   8.066
17763WAT     H253532   8.130   0.114   7.929
17764WAT      O53533   5.838   1.093   4.993
17764WAT     H153534   5.905   1.166   5.006
17764WAT     H253535   5.856   1.047   4.905
17765WAT      O53536   8.063   1.067   0.776
17765WAT     H153537   7.984   1.081   0.715
17765WAT     H253538   8.034   1.082   0.871
17766WAT      O53539   2.251   4.945   8.143
17766WAT     H153540   2.246   4.869   8.208
17766WAT     H253541   2.198   5.022   8.178
17767WAT      O53542   2.702   1.515   1.976
17767WAT     H153543   2.717   1.417   1.984
17767WAT     H253544   2.605   1.532   1.959
17768WAT      O53545   3.936   5.910   9.108
17768WAT     H153546   4.013   5.931   9.169
17768WAT     H253547   3.872   5.850   9.157
17769WAT      O53548   2.832   3.420   0.408
17769WAT     H153549   2.899   3.350   0.384
17769WAT     H253550   2.797   3.402   0.500
17770WAT      O53551   0.579   7.085   0.562
17770WAT     H153552   0.655   7.039   0.606
17770WAT     H253553   0.534   7.023   0.498
17771WAT      O53554   7.930   8.452   1.096
17771WAT     H153555   7.858   8.497   1.042
17771WAT     H253556   7.964   8.517   1.164
17772WAT      O53557   4.355   3.297   7.416
17772WAT     H153558   4.342   3.392   7.444
17772WAT     H253559   4.453   3.275   7.416
17773WAT      O53560   8.292   2.646   7.375
17773WAT     H153561   8.285   2.587   7.295
17773WAT     H253562   8.371   2.707   7.366
17774WAT      O53563   7.791   0.055   2.523
17774WAT     H153564   7.744   0.140   2.548
17774WAT     H253565   7.888   0.073   2.508
17775WAT      O53566   5.967   5.386   5.553
17775WAT     H153567   6.011   5.300   5.579
17775WAT     H253568   5.872   5.368   5.529
17776WAT      O53569   3.839   6.973   9.135
17776WAT     H153570   3.781   6.932   9.205
17776WAT     H253571   3.932   6.936   9.143
17777WAT      O53572   1.451   8.608   2.569
17777WAT     H153573   1.483   8.638   2.479
17777WAT     H253574   1.435   8.687   2.627
17778WAT      O53575   1.581   1.856   8.957
17778WAT     H153576   1.658   1.903   9.000
17778WAT     H253577   1.592   1.757   8.966
17779WAT      O53578   3.510   7.150   4.516
17779WAT     H153579   3.437   7.218   4.511
17779WAT     H253580   3.563   7.164   4.600
17780WAT      O53581   7.170   1.201   2.775
17780WAT     H153582   7.115   1.245   2.846
17780WAT     H253583   7.231   1.268   2.734
17781WAT      O53584   0.133   9.551   2.778
17781WAT     H153585   0.051   9.494   2.789
17781WAT     H253586   0.207   9.515   2.834
17782WAT      O53587   0.038   9.492   1.085
17782WAT     H153588   0.007   9.482   0.990
17782WAT     H253589   0.137   9.479   1.090
17783WAT      O53590   0.717   3.334   8.285
17783WAT     H153591   0.658   3.385   8.347
17783WAT     H253592   0.675   3.247   8.262
17784WAT      O53593   3.621   3.172   6.825
17784WAT     H153594   3.680   3.092   6.821
17784WAT     H253595   3.634   3.219   6.912
17785WAT      O53596   2.718   8.427   9.160
17785WAT     H153597   2.649   8.458   9.225
17785WAT     H253598   2.766   8.348   9.197
17786WAT      O53599   1.212   1.695   2.864
17786WAT     H153600   1.189   1.692   2.766
17786WAT     H253601   1.127   1.692   2.917
17787WAT      O53602   6.517   3.310   6.800
17787WAT     H153603   6.537   3.267   6.888
17787WAT     H253604   6.597   3.301   6.740
17788WAT      O53605   8.739   1.433   5.996
17788WAT     H153606   8.809   1.503   6.010
17788WAT     H253607   8.777   1.357   5.944
17789WAT      O53608   5.886   9.291   9.295
17789WAT     H153609   5.981   9.277   9.321
17789WAT     H253610   5.842   9.352   9.361
17790WAT      O53611   7.140   3.505   4.724
17790WAT     H153612   7.084   3.579   4.687
17790WAT     H253613   7.151   3.434   4.655
17791WAT      O53614   8.410   6.569   3.825
17791WAT     H153615   8.498   6.581   3.873
17791WAT     H253616   8.427   6.552   3.728
17792WAT      O53617   4.367   2.071   9.031
17792WAT     H153618   4.304   2.128   9.083
17792WAT     H253619   4.317   2.021   8.961
17793WAT      O53620   2.533   6.532   0.398
17793WAT     H153621   2.499   6.486   0.480
17793WAT     H253622   2.629   6.557   0.411
17794WAT      O53623   4.556   9.528   1.100
17794WAT     H153624   4.532   9.624   1.115
17794WAT     H253625   4.656   9.517   1.107
17795WAT      O53626   5.391   8.669   1.764
17795WAT     H153627   5.342   8.704   1.683
17795WAT     H253628   5.329   8.668   1.842
17796WAT      O53629   8.958   5.172   9.827
17796WAT     H153630   8.888   5.124   9.881
17796WAT     H253631   9.039   5.113   9.818
17797WAT      O53632   5.610   6.608   7.111
17797WAT     H153633   5.620   6.707   7.125
17797WAT     H253634   5.521   6.579   7.145
17798WAT      O53635   7.514   3.595   7.603
17798WAT     H153636   7.568   3.533   7.661
17798WAT     H253637   7.574   3.662   7.561
17799WAT      O53638   3.054   4.644   0.799
17799WAT     H153639   3.005   4.578   0.742
17799WAT     H253640   3.092   4.598   0.879
17800WAT      O53641   9.297   6.029   2.812
17800WAT     H153642   9.334   6.106   2.866
17800WAT     H253643   9.369   5.962   2.796
17801WAT      O53644   9.107   8.626   7.689
17801WAT     H153645   9.132   8.533   7.663
17801WAT     H253646   9.190   8.682   7.693
17802WAT      O53647   1.194   4.921   5.432
17802WAT     H153648   1.267   4.877   5.484
17802WAT     H253649   1.138   4.977   5.493
17803WAT      O53650   5.692   5.646   5.583
17803WAT     H153651   5.650   5.732   5.613
17803WAT     H253652   5.785   5.640   5.619
17804WAT      O53653   4.452   3.289   9.694
17804WAT     H153654   4.396   3.346   9.754
17804WAT     H253655   4.422   3.300   9.599
17805WAT      O53656   4.672   3.121   3.512
17805WAT     H153657   4.625   3.080   3.434
17805WAT     H253658   4.763   3.153   3.484
17806WAT      O53659   1.528   6.957   3.065
17806WAT     H153660   1.594   6.914   3.127
17806WAT     H253661   1.516   6.900   2.984
17807WAT      O53662   9.380   0.476   0.365
17807WAT     H153663   9.298   0.424   0.344
17807WAT     H253664   9.432   0.429   0.436
17808WAT      O53665   3.348   8.044   5.333
17808WAT     H153666   3.389   8.089   5.412
17808WAT     H253667   3.406   8.057   5.253
17809WAT      O53668   8.039   0.682   9.477
17809WAT     H153669   8.082   0.756   9.426
17809WAT     H253670   8.040   0.704   9.575
17810WAT      O53671   8.384   3.712   7.122
17810WAT     H153672   8.308   3.777   7.136
17810WAT     H253673   8.347   3.620   7.112
17811WAT      O53674   6.363   6.516   2.665
17811WAT     H153675   6.444   6.487   2.715
17811WAT     H253676   6.311   6.581   2.720
17812WAT      O53677   6.060   1.483   6.952
17812WAT     H153678   6.145   1.492   6.901
17812WAT     H253679   6.078   1.494   7.050
17813WAT      O53680   0.680   7.769   6.052
17813WAT     H153681   0.639   7.846   6.003
17813WAT     H253682   0.739   7.718   5.990
17814WAT      O53683   7.396   6.226   2.169
17814WAT     H153684   7.470   6.222   2.103
17814WAT     H253685   7.429   6.194   2.258
17815WAT      O53686   9.821   1.905   7.747
17815WAT     H153687   9.862   1.951   7.669
17815WAT     H253688   9.760   1.832   7.715
17816WAT      O53689   8.326   0.943   5.085
17816WAT     H153690   8.330   0.925   5.184
17816WAT     H253691   8.348   1.040   5.069
17817WAT      O53692   2.455   1.923   3.159
17817WAT     H153693   2.364   1.946   3.192
17817WAT     H253694   2.522   1.938   3.231
17818WAT      O53695   5.593   4.678   1.413
17818WAT     H153696   5.692   4.686   1.423
17818WAT     H253697   5.552   4.658   1.502
17819WAT      O53698   5.737   3.329   1.511
17819WAT     H153699   5.799   3.402   1.541
17819WAT     H253700   5.784   3.272   1.443
17820WAT      O53701   7.379   6.441   9.721
17820WAT     H153702   7.469   6.478   9.744
17820WAT     H253703   7.358   6.364   9.782
17821WAT      O53704   2.452   2.179   6.533
17821WAT     H153705   2.439   2.114   6.607
17821WAT     H253706   2.435   2.134   6.445
17822WAT      O53707   8.651   5.933   0.927
17822WAT     H153708   8.554   5.925   0.905
17822WAT     H253709   8.702   5.862   0.878
17823WAT      O53710   9.700   1.691   4.032
17823WAT     H153711   9.704   1.598   3.996
17823WAT     H253712   9.793   1.724   4.050
17824WAT      O53713   9.257   6.846   6.929
17824WAT     H153714   9.161   6.870   6.945
17824WAT     H253715   9.311   6.866   7.011
17825WAT      O53716   6.303   3.977   9.039
17825WAT     H153717   6.232   3.910   9.020
17825WAT     H253718   6.386   3.931   9.069
17826WAT      O53719   0.445   3.388   1.040
17826WAT     H153720   0.439   3.387   0.940
17826WAT     H253721   0.540   3.370   1.068
17827WAT      O53722   9.832   5.350   7.076
17827WAT     H153723   9.761   5.308   7.019
17827WAT     H253724   9.900   5.281   7.101
17828WAT      O53725   4.005   6.797   8.549
17828WAT     H153726   4.100   6.790   8.578
17828WAT     H253727   3.985   6.725   8.483
17829WAT      O53728   7.699   5.679   4.181
17829WAT     H153729   7.652   5.666   4.094
17829WAT     H253730   7.683   5.772   4.214
17830WAT      O53731   8.577   1.216   7.724
17830WAT     H153732   8.546   1.168   7.642
17830WAT     H253733   8.504   1.216   7.793
17831WAT      O53734   6.367   0.503   7.708
17831WAT     H153735   6.393   0.567   7.634
17831WAT     H253736   6.302   0.548   7.769
17832WAT      O53737   2.659   4.232   0.150
17832WAT     H153738   2.740   4.245   0.092
17832WAT     H253739   2.586   4.189   0.097
17833WAT      O53740   7.405   8.131   1.160
17833WAT     H153741   7.466   8.128   1.081
17833WAT     H253742   7.339   8.205   1.148
17834WAT      O53743   9.854   3.157   7.568
17834WAT     H153744   9.877   3.234   7.508
17834WAT     H253745   9.938   3.110   7.595
17835WAT      O53746   9.547   9.400   0.765
17835WAT     H153747   9.494   9.416   0.682
17835WAT     H253748   9.529   9.474   0.831
17836WAT      O53749   3.167   3.205   2.653
17836WAT     H153750   3.244   3.146   2.632
17836WAT     H253751   3.083   3.164   2.619
17837WAT      O53752   7.163   7.831   4.823
17837WAT     H153753   7.200   7.790   4.740
17837WAT     H253754   7.132   7.759   4.885
17838WAT      O53755   0.421   8.332   6.103
17838WAT     H153756   0.436   8.272   6.182
17838WAT     H253757   0.477   8.414   6.113
17839WAT      O53758   0.233   3.422   9.622
17839WAT     H153759   0.157   3.487   9.630
17839WAT     H253760   0.205   3.333   9.658
17840WAT      O53761   6.695   4.359   8.406
17840WAT     H153762   6.667   4.454   8.426
17840WAT     H253763   6.732   4.318   8.489
17841WAT      O53764   0.586   1.367   8.864
17841WAT     H153765   0.654   1.428   8.823
17841WAT     H253766   0.572   1.287   8.805
17842WAT      O53767   4.422   4.909   6.506
17842WAT     H153768   4.417   4.825   6.452
17842WAT     H253769   4.341   4.966   6.487
17843WAT      O53770   0.543   2.038   3.551
17843WAT     H153771   0.519   1.969   3.483
17843WAT     H253772   0.629   2.082   3.525
17844WAT      O53773   3.311   6.583   5.761
17844WAT     H153774   3.268   6.639   5.691
17844WAT     H253775   3.247   6.514   5.793
17845WAT      O53776   2.860   2.378   2.966
17845WAT     H153777   2.936   2.435   2.935
17845WAT     H253778   2.885   2.334   3.053
17846WAT      O53779   4.886   3.735   0.369
17846WAT     H153780   4.930   3.818   0.336
17846WAT     H253781   4.956   3.668   0.395
17847WAT      O53782   2.844   6.597   5.477
17847WAT     H153783   2.877   6.518   5.529
17847WAT     H253784   2.747   6.612   5.497
17848WAT      O53785   5.147   4.893   9.826
17848WAT     H153786   5.072   4.846   9.874
17848WAT     H253787   5.154   4.857   9.732
17849WAT      O53788   0.792   4.099   2.179
17849WAT     H153789   0.887   4.070   2.170
17849WAT     H253790   0.784   4.196   2.158
17850WAT      O53791   1.315   8.206   2.004
17850WAT     H153792   1.381   8.276   2.029
17850WAT     H253793   1.233   8.216   2.060
17851WAT      O53794   4.494   3.223   7.869
17851WAT     H153795   4.425   3.274   7.818
17851WAT     H253796   4.506   3.264   7.960
17852WAT      O53797   1.732   9.267   4.000
17852WAT     H153798   1.733   9.342   3.934
17852WAT     H253799   1.771   9.298   4.086
17853WAT      O53800   8.736   7.941   1.642
17853WAT     H153801   8.732   7.945   1.542
17853WAT     H253802   8.832   7.931   1.670
17854WAT      O53803   3.853   6.943   5.257
17854WAT     H153804   3.881   6.951   5.353
17854WAT     H253805   3.915   6.880   5.210
17855WAT      O53806   7.858   0.128   0.734
17855WAT     H153807   7.796   0.075   0.793
17855WAT     H253808   7.825   0.222   0.728
17856WAT      O53809   0.871   7.125   2.908
17856WAT     H153810   0.809   7.073   2.849
17856WAT     H253811   0.946   7.162   2.854
17857WAT      O53812   8.300   7.258   5.073
17857WAT     H153813   8.300   7.189   5.000
17857WAT     H253814   8.247   7.337   5.044
17858WAT      O53815   1.687   2.608   0.271
17858WAT     H153816   1.644   2.688   0.312
17858WAT     H253817   1.770   2.636   0.223
17859WAT      O53818   4.572   1.316   7.091
17859WAT     H153819   4.663   1.282   7.115
17859WAT     H253820   4.574   1.348   6.996
17860WAT      O53821   5.207   1.576   2.899
17860WAT     H153822   5.276   1.646   2.921
17860WAT     H253823   5.132   1.619   2.848
17861WAT      O53824   2.056   8.570   1.077
17861WAT     H153825   2.138   8.551   1.023
17861WAT     H253826   2.013   8.484   1.104
17862WAT      O53827   1.875   5.597   1.509
17862WAT     H153828   1.905   5.682   1.467
17862WAT     H253829   1.855   5.529   1.438
17863WAT      O53830   6.505   4.690   0.400
17863WAT     H153831   6.562   4.615   0.369
17863WAT     H253832   6.409   4.670   0.380
17864WAT      O53833   4.843   6.050   2.194
17864WAT     H153834   4.901   6.104   2.132
17864WAT     H253835   4.770   6.006   2.143
17865WAT      O53836   9.384   3.905   9.412
17865WAT     H153837   9.410   3.999   9.390
17865WAT     H253838   9.414   3.883   9.504
17866WAT      O53839   8.171   7.207   9.462
17866WAT     H153840   8.197   7.112   9.480
17866WAT     H253841   8.131   7.213   9.370
17867WAT      O53842   7.022   6.656   8.606
17867WAT     H153843   6.977   6.740   8.574
17867WAT     H253844   7.113   6.678   8.640
17868WAT      O53845   9.516   4.572   2.745
17868WAT     H153846   9.459   4.604   2.669
17868WAT     H253847   9.601   4.626   2.747
17869WAT      O53848   3.491   8.423   3.395
17869WAT     H153849   3.421   8.493   3.409
17869WAT     H253850   3.560   8.458   3.332
17870WAT      O53851   2.321   2.627   8.267
17870WAT     H153852   2.264   2.688   8.211
17870WAT     H253853   2.417   2.648   8.252
17871WAT      O53854   1.408   5.270   4.716
17871WAT     H153855   1.369   5.348   4.667
17871WAT     H253856   1.393   5.281   4.814
17872WAT      O53857   5.338   9.627   8.560
17872WAT     H153858   5.399   9.561   8.518
17872WAT     H253859   5.243   9.600   8.543
17873WAT      O53860   5.263   7.215   7.423
17873WAT     H153861   5.340   7.251   7.371
17873WAT     H253862   5.202   7.166   7.362
17874WAT      O53863   5.917   4.039   7.974
17874WAT     H153864   5.889   3.943   7.967
17874WAT     H253865   5.848   4.096   7.930
17875WAT      O53866   6.196   0.367   3.460
17875WAT     H153867   6.155   0.296   3.403
17875WAT     H253868   6.126   0.432   3.489
17876WAT      O53869   8.762   2.638   6.343
17876WAT     H153870   8.836   2.669   6.403
17876WAT     H253871   8.799   2.571   6.278
17877WAT      O53872   6.817   3.130   9.211
17877WAT     H153873   6.865   3.121   9.298
17877WAT     H253874   6.719   3.141   9.229
17878WAT      O53875   1.344   5.048   3.546
17878WAT     H153876   1.369   4.963   3.592
17878WAT     H253877   1.347   5.124   3.612
17879WAT      O53878   1.682   4.980   0.933
17879WAT     H153879   1.582   4.981   0.932
17879WAT     H253880   1.717   5.000   0.842
17880WAT      O53881   0.884   1.440   0.636
17880WAT     H153882   0.831   1.467   0.555
17880WAT     H253883   0.828   1.383   0.695
17881WAT      O53884   2.522   4.339   5.248
17881WAT     H153885   2.525   4.335   5.148
17881WAT     H253886   2.455   4.272   5.281
17882WAT      O53887   7.448   4.098   2.479
17882WAT     H153888   7.366   4.053   2.443
17882WAT     H253889   7.496   4.035   2.540
17883WAT      O53890   7.420   6.404   4.700
17883WAT     H153891   7.327   6.438   4.687
17883WAT     H253892   7.422   6.341   4.778
17884WAT      O53893   6.647   5.585   4.007
17884WAT     H153894   6.606   5.640   4.079
17884WAT     H253895   6.688   5.645   3.939
17885WAT      O53896   0.433   7.807   8.933
17885WAT     H153897   0.476   7.826   9.021
17885WAT     H253898   0.504   7.806   8.861
17886WAT      O53899   0.906   8.792   1.349
17886WAT     H153900   0.818   8.748   1.333
17886WAT     H253901   0.980   8.729   1.326
17887WAT      O53902   4.805   1.773   9.547
17887WAT     H153903   4.748   1.704   9.503
17887WAT     H253904   4.824   1.846   9.482
17888WAT      O53905   1.323   2.681   8.634
17888WAT     H153906   1.358   2.760   8.685
17888WAT     H253907   1.318   2.704   8.536
17889WAT      O53908   6.219   3.907   9.684
17889WAT     H153909   6.205   3.918   9.585
17889WAT     H253910   6.217   3.997   9.728
17890WAT      O53911   8.066   5.469   6.226
17890WAT     H153912   7.989   5.494   6.168
17890WAT     H253913   8.045   5.383   6.274
17891WAT      O53914   0.842   2.751   1.901
17891WAT     H153915   0.808   2.783   1.812
17891WAT     H253916   0.921   2.807   1.928
17892WAT      O53917   4.693   1.396   4.491
17892WAT     H153918   4.761   1.463   4.524
17892WAT     H253919   4.612   1.401   4.550
17893WAT      O53920   4.405   6.145   7.205
17893WAT     H153921   4.459   6.107   7.281
17893WAT     H253922   4.391   6.243   7.219
17894WAT      O53923   2.088   6.950   0.667
17894WAT     H153924   2.016   7.018   0.655
17894WAT     H253925   2.168   6.993   0.709
17895WAT      O53926   6.403   8.129   2.148
17895WAT     H153927   6.419   8.171   2.238
17895WAT     H253928   6.455   8.043   2.142
17896WAT      O53929   9.243   6.897   6.624
17896WAT     H153930   9.177   6.830   6.591
17896WAT     H253931   9.231   6.909   6.723
17897WAT      O53932   3.682   0.933   6.077
17897WAT     H153933   3.628   1.017   6.081
17897WAT     H253934   3.771   0.947   6.119
17898WAT      O53935   0.178   0.485   8.245
17898WAT     H153936   0.265   0.518   8.207
17898WAT     H253937   0.129   0.562   8.286
17899WAT      O53938   0.686   3.414   9.196
17899WAT     H153939   0.624   3.479   9.154
17899WAT     H253940   0.700   3.438   9.292
17900WAT      O53941   2.743   1.163   6.714
17900WAT     H153942   2.706   1.245   6.670
17900WAT     H253943   2.706   1.082   6.669
17901WAT      O53944   7.773   9.102   2.697
17901WAT     H153945   7.767   9.040   2.619
17901WAT     H253946   7.693   9.162   2.697
17902WAT      O53947   0.933   1.074   2.613
17902WAT     H153948   0.941   1.044   2.709
17902WAT     H253949   0.858   1.140   2.605
17903WAT      O53950   8.435   5.723   0.549
17903WAT     H153951   8.496   5.653   0.585
17903WAT     H253952   8.489   5.802   0.519
17904WAT      O53953   5.514   4.729   9.236
17904WAT     H153954   5.447   4.670   9.280
17904WAT     H253955   5.579   4.762   9.304
17905WAT      O53956   7.413   3.333   8.096
17905WAT     H153957   7.461   3.400   8.040
17905WAT     H253958   7.317   3.360   8.104
17906WAT      O53959   3.994   1.594   3.950
17906WAT     H153960   4.068   1.580   3.884
17906WAT     H253961   3.938   1.672   3.921
17907WAT      O53962   5.724   5.911   3.811
17907WAT     H153963   5.741   5.954   3.900
17907WAT     H253964   5.698   5.816   3.825
17908WAT      O53965   7.865   2.597   8.098
17908WAT     H153966   7.873   2.682   8.046
17908WAT     H253967   7.898   2.612   8.191
17909WAT      O53968   9.684   2.875   1.899
17909WAT     H153969   9.780   2.890   1.923
17909WAT     H253970   9.668   2.777   1.885
17910WAT      O53971   0.508   4.827   3.703
17910WAT     H153972   0.562   4.818   3.619
17910WAT     H253973   0.423   4.776   3.693
17911WAT      O53974   7.034   1.605   5.215
17911WAT     H153975   6.984   1.622   5.130
17911WAT     H253976   7.056   1.692   5.259
17912WAT      O53977   0.882   2.346   6.921
17912WAT     H153978   0.949   2.349   6.995
17912WAT     H253979   0.818   2.271   6.937
17913WAT      O53980   7.877   7.630   1.331
17913WAT     H153981   7.970   7.603   1.309
17913WAT     H253982   7.813   7.558   1.303
17914WAT      O53983   9.113   1.195   6.746
17914WAT     H153984   9.023   1.165   6.716
17914WAT     H253985   9.120   1.295   6.737
17915WAT      O53986   3.004   6.693   7.255
17915WAT     H153987   3.081   6.672   7.194
17915WAT     H253988   3.030   6.674   7.350
17916WAT      O53989   9.695   7.711   6.545
17916WAT     H153990   9.747   7.684   6.625
17916WAT     H253991   9.649   7.631   6.506
17917WAT      O53992   8.897   8.619   3.406
17917WAT     H153993   8.878   8.696   3.344
17917WAT     H253994   8.814   8.566   3.420
17918WAT      O53995   8.147   3.932   3.929
17918WAT     H153996   8.047   3.939   3.921
17918WAT     H253997   8.176   3.839   3.906
17919WAT      O53998   0.818   2.210   8.380
17919WAT     H153999   0.780   2.127   8.337
17919WAT     H254000   0.743   2.269   8.410
17920WAT      O54001   6.647   2.153   6.728
17920WAT     H154002   6.722   2.108   6.679
17920WAT     H254003   6.656   2.135   6.826
17921WAT      O54004   2.906   0.974   2.706
17921WAT     H154005   2.969   1.052   2.712
17921WAT     H254006   2.889   0.952   2.609
17922WAT      O54007   6.780   5.866   8.509
17922WAT     H154008   6.700   5.880   8.451
17922WAT     H254009   6.822   5.778   8.486
17923WAT      O54010   1.163   3.778   3.539
17923WAT     H154011   1.254   3.813   3.520
17923WAT     H254012   1.130   3.815   3.626
17924WAT      O54013   6.070   4.189   1.560
17924WAT     H154014   6.074   4.161   1.464
17924WAT     H254015   6.157   4.167   1.604
17925WAT      O54016   8.468   4.188   3.231
17925WAT     H154017   8.469   4.276   3.184
17925WAT     H254018   8.484   4.115   3.165
17926WAT      O54019   6.760   2.082   6.414
17926WAT     H154020   6.719   2.169   6.443
17926WAT     H254021   6.857   2.095   6.397
17927WAT      O54022   1.615   7.940   0.981
17927WAT     H154023   1.561   7.893   0.910
17927WAT     H254024   1.560   8.012   1.023
17928WAT      O54025   7.371   7.408   8.264
17928WAT     H154026   7.452   7.425   8.207
17928WAT     H254027   7.356   7.487   8.324
17929WAT      O54028   3.620   9.311   4.653
17929WAT     H154029   3.649   9.305   4.558
17929WAT     H254030   3.578   9.401   4.669
17930WAT      O54031   5.428   5.284   2.033
17930WAT     H154032   5.349   5.341   2.057
17930WAT     H254033   5.495   5.287   2.107
17931WAT      O54034   1.326   0.985   9.382
17931WAT     H154035   1.409   1.008   9.434
17931WAT     H254036   1.258   1.058   9.393
17932WAT      O54037   2.303   5.602   2.997
17932WAT     H154038   2.336   5.658   2.920
17932WAT     H254039   2.356   5.624   3.079
17933WAT      O54040   8.374   0.619   0.435
17933WAT     H154041   8.331   0.552   0.375
17933WAT     H254042   8.421   0.688   0.380
17934WAT      O54043   0.800   2.149   3.504
17934WAT     H154044   0.791   2.248   3.502
17934WAT     H254045   0.888   2.124   3.543
17935WAT      O54046   9.174   2.629   4.309
17935WAT     H154047   9.155   2.622   4.211
17935WAT     H254048   9.202   2.722   4.332
17936WAT      O54049   6.333   6.736   6.414
17936WAT     H154050   6.379   6.681   6.345
17936WAT     H254051   6.382   6.822   6.427
17937WAT      O54052   1.963   5.723   3.508
17937WAT     H154053   1.987   5.793   3.441
17937WAT     H254054   1.929   5.642   3.461
17938WAT      O54055   2.873   8.752   1.106
17938WAT     H154056   2.948   8.692   1.133
17938WAT     H254057   2.900   8.806   1.025
17939WAT      O54058   5.098   5.763   5.299
17939WAT     H154059   5.081   5.812   5.384
17939WAT     H254060   5.090   5.664   5.315
17940WAT      O54061   0.193   4.767   8.916
17940WAT     H154062   0.270   4.717   8.877
17940WAT     H254063   0.221   4.861   8.936
17941WAT      O54064   2.868   2.450   5.041
17941WAT     H154065   2.847   2.544   5.017
17941WAT     H254066   2.867   2.440   5.140
17942WAT      O54067   4.411   3.044   2.727
17942WAT     H154068   4.427   2.952   2.763
17942WAT     H254069   4.331   3.084   2.771
17943WAT      O54070   9.820   6.123   8.536
17943WAT     H154071   9.867   6.087   8.456
17943WAT     H254072   9.812   6.223   8.528
17944WAT      O54073   1.062   3.686   8.276
17944WAT     H154074   1.121   3.651   8.203
17944WAT     H254075   1.113   3.688   8.362
17945WAT      O54076   1.663   2.026   0.937
17945WAT     H154077   1.599   2.038   0.860
17945WAT     H254078   1.671   1.928   0.958
17946WAT      O54079   7.023   4.744   0.162
17946WAT     H154080   7.098   4.807   0.144
17946WAT     H254081   7.053   4.676   0.230
17947WAT      O54082   2.798   1.447   6.346
17947WAT     H154083   2.855   1.367   6.364
17947WAT     H254084   2.724   1.422   6.284
17948WAT      O54085   1.768   8.321   5.720
17948WAT     H154086   1.865   8.316   5.742
17948WAT     H254087   1.755   8.372   5.635
17949WAT      O54088   4.444   3.698   5.200
17949WAT     H154089   4.487   3.766   5.259
17949WAT     H254090   4.515   3.644   5.155
17950WAT      O54091   1.999   8.416   6.022
17950WAT     H154092   2.057   8.463   6.089
17950WAT     H254093   1.918   8.380   6.068
17951WAT      O54094   4.095   1.904   6.756
17951WAT     H154095   4.077   1.865   6.846
17951WAT     H254096   4.182   1.953   6.758
17952WAT      O54097   0.416   0.727   0.145
17952WAT     H154098   0.323   0.691   0.151
17952WAT     H254099   0.459   0.694   0.060
17953WAT      O54100   4.465   5.109   0.439
17953WAT     H154101   4.445   5.032   0.379
17953WAT     H254102   4.564   5.113   0.456
17954WAT      O54103   6.074   3.490   4.225
17954WAT     H154104   5.978   3.501   4.200
17954WAT     H254105   6.119   3.579   4.230
17955WAT      O54106   0.998   0.605   0.090
17955WAT     H154107   1.001   0.695   0.047
17955WAT     H254108   0.919   0.600   0.152
17956WAT      O54109   3.264   8.915   8.017
17956WAT     H154110   3.313   8.907   8.104
17956WAT     H254111   3.296   8.844   7.954
17957WAT      O54112   8.897   0.352   2.665
17957WAT     H154113   8.880   0.360   2.764
17957WAT     H254114   8.990   0.319   2.650
17958WAT      O54115   1.143   5.026   8.052
17958WAT     H154116   1.187   5.099   8.001
17958WAT     H254117   1.212   4.962   8.085
17959WAT      O54118   0.434   8.087   8.500
17959WAT     H154119   0.403   8.143   8.577
17959WAT     H254120   0.394   8.120   8.415
17960WAT      O54121   9.009   5.686   0.949
17960WAT     H154122   9.055   5.597   0.957
17960WAT     H254123   8.920   5.681   0.992
17961WAT      O54124   1.488   6.577   6.665
17961WAT     H154125   1.521   6.608   6.755
17961WAT     H254126   1.388   6.579   6.665
17962WAT      O54127   1.091   0.594   2.130
17962WAT     H154128   1.177   0.634   2.097
17962WAT     H254129   1.088   0.497   2.106
17963WAT      O54130   5.035   4.097   9.469
17963WAT     H154131   5.122   4.051   9.485
17963WAT     H254132   4.983   4.101   9.554
17964WAT      O54133   8.474   7.809   9.549
17964WAT     H154134   8.467   7.733   9.614
17964WAT     H254135   8.568   7.844   9.549
17965WAT      O54136   4.621   3.094   5.605
17965WAT     H154137   4.635   3.189   5.636
17965WAT     H254138   4.683   3.075   5.529
17966WAT      O54139   9.845   0.557   6.337
17966WAT     H154140   9.836   0.468   6.292
17966WAT     H254141   9.920   0.553   6.404
17967WAT      O54142   6.613   7.944   1.539
17967WAT     H154143   6.645   7.934   1.633
17967WAT     H254144   6.691   7.937   1.476
17968WAT      O54145   9.132   5.866   7.513
17968WAT     H154146   9.171   5.915   7.591
17968WAT     H254147   9.193   5.873   7.435
17969WAT      O54148   1.365   0.886   0.062
17969WAT     H154149   1.369   0.821  -0.013
17969WAT     H254150   1.330   0.974   0.029
17970WAT      O54151   1.314   0.870   6.496
17970WAT     H154152   1.267   0.793   6.538
17970WAT     H254153   1.287   0.877   6.400
17971WAT      O54154   1.079   3.963   9.251
17971WAT     H154155   1.028   4.042   9.285
17971WAT     H254156   1.117   3.911   9.327
17972WAT      O54157   6.993   2.456   8.686
17972WAT     H154158   6.933   2.520   8.733
17972WAT     H254159   7.034   2.502   8.607
17973WAT      O54160   5.420   9.644   7.555
17973WAT     H154161   5.462   9.716   7.610
17973WAT     H254162   5.487   9.571   7.539
17974WAT      O54163   6.656   1.712   6.559
17974WAT     H154164   6.706   1.762   6.629
17974WAT     H254165   6.572   1.762   6.535
17975WAT      O54166   3.320   1.930   0.536
17975WAT     H154167   3.349   1.927   0.632
17975WAT     H254168   3.259   1.853   0.517
17976WAT      O54169   0.266   8.212   5.891
17976WAT     H154170   0.332   8.250   5.955
17976WAT     H254171   0.175   8.212   5.933
17977WAT      O54172   3.555   7.978   2.708
17977WAT     H154173   3.522   7.984   2.613
17977WAT     H254174   3.515   8.052   2.762
17978WAT      O54175   1.929   3.180   6.029
17978WAT     H154176   1.944   3.082   6.038
17978WAT     H254177   1.894   3.217   6.115
17979WAT      O54178   4.348   2.607   2.505
17979WAT     H154179   4.338   2.511   2.477
17979WAT     H254180   4.339   2.666   2.425
17980WAT      O54181   7.530   4.234   4.992
17980WAT     H154182   7.433   4.257   5.004
17980WAT     H254183   7.575   4.306   4.940
17981WAT      O54184   6.059   4.723   5.246
17981WAT     H154185   6.112   4.801   5.215
17981WAT     H254186   6.079   4.644   5.188
17982WAT      O54187   6.640   2.031   5.451
17982WAT     H154188   6.610   2.055   5.359
17982WAT     H254189   6.586   1.954   5.485
17983WAT      O54190   9.644   6.541   5.592
17983WAT     H154191   9.679   6.564   5.683
17983WAT     H254192   9.719   6.543   5.526
17984WAT      O54193   3.204   3.660   6.885
17984WAT     H154194   3.164   3.661   6.793
17984WAT     H254195   3.202   3.753   6.923
17985WAT      O54196   5.328   1.096   3.478
17985WAT     H154197   5.373   1.036   3.412
17985WAT     H254198   5.346   1.192   3.453
17986WAT      O54199   3.237   0.105   7.997
17986WAT     H154200   3.207   0.049   7.919
17986WAT     H254201   3.187   0.077   8.079
17987WAT      O54202   2.127   2.553   5.898
17987WAT     H154203   2.100   2.488   5.969
17987WAT     H254204   2.220   2.532   5.868
17988WAT      O54205   8.644   0.865   5.202
17988WAT     H154206   8.598   0.949   5.175
17988WAT     H254207   8.702   0.883   5.282
17989WAT      O54208   3.789   8.133   5.924
17989WAT     H154209   3.701   8.137   5.877
17989WAT     H254210   3.837   8.220   5.911
17990WAT      O54211   9.686   0.279   7.366
17990WAT     H154212   9.689   0.216   7.288
17990WAT     H254213   9.641   0.364   7.338
17991WAT      O54214   0.191   7.568   1.119
17991WAT     H154215   0.121   7.608   1.177
17991WAT     H254216   0.205   7.472   1.144
17992WAT      O54217   4.695   1.873   1.147
17992WAT     H154218   4.607   1.902   1.108
17992WAT     H254219   4.681   1.797   1.210
17993WAT      O54220   0.382   2.645   1.833
17993WAT     H154221   0.302   2.692   1.796
17993WAT     H254222   0.376   2.547   1.815
17994WAT      O54223   7.008   3.820   7.770
17994WAT     H154224   6.924   3.870   7.791
17994WAT     H254225   6.999   3.725   7.799
17995WAT      O54226   2.125   4.219   4.776
17995WAT     H154227   2.045   4.231   4.835
17995WAT     H254228   2.155   4.123   4.778
17996WAT      O54229   3.564   5.012   4.813
17996WAT     H154230   3.591   5.016   4.717
17996WAT     H254231   3.646   5.017   4.870
17997WAT      O54232   6.543   2.115   3.701
17997WAT     H154233   6.624   2.091   3.648
17997WAT     H254234   6.518   2.210   3.683
17998WAT      O54235   0.431   5.497   3.272
17998WAT     H154236   0.459   5.479   3.366
17998WAT     H254237   0.453   5.592   3.248
17999WAT      O54238   7.057   9.059   9.026
17999WAT     H154239   7.007   9.078   8.942
17999WAT     H254240   7.033   9.127   9.096
18000WAT      O54241   0.424   2.729   9.109
18000WAT     H154242   0.451   2.634   9.126
18000WAT     H254243   0.446   2.784   9.189
18001WAT      O54244   7.849   2.745   4.862
18001WAT     H154245   7.784   2.678   4.826
18001WAT     H254246   7.798   2.821   4.904
18002WAT      O54247   3.025   0.316   9.192
18002WAT     H154248   3.022   0.383   9.118
18002WAT     H254249   2.947   0.254   9.185
18003WAT      O54250   3.891   9.665   2.634
18003WAT     H154251   3.882   9.607   2.714
18003WAT     H254252   3.842   9.624   2.557
18004WAT      O54253   7.298   5.885   8.504
18004WAT     H154254   7.243   5.904   8.422
18004WAT     H254255   7.238   5.880   8.584
18005WAT      O54256   0.753   2.793   4.322
18005WAT     H154257   0.841   2.746   4.318
18005WAT     H254258   0.734   2.820   4.416
18006WAT      O54259   4.312   6.306   1.891
18006WAT     H154260   4.228   6.305   1.945
18006WAT     H254261   4.360   6.219   1.901
18007WAT      O54262   8.677   9.160   5.227
18007WAT     H154263   8.597   9.166   5.168
18007WAT     H254264   8.759   9.148   5.171
18008WAT      O54265   7.624   8.612   4.935
18008WAT     H154266   7.710   8.571   4.907
18008WAT     H254267   7.553   8.541   4.941
18009WAT      O54268   4.346   7.250   5.752
18009WAT     H154269   4.302   7.256   5.841
18009WAT     H254270   4.275   7.250   5.680
18010WAT      O54271   2.738   1.971   1.993
18010WAT     H154272   2.656   1.948   1.940
18010WAT     H254273   2.817   1.976   1.931
18011WAT      O54274   1.772   4.664   5.353
18011WAT     H154275   1.836   4.588   5.344
18011WAT     H254276   1.761   4.687   5.450
18012WAT      O54277   6.704   0.311   5.736
18012WAT     H154278   6.770   0.269   5.674
18012WAT     H254279   6.612   0.299   5.701
18013WAT      O54280   7.501   2.358   1.019
18013WAT     H154281   7.474   2.400   1.106
18013WAT     H254282   7.427   2.368   0.953
18014WAT      O54283   8.172   4.522   7.338
18014WAT     H154284   8.174   4.460   7.416
18014WAT     H254285   8.261   4.567   7.328
18015WAT      O54286   5.739   5.531   0.744
18015WAT     H154287   5.693   5.514   0.657
18015WAT     H254288   5.811   5.462   0.757
18016WAT      O54289   2.808   5.541   8.165
18016WAT     H154290   2.847   5.542   8.257
18016WAT     H254291   2.876   5.572   8.099
18017WAT      O54292   8.911   3.657   4.050
18017WAT     H154293   8.918   3.757   4.053
18017WAT     H254294   8.987   3.617   4.100
18018WAT      O54295   9.771   8.269   4.177
18018WAT     H154296   9.798   8.308   4.089
18018WAT     H254297   9.708   8.332   4.223
18019WAT      O54298   4.225   9.407   3.199
18019WAT     H154299   4.322   9.399   3.175
18019WAT     H254300   4.176   9.454   3.125
18020WAT      O54301   3.165   7.154   9.085
18020WAT     H154302   3.107   7.206   9.022
18020WAT     H254303   3.261   7.179   9.069
18021WAT      O54304   1.255   6.239   0.754
18021WAT     H154305   1.205   6.268   0.836
18021WAT     H254306   1.231   6.299   0.677
18022WAT      O54307   0.521   9.024   0.840
18022WAT     H154308   0.487   9.113   0.872
18022WAT     H254309   0.450   8.955   0.854
18023WAT      O54310   3.535   6.746   2.995
18023WAT     H154311   3.570   6.668   3.046
18023WAT     H254312   3.507   6.818   3.058
18024WAT      O54313   3.389   9.780   4.882
18024WAT     H154314   3.379   9.849   4.810
18024WAT     H254315   3.483   9.782   4.917
18025WAT      O54316   5.363   9.210   5.449
18025WAT     H154317   5.270   9.199   5.414
18025WAT     H254318   5.358   9.240   5.545
18026WAT      O54319   5.513   2.871   4.946
18026WAT     H154320   5.549   2.845   4.857
18026WAT     H254321   5.474   2.963   4.941
18027WAT      O54322   3.207   7.904   5.583
18027WAT     H154323   3.109   7.887   5.568
18027WAT     H254324   3.247   7.940   5.499
18028WAT      O54325   2.948   1.076   5.182
18028WAT     H154326   2.880   1.051   5.251
18028WAT     H254327   2.941   1.013   5.104
18029WAT      O54328   9.421   7.361   7.231
18029WAT     H154329   9.509   7.386   7.191
18029WAT     H254330   9.401   7.420   7.309
18030WAT      O54331   8.600   1.071   6.259
18030WAT     H154332   8.559   1.162   6.254
18030WAT     H254333   8.531   1.002   6.237
18031WAT      O54334   5.006   0.228   1.306
18031WAT     H154335   4.967   0.140   1.336
18031WAT     H254336   5.015   0.289   1.384
18032WAT      O54337   2.149   9.524   6.403
18032WAT     H154338   2.096   9.605   6.428
18032WAT     H254339   2.089   9.455   6.362
18033WAT      O54340   6.006   1.383   6.054
18033WAT     H154341   5.917   1.337   6.057
18033WAT     H254342   6.045   1.384   6.146
18034WAT      O54343   6.260   8.939   6.913
18034WAT     H154344   6.314   9.021   6.925
18034WAT     H254345   6.271   8.879   6.992
18035WAT      O54346   5.061   9.319   0.034
18035WAT     H154347   4.997   9.395   0.037
18035WAT     H254348   5.106   9.310   0.123
18036WAT      O54349   0.172   6.389   8.153
18036WAT     H154350   0.230   6.345   8.222
18036WAT     H254351   0.181   6.488   8.161
18037WAT      O54352   4.724   5.217   5.536
18037WAT     H154353   4.761   5.133   5.495
18037WAT     H254354   4.784   5.247   5.609
18038WAT      O54355   4.455   1.076   6.201
18038WAT     H154356   4.495   0.999   6.150
18038WAT     H254357   4.361   1.053   6.227
18039WAT      O54358   3.022   7.813   7.838
18039WAT     H154359   2.959   7.869   7.892
18039WAT     H254360   3.032   7.853   7.746
18040WAT      O54361   0.136   4.502   6.976
18040WAT     H154362   0.042   4.469   6.979
18040WAT     H254363   0.186   4.467   7.055
18041WAT      O54364   1.527   5.022   2.185
18041WAT     H154365   1.569   5.020   2.094
18041WAT     H254366   1.521   4.928   2.221
18042WAT      O54367   3.018   7.146   3.260
18042WAT     H154368   3.014   7.225   3.199
18042WAT     H254369   2.976   7.169   3.348
18043WAT      O54370   5.344   1.606   4.032
18043WAT     H154371   5.432   1.567   4.004
18043WAT     H254372   5.277   1.592   3.960
18044WAT      O54373   8.931   6.534   0.036
18044WAT     H154374   8.945   6.459  -0.028
18044WAT     H254375   8.833   6.546   0.052
18045WAT      O54376   0.764   4.758   6.528
18045WAT     H154377   0.680   4.811   6.521
18045WAT     H254378   0.812   4.759   6.440
18046WAT      O54379   5.747   5.421   4.880
18046WAT     H154380   5.789   5.388   4.795
18046WAT     H254381   5.659   5.462   4.860
18047WAT      O54382   6.366   6.804   5.022
18047WAT     H154383   6.414   6.750   5.091
18047WAT     H254384   6.294   6.858   5.066
18048WAT      O54385   4.727   2.724   2.017
18048WAT     H154386   4.806   2.726   1.956
18048WAT     H254387   4.643   2.716   1.964
18049WAT      O54388   1.109   1.051   4.683
18049WAT     H154389   1.009   1.063   4.688
18049WAT     H254390   1.130   0.972   4.626
18050WAT      O54391   2.215   5.677   5.926
18050WAT     H154392   2.176   5.743   5.991
18050WAT     H254393   2.260   5.727   5.852
18051WAT      O54394   6.569   1.021   3.387
18051WAT     H154395   6.579   1.016   3.487
18051WAT     H254396   6.537   1.111   3.361
18052WAT      O54397   4.362   8.178   6.808
18052WAT     H154398   4.290   8.116   6.776
18052WAT     H254399   4.324   8.268   6.825
18053WAT      O54400   7.295   1.444   3.619
18053WAT     H154401   7.298   1.533   3.573
18053WAT     H254402   7.208   1.435   3.668
18054WAT      O54403   8.301   0.084   1.723
18054WAT     H154404   8.268   0.008   1.780
18054WAT     H254405   8.354   0.147   1.780
18055WAT      O54406   3.532   8.272   3.797
18055WAT     H154407   3.584   8.321   3.728
18055WAT     H254408   3.570   8.180   3.809
18056WAT      O54409   0.629   7.918   9.768
18056WAT     H154410   0.721   7.945   9.737
18056WAT     H254411   0.561   7.953   9.704
18057WAT      O54412   0.494   2.276   2.719
18057WAT     H154413   0.523   2.191   2.763
18057WAT     H254414   0.396   2.290   2.734
18058WAT      O54415   2.031   9.234   6.914
18058WAT     H154416   1.962   9.165   6.937
18058WAT     H254417   2.070   9.272   6.998
18059WAT      O54418   7.113   5.400   2.814
18059WAT     H154419   7.150   5.424   2.724
18059WAT     H254420   7.175   5.431   2.886
18060WAT      O54421   5.162   7.227   9.561
18060WAT     H154422   5.202   7.151   9.511
18060WAT     H254423   5.196   7.228   9.654
18061WAT      O54424   2.407   9.169   5.904
18061WAT     H154425   2.359   9.239   5.957
18061WAT     H254426   2.476   9.212   5.846
18062WAT      O54427   2.536   4.312   4.983
18062WAT     H154428   2.504   4.275   4.896
18062WAT     H254429   2.561   4.408   4.971
18063WAT      O54430   9.211   2.800   2.143
18063WAT     H154431   9.267   2.793   2.225
18063WAT     H254432   9.260   2.852   2.073
18064WAT      O54433   6.549   3.153   3.279
18064WAT     H154434   6.572   3.075   3.337
18064WAT     H254435   6.465   3.197   3.313
18065WAT      O54436   8.645   2.213   6.625
18065WAT     H154437   8.661   2.309   6.651
18065WAT     H254438   8.549   2.190   6.639
18066WAT      O54439   2.092   2.010   2.201
18066WAT     H154440   2.113   2.000   2.299
18066WAT     H254441   2.110   2.104   2.173
18067WAT      O54442   9.705   7.916   4.035
18067WAT     H154443   9.633   7.977   4.069
18067WAT     H254444   9.791   7.935   4.084
18068WAT      O54445   3.218   1.740   5.853
18068WAT     H154446   3.270   1.819   5.884
18068WAT     H254447   3.275   1.683   5.794
18069WAT      O54448   4.180   6.412   6.620
18069WAT     H154449   4.159   6.315   6.611
18069WAT     H254450   4.159   6.459   6.534
18070WAT      O54451   9.495   0.141   9.676
18070WAT     H154452   9.400   0.164   9.656
18070WAT     H254453   9.547   0.134   9.591
18071WAT      O54454   0.266   5.958   3.764
18071WAT     H154455   0.346   6.008   3.798
18071WAT     H254456   0.288   5.912   3.678
18072WAT      O54457   6.179   8.965   9.547
18072WAT     H154458   6.083   8.971   9.575
18072WAT     H254459   6.210   8.870   9.555
18073WAT      O54460   3.585   5.628   1.149
18073WAT     H154461   3.540   5.587   1.070
18073WAT     H254462   3.638   5.708   1.120
18074WAT      O54463   5.207   3.719   6.345
18074WAT     H154464   5.282   3.687   6.287
18074WAT     H254465   5.234   3.714   6.441
18075WAT      O54466   2.803   5.485   5.112
18075WAT     H154467   2.757   5.562   5.068
18075WAT     H254468   2.878   5.519   5.169
18076WAT      O54469   0.006   1.610   4.643
18076WAT     H154470   0.082   1.569   4.694
18076WAT     H254471  -0.025   1.693   4.690
18077WAT      O54472   3.768   5.953   3.365
18077WAT     H154473   3.700   5.889   3.329
18077WAT     H254474   3.856   5.907   3.376
18078WAT      O54475   3.824   1.005   2.324
18078WAT     H154476   3.858   1.074   2.388
18078WAT     H254477   3.796   0.924   2.375
18079WAT      O54478   8.364   1.791   2.182
18079WAT     H154479   8.305   1.862   2.144
18079WAT     H254480   8.454   1.831   2.202
18080WAT      O54481   3.871   7.904   1.156
18080WAT     H154482   3.839   7.828   1.212
18080WAT     H254483   3.896   7.871   1.065
18081WAT      O54484   5.236   4.576   6.873
18081WAT     H154485   5.224   4.642   6.799
18081WAT     H254486   5.226   4.623   6.961
18082WAT      O54487   2.182   6.403   9.698
18082WAT     H154488   2.164   6.368   9.790
18082WAT     H254489   2.096   6.405   9.646
18083WAT      O54490   9.725   6.764   2.467
18083WAT     H154491   9.806   6.763   2.408
18083WAT     H254492   9.690   6.858   2.473
18084WAT      O54493   4.803   6.325   5.814
18084WAT     H154494   4.705   6.326   5.831
18084WAT     H254495   4.851   6.355   5.896
18085WAT      O54496   6.551   5.483   5.304
18085WAT     H154497   6.492   5.490   5.223
18085WAT     H254498   6.623   5.551   5.297
18086WAT      O54499   8.496   3.739   8.633
18086WAT     H154500   8.462   3.802   8.703
18086WAT     H254501   8.527   3.791   8.554
18087WAT      O54502   1.320   9.242   4.217
18087WAT     H154503   1.282   9.291   4.139
18087WAT     H254504   1.278   9.151   4.223
18088WAT      O54505   2.327   0.872   6.642
18088WAT     H154506   2.376   0.821   6.571
18088WAT     H254507   2.369   0.961   6.656
18089WAT      O54508   3.824   8.255   2.907
18089WAT     H154509   3.842   8.189   2.833
18089WAT     H254510   3.804   8.344   2.867
18090WAT      O54511   6.010   6.604   9.070
18090WAT     H154512   5.967   6.600   9.160
18090WAT     H254513   6.107   6.625   9.080
18091WAT      O54514   1.002   6.354   9.390
18091WAT     H154515   1.095   6.346   9.356
18091WAT     H254516   0.938   6.324   9.319
18092WAT      O54517   2.344   3.121   7.613
18092WAT     H154518   2.286   3.042   7.637
18092WAT     H254519   2.295   3.205   7.633
18093WAT      O54520   7.746   0.878   6.178
18093WAT     H154521   7.788   0.967   6.196
18093WAT     H254522   7.804   0.805   6.216
18094WAT      O54523   6.811   7.215   0.903
18094WAT     H154524   6.851   7.152   0.970
18094WAT     H254525   6.800   7.305   0.945
18095WAT      O54526   6.690   6.352   8.188
18095WAT     H154527   6.663   6.398   8.272
18095WAT     H254528   6.627   6.376   8.115
18096WAT      O54529   6.060   6.575   5.271
18096WAT     H154530   6.117   6.640   5.321
18096WAT     H254531   6.110   6.543   5.190
18097WAT      O54532   9.130   2.998   6.715
18097WAT     H154533   9.108   2.941   6.794
18097WAT     H254534   9.053   2.999   6.652
18098WAT      O54535   9.105   1.813   0.500
18098WAT     H154536   9.035   1.841   0.434
18098WAT     H254537   9.082   1.850   0.590
18099WAT      O54538   4.841   5.352   1.520
18099WAT     H154539   4.894   5.412   1.580
18099WAT     H254540   4.867   5.257   1.534
18100WAT      O54541   3.983   9.600   3.653
18100WAT     H154542   3.961   9.506   3.679
18100WAT     H254543   4.073   9.624   3.688
18101WAT      O54544   3.399   4.412   9.064
18101WAT     H154545   3.406   4.369   8.974
18101WAT     H254546   3.395   4.340   9.135
18102WAT      O54547   0.648   6.463   4.728
18102WAT     H154548   0.741   6.473   4.694
18102WAT     H254549   0.608   6.553   4.744
18103WAT      O54550   5.178   5.987   5.992
18103WAT     H154551   5.186   5.889   6.008
18103WAT     H254552   5.120   6.028   6.062
18104WAT      O54553   0.824   1.482   6.276
18104WAT     H154554   0.842   1.540   6.356
18104WAT     H254555   0.749   1.521   6.223
18105WAT      O54556   6.767   3.336   5.776
18105WAT     H154557   6.678   3.296   5.797
18105WAT     H254558   6.767   3.433   5.802
18106WAT      O54559   2.453   1.548   4.935
18106WAT     H154560   2.437   1.585   5.026
18106WAT     H254561   2.433   1.450   4.935
18107WAT      O54562   8.600   2.376   5.017
18107WAT     H154563   8.579   2.428   5.100
18107WAT     H254564   8.515   2.339   4.979
18108WAT      O54565   6.269   0.493   8.119
18108WAT     H154566   6.250   0.427   8.046
18108WAT     H254567   6.189   0.552   8.132
18109WAT      O54568   1.467   2.856   3.521
18109WAT     H154569   1.384   2.867   3.574
18109WAT     H254570   1.444   2.840   3.425
18110WAT      O54571   4.539   6.105   5.229
18110WAT     H154572   4.562   6.178   5.292
18110WAT     H254573   4.517   6.022   5.281
18111WAT      O54574   3.717   9.162   1.071
18111WAT     H154575   3.621   9.137   1.065
18111WAT     H254576   3.755   9.170   0.978
18112WAT      O54577   8.117   2.580   7.853
18112WAT     H154578   8.104   2.518   7.930
18112WAT     H254579   8.192   2.643   7.874
18113WAT      O54580   0.422   0.306   8.330
18113WAT     H154581   0.365   0.261   8.261
18113WAT     H254582   0.493   0.361   8.285
18114WAT      O54583   7.193   2.635   0.470
18114WAT     H154584   7.244   2.718   0.448
18114WAT     H254585   7.137   2.650   0.551
18115WAT      O54586   3.737   8.585   0.613
18115WAT     H154587   3.679   8.507   0.636
18115WAT     H254588   3.767   8.577   0.518
18116WAT      O54589   4.543   2.905   9.286
18116WAT     H154590   4.499   2.825   9.245
18116WAT     H254591   4.637   2.912   9.252
18117WAT      O54592   8.519   3.971   5.615
18117WAT     H154593   8.426   4.005   5.602
18117WAT     H254594   8.540   3.966   5.713
18118WAT      O54595   1.096   4.523   0.031
18118WAT     H154596   1.001   4.553   0.041
18118WAT     H254597   1.116   4.504  -0.065
18119WAT      O54598   1.774   3.126   3.208
18119WAT     H154599   1.842   3.193   3.237
18119WAT     H254600   1.710   3.109   3.282
18120WAT      O54601   0.895   1.094   3.319
18120WAT     H154602   0.971   1.156   3.301
18120WAT     H254603   0.809   1.136   3.289
18121WAT      O54604   3.770   2.566   9.722
18121WAT     H154605   3.843   2.634   9.724
18121WAT     H254606   3.686   2.605   9.760
18122WAT      O54607   0.704   0.754   6.000
18122WAT     H154608   0.612   0.729   5.968
18122WAT     H254609   0.767   0.754   5.923
18123WAT      O54610   5.516   5.045   0.361
18123WAT     H154611   5.553   4.997   0.440
18123WAT     H254612   5.507   4.981   0.284
18124WAT      O54613   2.314   9.302   4.966
18124WAT     H154614   2.278   9.237   4.899
18124WAT     H254615   2.333   9.254   5.052
18125WAT      O54616   0.544   9.336   6.329
18125WAT     H154617   0.486   9.259   6.305
18125WAT     H254618   0.559   9.394   6.249
18126WAT      O54619   3.645   0.853   8.620
18126WAT     H154620   3.601   0.890   8.538
18126WAT     H254621   3.584   0.789   8.666
18127WAT      O54622   4.151   2.535   4.716
18127WAT     H154623   4.221   2.498   4.777
18127WAT     H254624   4.194   2.598   4.651
18128WAT      O54625   5.330   1.901   2.072
18128WAT     H154626   5.262   1.971   2.093
18128WAT     H254627   5.334   1.835   2.148
18129WAT      O54628   1.775   3.412   9.088
18129WAT     H154629   1.694   3.467   9.067
18129WAT     H254630   1.846   3.429   9.019
18130WAT      O54631   0.573   2.008   0.772
18130WAT     H154632   0.485   1.961   0.761
18130WAT     H254633   0.617   2.017   0.682
18131WAT      O54634   2.741   1.027   3.945
18131WAT     H154635   2.829   1.009   3.902
18131WAT     H254636   2.730   0.969   4.025
18132WAT      O54637   0.564   7.794   3.123
18132WAT     H154638   0.580   7.697   3.142
18132WAT     H254639   0.593   7.848   3.202
18133WAT      O54640   7.190   2.263   6.311
18133WAT     H154641   7.243   2.266   6.397
18133WAT     H254642   7.145   2.351   6.297
18134WAT      O54643   8.055   0.830   4.746
18134WAT     H154644   8.123   0.793   4.809
18134WAT     H254645   8.041   0.766   4.671
18135WAT      O54646   9.878   9.327   1.760
18135WAT     H154647   9.910   9.422   1.763
18135WAT     H254648   9.956   9.266   1.743
18136WAT      O54649   6.020   5.162   7.933
18136WAT     H154650   5.963   5.112   7.867
18136WAT     H254651   6.024   5.110   8.019
18137WAT      O54652   0.050   4.555   5.469
18137WAT     H154653   0.115   4.623   5.503
18137WAT     H254654   0.094   4.498   5.400
18138WAT      O54655   1.266   5.256   7.955
18138WAT     H154656   1.280   5.300   8.043
18138WAT     H254657   1.226   5.322   7.891
18139WAT      O54658   5.326   0.374   7.349
18139WAT     H154659   5.336   0.290   7.295
18139WAT     H254660   5.374   0.449   7.304
18140WAT      O54661   3.300   4.944   7.552
18140WAT     H154662   3.340   5.024   7.507
18140WAT     H254663   3.320   4.948   7.650
18141WAT      O54664   8.086   1.543   5.592
18141WAT     H154665   8.154   1.543   5.665
18141WAT     H254666   8.018   1.614   5.610
18142WAT      O54667   9.313   4.348   1.556
18142WAT     H154668   9.366   4.331   1.639
18142WAT     H254669   9.222   4.308   1.566
18143WAT      O54670   4.864   5.717   2.981
18143WAT     H154671   4.789   5.733   3.046
18143WAT     H254672   4.901   5.805   2.951
18144WAT      O54673   4.003   8.252   7.015
18144WAT     H154674   3.908   8.270   6.992
18144WAT     H254675   4.021   8.280   7.110
18145WAT      O54676   5.219   4.984   6.982
18145WAT     H154677   5.318   5.000   6.980
18145WAT     H254678   5.183   4.986   6.889
18146WAT      O54679   5.237   5.336   9.138
18146WAT     H154680   5.280   5.291   9.217
18146WAT     H254681   5.240   5.435   9.150
18147WAT      O54682   2.241   7.075   9.706
18147WAT     H154683   2.217   6.980   9.724
18147WAT     H254684   2.287   7.113   9.786
18148WAT      O54685   5.208   4.851   1.880
18148WAT     H154686   5.238   4.943   1.855
18148WAT     H254687   5.139   4.819   1.815
18149WAT      O54688   6.019   5.430   7.179
18149WAT     H154689   5.962   5.512   7.174
18149WAT     H254690   6.113   5.453   7.153
18150WAT      O54691   9.567   8.330   5.130
18150WAT     H154692   9.624   8.265   5.079
18150WAT     H254693   9.484   8.349   5.077
18151WAT      O54694   9.727   0.351   4.611
18151WAT     H154695   9.771   0.441   4.607
18151WAT     H254696   9.690   0.336   4.702
18152WAT      O54697   4.030   3.923   7.550
18152WAT     H154698   4.091   3.952   7.623
18152WAT     H254699   4.045   3.979   7.469
18153WAT      O54700   6.259   2.436   0.524
18153WAT     H154701   6.161   2.439   0.502
18153WAT     H254702   6.281   2.511   0.586
18154WAT      O54703   3.277   0.959   7.484
18154WAT     H154704   3.183   0.993   7.480
18154WAT     H254705   3.334   1.009   7.419
18155WAT      O54706   6.414   8.266   8.281
18155WAT     H154707   6.347   8.207   8.236
18155WAT     H254708   6.367   8.342   8.325
18156WAT      O54709   5.370   8.084   7.407
18156WAT     H154710   5.379   7.985   7.419
18156WAT     H254711   5.460   8.126   7.410
18157WAT      O54712   9.002   6.972   6.978
18157WAT     H154713   9.008   7.021   7.064
18157WAT     H254714   8.940   7.020   6.916
18158WAT      O54715   5.856   5.719   4.354
18158WAT     H154716   5.911   5.727   4.270
18158WAT     H254717   5.852   5.807   4.400
18159WAT      O54718   0.277   9.282   5.644
18159WAT     H154719   0.231   9.256   5.558
18159WAT     H254720   0.221   9.349   5.692
18160WAT      O54721   4.302   1.587   5.086
18160WAT     H154722   4.315   1.669   5.142
18160WAT     H254723   4.204   1.573   5.071
18161WAT      O54724   9.535   2.388   0.561
18161WAT     H154725   9.618   2.336   0.580
18161WAT     H254726   9.488   2.350   0.481
18162WAT      O54727   1.108   0.496   0.315
18162WAT     H154728   1.090   0.548   0.232
18162WAT     H254729   1.186   0.436   0.299
18163WAT      O54730   6.303   4.055   0.256
18163WAT     H154731   6.402   4.064   0.262
18163WAT     H254732   6.262   4.082   0.344
18164WAT      O54733   1.882   1.704   5.619
18164WAT     H154734   1.872   1.747   5.529
18164WAT     H254735   1.831   1.757   5.687
18165WAT      O54736   7.224   3.209   9.804
18165WAT     H154737   7.249   3.214   9.901
18165WAT     H254738   7.127   3.232   9.793
18166WAT      O54739   8.713   6.363   7.269
18166WAT     H154740   8.726   6.392   7.174
18166WAT     H254741   8.631   6.407   7.305
18167WAT      O54742   1.627   7.527   8.414
18167WAT     H154743   1.621   7.626   8.405
18167WAT     H254744   1.683   7.490   8.340
18168WAT      O54745   4.819   1.948   9.330
18168WAT     H154746   4.818   2.048   9.319
18168WAT     H254747   4.794   1.905   9.243
18169WAT      O54748   2.312   7.070   0.820
18169WAT     H154749   2.390   7.061   0.759
18169WAT     H254750   2.296   7.166   0.841
18170WAT      O54751   5.721   0.389   5.806
18170WAT     H154752   5.630   0.425   5.788
18170WAT     H254753   5.781   0.409   5.729
18171WAT      O54754   3.906   9.477   2.848
18171WAT     H154755   3.842   9.502   2.921
18171WAT     H254756   3.907   9.378   2.836
18172WAT      O54757   2.889   6.808   0.078
18172WAT     H154758   2.810   6.851   0.035
18172WAT     H254759   2.878   6.709   0.077
18173WAT      O54760   6.821   6.433   3.502
18173WAT     H154761   6.854   6.510   3.557
18173WAT     H254762   6.898   6.388   3.458
18174WAT      O54763   1.629   0.866   2.293
18174WAT     H154764   1.702   0.818   2.245
18174WAT     H254765   1.552   0.803   2.308
18175WAT      O54766   1.303   2.884   2.186
18175WAT     H154767   1.397   2.872   2.219
18175WAT     H254768   1.241   2.832   2.244
18176WAT      O54769   3.847   1.998   8.997
18176WAT     H154770   3.775   1.931   8.982
18176WAT     H254771   3.818   2.063   9.067
18177WAT      O54772   8.220   9.042   4.609
18177WAT     H154773   8.135   9.027   4.659
18177WAT     H254774   8.204   9.024   4.512
18178WAT      O54775   6.704   3.748   4.802
18178WAT     H154776   6.741   3.784   4.888
18178WAT     H254777   6.615   3.789   4.785
18179WAT      O54778   3.284   8.435   9.388
18179WAT     H154779   3.321   8.429   9.481
18179WAT     H254780   3.360   8.430   9.322
18180WAT      O54781   0.627   0.465   1.908
18180WAT     H154782   0.701   0.424   1.960
18180WAT     H254783   0.638   0.443   1.811
18181WAT      O54784   1.180   2.809   5.500
18181WAT     H154785   1.108   2.813   5.431
18181WAT     H254786   1.198   2.901   5.536
18182WAT      O54787   4.420   4.075   9.254
18182WAT     H154788   4.441   4.173   9.249
18182WAT     H254789   4.414   4.047   9.350
18183WAT      O54790   5.156   4.489   5.229
18183WAT     H154791   5.058   4.496   5.249
18183WAT     H254792   5.175   4.530   5.140
18184WAT      O54793   1.497   0.326   9.329
18184WAT     H154794   1.509   0.401   9.264
18184WAT     H254795   1.429   0.352   9.398
18185WAT      O54796   1.495   5.927   6.111
18185WAT     H154797   1.492   6.024   6.084
18185WAT     H254798   1.579   5.886   6.074
18186WAT      O54799   1.576   4.325   0.625
18186WAT     H154800   1.557   4.358   0.533
18186WAT     H254801   1.542   4.231   0.634
18187WAT      O54802   8.966   8.375   9.366
18187WAT     H154803   8.929   8.324   9.288
18187WAT     H254804   8.912   8.356   9.447
18188WAT      O54805   8.336   7.502   8.090
18188WAT     H154806   8.311   7.530   7.997
18188WAT     H254807   8.324   7.404   8.100
18189WAT      O54808   2.973   6.095   0.113
18189WAT     H154809   2.987   6.118   0.209
18189WAT     H254810   3.000   6.001   0.096
18190WAT      O54811   3.076   4.098   7.589
18190WAT     H154812   3.139   4.025   7.563
18190WAT     H254813   3.115   4.186   7.565
18191WAT      O54814   0.455   6.762   9.618
18191WAT     H154815   0.386   6.835   9.620
18191WAT     H254816   0.409   6.674   9.602
18192WAT      O54817   1.690   2.795   6.815
18192WAT     H154818   1.768   2.763   6.869
18192WAT     H254819   1.720   2.814   6.722
18193WAT      O54820   7.992   9.155   4.194
18193WAT     H154821   8.062   9.218   4.161
18193WAT     H254822   7.984   9.078   4.131
18194WAT      O54823   9.675   0.610   2.247
18194WAT     H154824   9.685   0.709   2.257
18194WAT     H254825   9.762   0.565   2.267
18195WAT      O54826   6.412   7.917   0.539
18195WAT     H154827   6.368   7.986   0.482
18195WAT     H254828   6.458   7.850   0.480
18196WAT      O54829   9.845   0.810   1.958
18196WAT     H154830   9.865   0.713   1.951
18196WAT     H254831   9.922   0.858   2.000
18197WAT      O54832   9.029   5.499   8.157
18197WAT     H154833   9.028   5.401   8.136
18197WAT     H254834   9.088   5.547   8.093
18198WAT      O54835   7.877   5.321   3.520
18198WAT     H154836   7.824   5.244   3.557
18198WAT     H254837   7.899   5.385   3.594
18199WAT      O54838   8.872   3.128   3.769
18199WAT     H154839   8.963   3.092   3.792
18199WAT     H254840   8.881   3.221   3.732
18200WAT      O54841   4.898   0.576   6.311
18200WAT     H154842   4.843   0.641   6.362
18200WAT     H254843   4.995   0.598   6.322
18201WAT      O54844   8.094   8.435   1.901
18201WAT     H154845   8.096   8.406   1.805
18201WAT     H254846   8.156   8.513   1.913
18202WAT      O54847   0.818   8.685   8.463
18202WAT     H154848   0.847   8.764   8.516
18202WAT     H254849   0.898   8.638   8.426
18203WAT      O54850   0.484   1.653   4.926
18203WAT     H154851   0.468   1.575   4.866
18203WAT     H254852   0.486   1.622   5.021
18204WAT      O54853   2.340   3.014   4.558
18204WAT     H154854   2.332   3.081   4.485
18204WAT     H254855   2.278   2.937   4.540
18205WAT      O54856   1.710   6.201   9.882
18205WAT     H154857   1.633   6.246   9.837
18205WAT     H254858   1.677   6.130   9.943
18206WAT      O54859   3.081   0.243   5.351
18206WAT     H154860   3.130   0.173   5.403
18206WAT     H254861   3.053   0.206   5.263
18207WAT      O54862   3.541   4.146   5.733
18207WAT     H154863   3.491   4.218   5.685
18207WAT     H254864   3.633   4.140   5.695
18208WAT      O54865   9.604   1.357   0.347
18208WAT     H154866   9.585   1.456   0.347
18208WAT     H254867   9.517   1.307   0.342
18209WAT      O54868   4.803   8.448   3.524
18209WAT     H154869   4.894   8.439   3.565
18209WAT     H254870   4.795   8.385   3.447
18210WAT      O54871   0.296   5.891   1.056
18210WAT     H154872   0.238   5.969   1.079
18210WAT     H254873   0.391   5.923   1.046
18211WAT      O54874   7.246   8.701   6.776
18211WAT     H154875   7.212   8.762   6.847
18211WAT     H254876   7.316   8.640   6.815
18212WAT      O54877   4.491   9.044   1.840
18212WAT     H154878   4.424   9.072   1.771
18212WAT     H254879   4.444   9.027   1.926
18213WAT      O54880   8.114   3.543   0.529
18213WAT     H154881   8.147   3.482   0.457
18213WAT     H254882   8.043   3.603   0.492
18214WAT      O54883   3.580   4.813   6.879
18214WAT     H154884   3.589   4.716   6.855
18214WAT     H254885   3.578   4.822   6.978
18215WAT      O54886   8.347   1.423   2.449
18215WAT     H154887   8.354   1.343   2.390
18215WAT     H254888   8.287   1.491   2.406
18216WAT      O54889   0.051   8.388   0.016
18216WAT     H154890   0.126   8.377  -0.050
18216WAT     H254891   0.073   8.338   0.100
18217WAT      O54892   8.818   5.216   2.301
18217WAT     H154893   8.724   5.231   2.272
18217WAT     H254894   8.837   5.118   2.302
18218WAT      O54895   1.457   1.056   8.877
18218WAT     H154896   1.425   1.007   8.797
18218WAT     H254897   1.510   0.994   8.935
18219WAT      O54898   2.020   5.256   9.711
18219WAT     H154899   2.066   5.244   9.800
18219WAT     H254900   2.080   5.222   9.639
18220WAT      O54901   9.707   8.435   6.719
18220WAT     H154902   9.661   8.523   6.732
18220WAT     H254903   9.686   8.400   6.628
18221WAT      O54904   6.627   7.375   4.844
18221WAT     H154905   6.713   7.325   4.857
18221WAT     H254906   6.619   7.403   4.749
18222WAT      O54907   3.594   2.683   6.101
18222WAT     H154908   3.589   2.746   6.024
18222WAT     H254909   3.507   2.683   6.150
18223WAT      O54910   5.868   5.467   1.713
18223WAT     H154911   5.804   5.505   1.648
18223WAT     H254912   5.868   5.521   1.797
18224WAT      O54913   7.811   7.383   8.505
18224WAT     H154914   7.756   7.371   8.588
18224WAT     H254915   7.884   7.448   8.522
18225WAT      O54916   9.475   3.004   4.411
18225WAT     H154917   9.483   3.084   4.352
18225WAT     H254918   9.534   2.931   4.376
18226WAT      O54919   2.308   1.461   6.644
18226WAT     H154920   2.397   1.471   6.601
18226WAT     H254921   2.312   1.495   6.738
18227WAT      O54922   8.694   4.507   1.664
18227WAT     H154923   8.780   4.502   1.612
18227WAT     H254924   8.620   4.468   1.609
18228WAT      O54925   0.237   6.952   9.259
18228WAT     H154926   0.196   6.904   9.181
18228WAT     H254927   0.255   6.886   9.332
18229WAT      O54928   6.523   6.404   7.975
18229WAT     H154929   6.524   6.497   7.939
18229WAT     H254930   6.429   6.373   7.985
18230WAT      O54931   5.821   8.114   8.736
18230WAT     H154932   5.824   8.048   8.812
18230WAT     H254933   5.784   8.069   8.655
18231WAT      O54934   6.953   3.153   2.350
18231WAT     H154935   7.048   3.143   2.322
18231WAT     H254936   6.893   3.118   2.278
18232WAT      O54937   9.302   6.168   7.619
18232WAT     H154938   9.366   6.123   7.556
18232WAT     H254939   9.278   6.105   7.693
18233WAT      O54940   2.572   7.424   5.199
18233WAT     H154941   2.551   7.357   5.127
18233WAT     H254942   2.671   7.433   5.208
18234WAT      O54943   4.805   2.557   2.239
18234WAT     H154944   4.766   2.628   2.297
18234WAT     H254945   4.803   2.587   2.144
18235WAT      O54946   3.338   5.302   8.269
18235WAT     H154947   3.359   5.320   8.365
18235WAT     H254948   3.246   5.336   8.248
18236WAT      O54949   5.964   4.895   8.746
18236WAT     H154950   6.042   4.944   8.785
18236WAT     H254951   5.995   4.833   8.674
18237WAT      O54952   8.806   2.122   5.313
18237WAT     H154953   8.798   2.143   5.216
18237WAT     H254954   8.764   2.195   5.367
18238WAT      O54955   4.594   4.262   6.322
18238WAT     H154956   4.636   4.308   6.401
18238WAT     H254957   4.590   4.164   6.339
18239WAT      O54958   7.762   6.760   3.235
18239WAT     H154959   7.752   6.671   3.191
18239WAT     H254960   7.773   6.831   3.165
18240WAT      O54961   8.988   8.641   9.430
18240WAT     H154962   8.911   8.682   9.382
18240WAT     H254963   8.987   8.542   9.418
18241WAT      O54964   8.571   4.781   4.719
18241WAT     H154965   8.659   4.734   4.718
18241WAT     H254966   8.497   4.713   4.715
18242WAT      O54967   5.268   7.207   3.874
18242WAT     H154968   5.292   7.114   3.848
18242WAT     H254969   5.201   7.244   3.810
18243WAT      O54970   2.590   2.830   3.649
18243WAT     H154971   2.602   2.901   3.579
18243WAT     H254972   2.633   2.745   3.619
18244WAT      O54973   8.096   2.579   6.338
18244WAT     H154974   8.152   2.583   6.255
18244WAT     H254975   8.084   2.672   6.375
18245WAT      O54976   0.918   5.786   8.986
18245WAT     H154977   0.893   5.801   8.890
18245WAT     H254978   1.009   5.744   8.990
18246WAT      O54979   0.772   0.151   6.356
18246WAT     H154980   0.817   0.194   6.278
18246WAT     H254981   0.721   0.071   6.325
18247WAT      O54982   8.851   4.815   2.823
18247WAT     H154983   8.779   4.854   2.765
18247WAT     H254984   8.826   4.723   2.850
18248WAT      O54985   5.890   2.379   3.343
18248WAT     H154986   5.794   2.392   3.319
18248WAT     H254987   5.905   2.283   3.366
18249WAT      O54988   9.019   5.732   2.228
18249WAT     H154989   9.000   5.707   2.322
18249WAT     H254990   9.026   5.650   2.171
18250WAT      O54991   6.900   8.183   0.219
18250WAT     H154992   6.979   8.242   0.237
18250WAT     H254993   6.842   8.179   0.300
18251WAT      O54994   1.141   0.773   8.053
18251WAT     H154995   1.067   0.829   8.015
18251WAT     H254996   1.104   0.686   8.086
18252WAT      O54997   3.950   0.180   6.581
18252WAT     H154998   3.868   0.206   6.632
18252WAT     H254999   3.950   0.227   6.492
18253WAT      O55000   6.184   9.599   2.761
18253WAT     H155001   6.166   9.617   2.664
18253WAT     H255002   6.261   9.536   2.770
18254WAT      O55003   7.140   1.690   1.064
18254WAT     H155004   7.212   1.700   0.995
18254WAT     H255005   7.093   1.603   1.051
18255WAT      O55006   6.976   3.862   8.952
18255WAT     H155007   6.943   3.771   8.926
18255WAT     H255008   7.074   3.859   8.969
18256WAT      O55009   6.576   2.921   3.453
18256WAT     H155010   6.493   2.902   3.506
18256WAT     H255011   6.580   2.862   3.373
18257WAT      O55012   0.385   3.421   0.392
18257WAT     H155013   0.443   3.378   0.323
18257WAT     H255014   0.326   3.489   0.348
18258WAT      O55015   8.762   4.479   7.385
18258WAT     H155016   8.839   4.417   7.403
18258WAT     H255017   8.680   4.443   7.430
18259WAT      O55018   4.385   0.841   0.347
18259WAT     H155019   4.415   0.753   0.383
18259WAT     H255020   4.323   0.884   0.412
18260WAT      O55021   5.287   5.635   8.903
18260WAT     H155022   5.286   5.733   8.925
18260WAT     H255023   5.239   5.620   8.817
18261WAT      O55024   2.979   9.048   1.089
18261WAT     H155025   2.958   9.039   0.991
18261WAT     H255026   2.896   9.069   1.139
18262WAT      O55027   4.848   2.749   7.315
18262WAT     H155028   4.899   2.734   7.399
18262WAT     H255029   4.755   2.777   7.337
18263WAT      O55030   7.454   1.262   5.835
18263WAT     H155031   7.497   1.293   5.920
18263WAT     H255032   7.379   1.200   5.856
18264WAT      O55033   8.854   5.583   9.465
18264WAT     H155034   8.769   5.532   9.480
18264WAT     H255035   8.852   5.626   9.375
18265WAT      O55036   2.000   3.986   2.007
18265WAT     H155037   1.976   4.053   1.937
18265WAT     H255038   2.091   3.950   1.989
18266WAT      O55039   8.692   2.018   3.554
18266WAT     H155040   8.713   1.943   3.492
18266WAT     H255041   8.628   2.081   3.509
18267WAT      O55042   9.887   6.409   6.449
18267WAT     H155043   9.883   6.496   6.498
18267WAT     H255044   9.822   6.410   6.373
18268WAT      O55045   6.206   5.514   0.194
18268WAT     H155046   6.277   5.532   0.126
18268WAT     H255047   6.133   5.459   0.152
18269WAT      O55048   4.652   7.851   6.705
18269WAT     H155049   4.586   7.894   6.643
18269WAT     H255050   4.707   7.922   6.749
18270WAT      O55051   1.676   9.510   2.686
18270WAT     H155052   1.757   9.452   2.682
18270WAT     H255053   1.702   9.602   2.717
18271WAT      O55054   9.273   8.776   3.548
18271WAT     H155055   9.255   8.874   3.537
18271WAT     H255056   9.191   8.730   3.580
18272WAT      O55057   0.657   8.936   7.794
18272WAT     H155058   0.728   9.004   7.815
18272WAT     H255059   0.675   8.852   7.846
18273WAT      O55060   1.437   8.643   5.441
18273WAT     H155061   1.387   8.613   5.522
18273WAT     H255062   1.469   8.737   5.454
18274WAT      O55063   4.563   6.450   9.143
18274WAT     H155064   4.465   6.462   9.131
18274WAT     H255065   4.592   6.493   9.228
18275WAT      O55066   1.831   0.443   2.744
18275WAT     H155067   1.778   0.489   2.815
18275WAT     H255068   1.907   0.502   2.716
18276WAT      O55069   4.298   8.043   5.948
18276WAT     H155070   4.351   8.081   5.872
18276WAT     H255071   4.317   8.096   6.031
18277WAT      O55072   4.219   3.169   6.574
18277WAT     H155073   4.138   3.136   6.622
18277WAT     H255074   4.256   3.249   6.621
18278WAT      O55075   3.850   0.504   2.735
18278WAT     H155076   3.931   0.560   2.751
18278WAT     H255077   3.829   0.503   2.637
18279WAT      O55078   5.245   4.542   1.338
18279WAT     H155079   5.153   4.503   1.346
18279WAT     H255080   5.312   4.472   1.364
18280WAT      O55081   3.888   3.681   8.693
18280WAT     H155082   3.967   3.685   8.755
18280WAT     H255083   3.858   3.587   8.683
18281WAT      O55084   0.113   1.866   4.334
18281WAT     H155085   0.039   1.799   4.341
18281WAT     H255086   0.121   1.917   4.420
18282WAT      O55087   1.340   7.601   1.054
18282WAT     H155088   1.437   7.597   1.076
18282WAT     H255089   1.288   7.549   1.123
18283WAT      O55090   8.697   4.152   0.490
18283WAT     H155091   8.752   4.071   0.511
18283WAT     H255092   8.753   4.234   0.501
18284WAT      O55093   6.142   9.362   7.281
18284WAT     H155094   6.165   9.396   7.372
18284WAT     H255095   6.106   9.269   7.289
18285WAT      O55096   5.472   1.013   6.149
18285WAT     H155097   5.468   1.105   6.110
18285WAT     H255098   5.385   0.966   6.131
18286WAT      O55099   8.543   4.914   0.280
18286WAT     H155100   8.524   4.884   0.374
18286WAT     H255101   8.570   4.835   0.225
18287WAT      O55102   9.039   5.808   3.297
18287WAT     H155103   9.028   5.738   3.226
18287WAT     H255104   8.956   5.863   3.304
18288WAT      O55105   8.762   5.423   0.359
18288WAT     H155106   8.687   5.359   0.343
18288WAT     H255107   8.725   5.516   0.368
18289WAT      O55108   5.501   7.528   4.100
18289WAT     H155109   5.445   7.447   4.121
18289WAT     H255110   5.447   7.611   4.115
18290WAT      O55111   4.161   9.650   0.520
18290WAT     H155112   4.114   9.719   0.465
18290WAT     H255113   4.161   9.563   0.471
18291WAT      O55114   1.100   6.908   6.204
18291WAT     H155115   1.173   6.910   6.272
18291WAT     H255116   1.134   6.865   6.120
18292WAT      O55117   7.886   3.659   2.166
18292WAT     H155118   7.821   3.670   2.090
18292WAT     H255119   7.977   3.640   2.130
18293WAT      O55120   0.908   4.766   0.068
18293WAT     H155121   0.814   4.765   0.034
18293WAT     H255122   0.970   4.794  -0.006
18294WAT      O55123   2.243   7.844   0.985
18294WAT     H155124   2.289   7.770   0.935
18294WAT     H255125   2.312   7.901   1.030
18295WAT      O55126   5.729   4.173   4.363
18295WAT     H155127   5.761   4.167   4.458
18295WAT     H255128   5.727   4.269   4.335
18296WAT      O55129   4.603   0.079   7.991
18296WAT     H155130   4.677   0.073   8.058
18296WAT     H255131   4.625   0.021   7.912
18297WAT      O55132   4.244   8.160   8.211
18297WAT     H155133   4.223   8.244   8.160
18297WAT     H255134   4.248   8.181   8.309
18298WAT      O55135   6.936   6.012   5.726
18298WAT     H155136   6.928   6.106   5.692
18298WAT     H255137   6.930   5.948   5.649
18299WAT      O55138   8.219   3.493   5.281
18299WAT     H155139   8.230   3.441   5.196
18299WAT     H255140   8.300   3.549   5.297
18300WAT      O55141   7.205   7.035   5.489
18300WAT     H155142   7.232   7.044   5.585
18300WAT     H255143   7.269   7.086   5.431
18301WAT      O55144   5.388   8.429   2.213
18301WAT     H155145   5.425   8.450   2.123
18301WAT     H255146   5.426   8.492   2.280
18302WAT      O55147   6.492   5.698   9.518
18302WAT     H155148   6.393   5.712   9.506
18302WAT     H255149   6.534   5.784   9.546
18303WAT      O55150   9.234   7.553   1.851
18303WAT     H155151   9.258   7.640   1.894
18303WAT     H255152   9.264   7.478   1.910
18304WAT      O55153   8.271   7.982   4.168
18304WAT     H155154   8.221   7.929   4.236
18304WAT     H255155   8.207   8.028   4.106
18305WAT      O55156   5.097   5.874   2.523
18305WAT     H155157   5.109   5.973   2.518
18305WAT     H255158   5.182   5.831   2.553
18306WAT      O55159   0.047   7.054   5.300
18306WAT     H155160   0.041   7.135   5.243
18306WAT     H255161   0.039   6.972   5.243
18307WAT      O55162   5.489   5.767   4.950
18307WAT     H155163   5.480   5.671   4.923
18307WAT     H255164   5.409   5.819   4.917
18308WAT      O55165   9.447   2.196   9.382
18308WAT     H155166   9.545   2.207   9.363
18308WAT     H255167   9.398   2.276   9.349
18309WAT      O55168   8.726   5.906   2.592
18309WAT     H155169   8.663   5.829   2.607
18309WAT     H255170   8.778   5.923   2.676
18310WAT      O55171   7.573   2.964   6.157
18310WAT     H155172   7.580   3.021   6.239
18310WAT     H255173   7.523   3.013   6.086
18311WAT      O55174   5.886   2.933   1.518
18311WAT     H155175   5.974   2.908   1.558
18311WAT     H255176   5.894   3.022   1.472
18312WAT      O55177   1.663   8.017   0.559
18312WAT     H155178   1.565   8.029   0.545
18312WAT     H255179   1.690   8.056   0.647
18313WAT      O55180   0.974   8.900   3.995
18313WAT     H155181   0.988   8.893   3.896
18313WAT     H255182   0.966   8.808   4.034
18314WAT      O55183   2.548   0.271   0.675
18314WAT     H155184   2.477   0.337   0.700
18314WAT     H255185   2.596   0.242   0.757
18315WAT      O55186   1.325   2.616   3.974
18315WAT     H155187   1.387   2.640   3.899
18315WAT     H255188   1.231   2.619   3.941
18316WAT      O55189   1.536   8.878   7.462
18316WAT     H155190   1.472   8.904   7.390
18316WAT     H255191   1.485   8.837   7.538
18317WAT      O55192   3.966   2.555   2.268
18317WAT     H155193   3.882   2.609   2.267
18317WAT     H255194   3.990   2.530   2.362
18318WAT      O55195   0.579   9.072   6.991
18318WAT     H155196   0.618   8.984   6.964
18318WAT     H255197   0.626   9.145   6.942
18319WAT      O55198   2.091   1.845   3.225
18319WAT     H155199   1.998   1.810   3.242
18319WAT     H255200   2.115   1.911   3.295
18320WAT      O55201   5.791   8.001   7.342
18320WAT     H155202   5.714   7.938   7.349
18320WAT     H255203   5.868   7.966   7.396
18321WAT      O55204   1.357   3.007   5.908
18321WAT     H155205   1.385   3.096   5.943
18321WAT     H255206   1.276   2.975   5.958
18322WAT      O55207   2.736   6.376   1.124
18322WAT     H155208   2.795   6.455   1.110
18322WAT     H255209   2.783   6.309   1.181
18323WAT      O55210   5.493   7.147   6.924
18323WAT     H155211   5.402   7.125   6.961
18323WAT     H255212   5.555   7.166   7.000
18324WAT      O55213   5.513   9.832   9.405
18324WAT     H155214   5.560   9.853   9.491
18324WAT     H255215   5.432   9.889   9.396
18325WAT      O55216   8.368   5.097   8.380
18325WAT     H155217   8.416   5.101   8.468
18325WAT     H255218   8.387   5.181   8.328
18326WAT      O55219   4.207   2.503   5.857
18326WAT     H155220   4.125   2.457   5.889
18326WAT     H255221   4.200   2.601   5.876
18327WAT      O55222   0.365   7.019   4.536
18327WAT     H155223   0.323   6.930   4.519
18327WAT     H255224   0.294   7.089   4.535
18328WAT      O55225   4.310   8.823   0.022
18328WAT     H155226   4.325   8.725   0.040
18328WAT     H255227   4.218   8.836  -0.015
18329WAT      O55228   0.025   8.588   0.488
18329WAT     H155229   0.042   8.596   0.586
18329WAT     H255230   0.098   8.633   0.437
18330WAT      O55231   2.946   8.703   3.692
18330WAT     H155232   2.947   8.789   3.640
18330WAT     H255233   2.998   8.715   3.776
18331WAT      O55234   4.073   8.921   1.631
18331WAT     H155235   4.069   8.907   1.532
18331WAT     H255236   4.159   8.966   1.655
18332WAT      O55237   4.508   1.962   4.756
18332WAT     H155238   4.563   1.974   4.673
18332WAT     H255239   4.515   1.867   4.786
18333WAT      O55240   8.673   4.158   3.444
18333WAT     H155241   8.741   4.231   3.453
18333WAT     H255242   8.607   4.182   3.373
18334WAT      O55243   2.887   3.366   7.315
18334WAT     H155244   2.807   3.306   7.317
18334WAT     H255245   2.881   3.431   7.391
18335WAT      O55246   1.802   6.008   3.552
18335WAT     H155247   1.801   6.107   3.562
18335WAT     H255248   1.763   5.965   3.633
18336WAT      O55249   8.406   9.048   4.835
18336WAT     H155250   8.341   9.064   4.760
18336WAT     H255251   8.366   8.984   4.900
18337WAT      O55252   8.889   6.364   7.482
18337WAT     H155253   8.975   6.313   7.482
18337WAT     H255254   8.845   6.356   7.393
18338WAT      O55255   6.280   0.880   1.026
18338WAT     H155256   6.344   0.935   1.079
18338WAT     H255257   6.324   0.794   1.000
18339WAT      O55258   8.527   9.429   7.688
18339WAT     H155259   8.531   9.503   7.755
18339WAT     H255260   8.433   9.417   7.656
18340WAT      O55261   4.743   3.485   3.313
18340WAT     H155262   4.663   3.453   3.262
18340WAT     H255263   4.732   3.465   3.410
18341WAT      O55264   1.339   5.769   5.104
18341WAT     H155265   1.325   5.686   5.051
18341WAT     H255266   1.431   5.805   5.087
18342WAT      O55267   1.556   6.150   7.251
18342WAT     H155268   1.512   6.063   7.231
18342WAT     H255269   1.553   6.209   7.171
18343WAT      O55270   4.534   5.760   7.983
18343WAT     H155271   4.477   5.825   7.933
18343WAT     H255272   4.560   5.685   7.922
18344WAT      O55273   2.810   4.023   7.479
18344WAT     H155274   2.903   4.006   7.512
18344WAT     H255275   2.746   4.016   7.555
18345WAT      O55276   5.343   9.045   1.808
18345WAT     H155277   5.412   9.072   1.741
18345WAT     H255278   5.283   8.976   1.769
18346WAT      O55279   6.955   5.346   2.276
18346WAT     H155280   6.899   5.429   2.280
18346WAT     H255281   6.977   5.325   2.180
18347WAT      O55282   3.946   7.346   5.620
18347WAT     H155283   3.980   7.434   5.655
18347WAT     H255284   3.873   7.312   5.679
18348WAT      O55285   0.904   1.759   0.996
18348WAT     H155286   0.883   1.782   0.901
18348WAT     H255287   0.819   1.757   1.049
18349WAT      O55288   6.490   5.958   0.628
18349WAT     H155289   6.420   6.013   0.582
18349WAT     H255290   6.580   5.998   0.612
18350WAT      O55291   9.586   7.188   5.652
18350WAT     H155292   9.681   7.207   5.676
18350WAT     H255293   9.583   7.114   5.585
18351WAT      O55294   0.622   4.481   4.808
18351WAT     H155295   0.532   4.476   4.851
18351WAT     H255296   0.626   4.417   4.731
18352WAT      O55297   5.844   8.937   9.630
18352WAT     H155298   5.843   9.024   9.680
18352WAT     H255299   5.848   8.861   9.695
18353WAT      O55300   2.426   1.792   8.753
18353WAT     H155301   2.485   1.844   8.815
18353WAT     H255302   2.331   1.818   8.768
18354WAT      O55303   2.453   6.508   8.866
18354WAT     H155304   2.482   6.431   8.810
18354WAT     H255305   2.354   6.503   8.881
18355WAT      O55306   2.357   3.766   1.190
18355WAT     H155307   2.284   3.776   1.123
18355WAT     H255308   2.430   3.709   1.152
18356WAT      O55309   8.209   8.177   1.967
18356WAT     H155310   8.154   8.106   1.923
18356WAT     H255311   8.160   8.265   1.960
18357WAT      O55312   6.600   2.706   4.596
18357WAT     H155313   6.604   2.641   4.672
18357WAT     H255314   6.561   2.792   4.626
18358WAT      O55315   0.891   3.064   4.502
18358WAT     H155316   0.833   3.118   4.564
18358WAT     H255317   0.854   2.971   4.494
18359WAT      O55318   0.443   6.004   6.551
18359WAT     H155319   0.534   5.997   6.592
18359WAT     H255320   0.378   6.039   6.618
18360WAT      O55321   9.621   2.937   8.455
18360WAT     H155322   9.666   2.931   8.544
18360WAT     H255323   9.575   3.026   8.447
18361WAT      O55324   6.467   2.166   0.801
18361WAT     H155325   6.409   2.170   0.720
18361WAT     H255326   6.555   2.210   0.782
18362WAT      O55327   7.933   9.124   5.930
18362WAT     H155328   7.936   9.108   6.029
18362WAT     H255329   7.839   9.143   5.902
18363WAT      O55330   8.287   2.250   1.695
18363WAT     H155331   8.300   2.349   1.687
18363WAT     H255332   8.335   2.216   1.776
18364WAT      O55333   2.784   4.614   6.473
18364WAT     H155334   2.789   4.527   6.521
18364WAT     H255335   2.829   4.685   6.528
18365WAT      O55336   7.298   6.446   1.674
18365WAT     H155337   7.349   6.376   1.723
18365WAT     H255338   7.340   6.535   1.691
18366WAT      O55339   5.853   2.951   1.835
18366WAT     H155340   5.950   2.930   1.848
18366WAT     H255341   5.842   3.000   1.749
18367WAT      O55342   7.359   2.039   3.773
18367WAT     H155343   7.395   2.122   3.816
18367WAT     H255344   7.435   1.982   3.742
18368WAT      O55345   2.088   2.342   6.533
18368WAT     H155346   2.136   2.427   6.509
18368WAT     H255347   1.990   2.352   6.516
18369WAT      O55348   4.852   3.295   6.102
18369WAT     H155349   4.834   3.274   6.199
18369WAT     H255350   4.783   3.250   6.045
18370WAT      O55351   9.145   2.749   6.310
18370WAT     H155352   9.104   2.659   6.293
18370WAT     H255353   9.236   2.752   6.269
18371WAT      O55354   0.847   0.827   8.698
18371WAT     H155355   0.863   0.868   8.608
18371WAT     H255356   0.784   0.885   8.750
18372WAT      O55357   7.989   6.998   6.526
18372WAT     H155358   7.932   7.036   6.453
18372WAT     H255359   8.085   7.001   6.498
18373WAT      O55360   0.549   2.760   3.834
18373WAT     H155361   0.493   2.689   3.792
18373WAT     H255362   0.559   2.742   3.931
18374WAT      O55363   9.809   8.420   8.440
18374WAT     H155364   9.882   8.391   8.378
18374WAT     H255365   9.724   8.373   8.415
18375WAT      O55366   8.374   8.866   8.314
18375WAT     H155367   8.389   8.772   8.345
18375WAT     H255368   8.313   8.865   8.234
18376WAT      O55369   9.745   7.698   0.358
18376WAT     H155370   9.701   7.713   0.447
18376WAT     H255371   9.693   7.743   0.286
18377WAT      O55372   8.056   0.266   3.060
18377WAT     H155373   8.064   0.227   3.151
18377WAT     H255374   7.982   0.221   3.010
18378WAT      O55375   5.787   9.298   0.966
18378WAT     H155376   5.829   9.363   0.902
18378WAT     H255377   5.824   9.314   1.057
18379WAT      O55378   7.949   8.050   6.463
18379WAT     H155379   7.855   8.074   6.438
18379WAT     H255380   8.013   8.092   6.398
18380WAT      O55381   0.667   9.563   3.503
18380WAT     H155382   0.578   9.591   3.467
18380WAT     H255383   0.659   9.544   3.600
18381WAT      O55384   7.785   5.520   5.003
18381WAT     H155385   7.717   5.542   5.073
18381WAT     H255386   7.863   5.581   5.011
18382WAT      O55387   3.928   0.759   4.660
18382WAT     H155388   4.022   0.771   4.630
18382WAT     H255389   3.923   0.690   4.732
18383WAT      O55390   8.629   0.136   1.035
18383WAT     H155391   8.574   0.219   1.027
18383WAT     H255392   8.680   0.138   1.121
18384WAT      O55393   4.236   5.420   1.570
18384WAT     H155394   4.218   5.333   1.524
18384WAT     H255395   4.233   5.494   1.503
18385WAT      O55396   6.234   0.426   4.372
18385WAT     H155397   6.251   0.460   4.465
18385WAT     H255398   6.290   0.477   4.307
18386WAT      O55399   5.519   6.569   1.051
18386WAT     H155400   5.549   6.518   1.132
18386WAT     H255401   5.494   6.662   1.077
18387WAT      O55402   1.375   0.244   0.983
18387WAT     H155403   1.414   0.179   1.047
18387WAT     H255404   1.447   0.304   0.948
18388WAT      O55405   4.996   9.076   4.989
18388WAT     H155406   5.081   9.102   4.943
18388WAT     H255407   4.937   9.156   4.997
18389WAT      O55408   2.294   6.076   6.340
18389WAT     H155409   2.367   6.041   6.281
18389WAT     H255410   2.253   6.157   6.298
18390WAT      O55411   8.069   3.371   7.155
18390WAT     H155412   7.981   3.413   7.174
18390WAT     H255413   8.060   3.271   7.154
18391WAT      O55414   0.404   0.408   0.655
18391WAT     H155415   0.306   0.395   0.637
18391WAT     H255416   0.428   0.365   0.742
18392WAT      O55417   9.473   0.552   3.286
18392WAT     H155418   9.466   0.470   3.343
18392WAT     H255419   9.486   0.632   3.345
18393WAT      O55420   9.274   7.385   4.937
18393WAT     H155421   9.184   7.425   4.952
18393WAT     H255422   9.269   7.285   4.949
18394WAT      O55423   1.464   5.664   4.151
18394WAT     H155424   1.417   5.746   4.119
18394WAT     H255425   1.558   5.688   4.178
18395WAT      O55426   5.458   6.100   9.795
18395WAT     H155427   5.416   6.096   9.886
18395WAT     H255428   5.506   6.187   9.784
18396WAT      O55429   3.142   0.308   7.693
18396WAT     H155430   3.101   0.217   7.698
18396WAT     H255431   3.162   0.331   7.598
18397WAT      O55432   2.199   0.493   7.418
18397WAT     H155433   2.185   0.413   7.359
18397WAT     H255434   2.111   0.526   7.450
18398WAT      O55435   7.825   7.989   4.966
18398WAT     H155436   7.755   8.001   4.895
18398WAT     H255437   7.896   7.927   4.933
18399WAT      O55438   3.424   2.184   8.004
18399WAT     H155439   3.419   2.269   8.057
18399WAT     H255440   3.514   2.143   8.017
18400WAT      O55441   8.582   2.543   3.593
18400WAT     H155442   8.663   2.513   3.644
18400WAT     H255443   8.601   2.632   3.551
18401WAT      O55444   4.636   2.753   3.786
18401WAT     H155445   4.580   2.674   3.812
18401WAT     H255446   4.692   2.729   3.706
18402WAT      O55447   5.362   1.065   9.144
18402WAT     H155448   5.304   1.146   9.153
18402WAT     H255449   5.444   1.077   9.199
18403WAT      O55450   5.017   2.018   5.840
18403WAT     H155451   4.961   1.940   5.868
18403WAT     H255452   4.958   2.098   5.825
18404WAT      O55453   2.106   9.271   5.543
18404WAT     H155454   2.192   9.246   5.498
18404WAT     H255455   2.038   9.296   5.474
18405WAT      O55456   5.938   4.531   1.115
18405WAT     H155457   5.850   4.491   1.088
18405WAT     H255458   6.012   4.485   1.066
18406WAT      O55459   6.095   3.413   1.814
18406WAT     H155460   6.170   3.456   1.763
18406WAT     H255461   6.127   3.330   1.858
18407WAT      O55462   3.890   8.393   1.914
18407WAT     H155463   3.791   8.404   1.917
18407WAT     H255464   3.932   8.477   1.878
18408WAT      O55465   7.141   2.718   9.005
18408WAT     H155466   7.122   2.634   9.056
18408WAT     H255467   7.144   2.795   9.068
18409WAT      O55468   5.915   7.713   6.585
18409WAT     H155469   5.879   7.619   6.585
18409WAT     H255470   5.878   7.762   6.663
18410WAT      O55471   3.753   4.672   1.850
18410WAT     H155472   3.662   4.703   1.826
18410WAT     H255473   3.799   4.636   1.769
18411WAT      O55474   5.362   7.747   4.216
18411WAT     H155475   5.303   7.700   4.150
18411WAT     H255476   5.381   7.840   4.182
18412WAT      O55477   9.332   0.529   1.021
18412WAT     H155478   9.296   0.447   1.065
18412WAT     H255479   9.422   0.509   0.982
18413WAT      O55480   9.125   7.601   6.475
18413WAT     H155481   9.206   7.633   6.525
18413WAT     H255482   9.043   7.628   6.525
18414WAT      O55483   6.776   3.898   3.093
18414WAT     H155484   6.741   3.964   3.160
18414WAT     H255485   6.711   3.888   3.018
18415WAT      O55486   5.060   9.044   9.684
18415WAT     H155487   5.078   8.955   9.726
18415WAT     H255488   5.086   9.041   9.587
18416WAT      O55489   9.257   1.634   1.957
18416WAT     H155490   9.324   1.564   1.985
18416WAT     H255491   9.204   1.600   1.879
18417WAT      O55492   5.386   8.154   4.051
18417WAT     H155493   5.286   8.149   4.056
18417WAT     H255494   5.420   8.209   4.127
18418WAT      O55495   4.291   3.457   5.527
18418WAT     H155496   4.228   3.379   5.534
18418WAT     H255497   4.255   3.522   5.460
18419WAT      O55498   2.471   7.210   7.974
18419WAT     H155499   2.551   7.270   7.970
18419WAT     H255500   2.414   7.225   7.893
18420WAT      O55501   8.869   2.455   5.083
18420WAT     H155502   8.953   2.400   5.086
18420WAT     H255503   8.815   2.430   5.003
18421WAT      O55504   2.749   5.755   5.751
18421WAT     H155505   2.835   5.711   5.723
18421WAT     H255506   2.679   5.685   5.765
18422WAT      O55507   2.449   9.141   1.622
18422WAT     H155508   2.489   9.230   1.642
18422WAT     H255509   2.516   9.069   1.640
18423WAT      O55510   2.388   2.668   1.525
18423WAT     H155511   2.470   2.616   1.502
18423WAT     H255512   2.412   2.765   1.536
18424WAT      O55513   5.019   7.762   7.115
18424WAT     H155514   5.055   7.852   7.136
18424WAT     H255515   5.085   7.692   7.144
18425WAT      O55516   3.452   0.219   0.051
18425WAT     H155517   3.473   0.135   0.002
18425WAT     H255518   3.532   0.248   0.104
18426WAT      O55519   3.607   4.558   9.046
18426WAT     H155520   3.534   4.493   9.068
18426WAT     H255521   3.696   4.511   9.049
18427WAT      O55522   0.740   2.105   4.479
18427WAT     H155523   0.777   2.159   4.403
18427WAT     H255524   0.782   2.135   4.565
18428WAT      O55525   4.043   4.423   3.390
18428WAT     H155526   3.982   4.502   3.385
18428WAT     H255527   4.031   4.376   3.477
18429WAT      O55528   3.185   7.889   7.009
18429WAT     H155529   3.268   7.929   6.969
18429WAT     H255530   3.203   7.792   7.030
18430WAT      O55531   1.254   4.461   3.675
18430WAT     H155532   1.179   4.510   3.631
18430WAT     H255533   1.261   4.368   3.638
18431WAT      O55534   4.078   2.167   1.511
18431WAT     H155535   3.988   2.186   1.471
18431WAT     H255536   4.072   2.171   1.611
18432WAT      O55537   0.887   4.850   9.065
18432WAT     H155538   0.879   4.763   9.113
18432WAT     H255539   0.932   4.835   8.977
18433WAT      O55540   5.157   1.559   1.943
18433WAT     H155541   5.160   1.642   1.888
18433WAT     H255542   5.245   1.544   1.987
18434WAT      O55543   7.429   1.384   9.696
18434WAT     H155544   7.345   1.400   9.645
18434WAT     H255545   7.508   1.392   9.635
18435WAT      O55546   8.165   3.093   8.025
18435WAT     H155547   8.066   3.107   8.029
18435WAT     H255548   8.192   3.029   8.098
18436WAT      O55549   0.297   1.019   4.308
18436WAT     H155550   0.230   0.991   4.240
18436WAT     H255551   0.389   1.002   4.273
18437WAT      O55552   9.498   8.224   9.772
18437WAT     H155553   9.453   8.227   9.682
18437WAT     H255554   9.577   8.284   9.772
18438WAT      O55555   5.034   9.490   1.793
18438WAT     H155556   4.970   9.502   1.869
18438WAT     H255557   5.025   9.566   1.729
18439WAT      O55558   0.993   6.303   5.762
18439WAT     H155559   1.001   6.263   5.671
18439WAT     H255560   1.063   6.374   5.773
18440WAT      O55561   0.450   2.789   9.698
18440WAT     H155562   0.364   2.765   9.653
18440WAT     H255563   0.508   2.840   9.634
18441WAT      O55564   6.882   1.886   0.547
18441WAT     H155565   6.870   1.932   0.635
18441WAT     H255566   6.817   1.924   0.481
18442WAT      O55567   2.525   4.803   2.391
18442WAT     H155568   2.564   4.822   2.481
18442WAT     H255569   2.428   4.780   2.401
18443WAT      O55570   8.609   5.977   8.590
18443WAT     H155571   8.636   5.997   8.496
18443WAT     H255572   8.531   6.034   8.615
18444WAT      O55573   6.965   0.354   3.429
18444WAT     H155574   6.969   0.430   3.494
18444WAT     H255575   6.869   0.328   3.415
18445WAT      O55576   4.312   7.348   1.760
18445WAT     H155577   4.368   7.291   1.819
18445WAT     H255578   4.279   7.293   1.683
18446WAT      O55579   7.657   4.335   2.185
18446WAT     H155580   7.693   4.411   2.239
18446WAT     H255581   7.688   4.248   2.225
18447WAT      O55582   4.188   9.432   9.384
18447WAT     H155583   4.175   9.337   9.354
18447WAT     H255584   4.133   9.449   9.465
18448WAT      O55585   2.651   0.332   6.285
18448WAT     H155586   2.635   0.430   6.301
18448WAT     H255587   2.748   0.317   6.270
18449WAT      O55588   7.810   8.874   7.381
18449WAT     H155589   7.864   8.876   7.297
18449WAT     H255590   7.857   8.818   7.449
18450WAT      O55591   1.457   2.819   6.373
18450WAT     H155592   1.547   2.839   6.335
18450WAT     H255593   1.406   2.905   6.385
18451WAT      O55594   3.345   6.365   0.880
18451WAT     H155595   3.371   6.451   0.926
18451WAT     H255596   3.277   6.318   0.936
18452WAT      O55597   6.927   2.271   8.216
18452WAT     H155598   6.872   2.320   8.284
18452WAT     H255599   6.878   2.187   8.189
18453WAT      O55600   4.160   4.019   7.779
18453WAT     H155601   4.089   4.061   7.835
18453WAT     H255602   4.249   4.032   7.823
18454WAT      O55603   2.247   8.534   8.515
18454WAT     H155604   2.183   8.608   8.535
18454WAT     H255605   2.235   8.461   8.582
18455WAT      O55606   7.407   1.251   3.978
18455WAT     H155607   7.405   1.333   3.921
18455WAT     H255608   7.390   1.276   4.073
18456WAT      O55609   4.600   0.365   4.387
18456WAT     H155610   4.661   0.314   4.326
18456WAT     H255611   4.591   0.459   4.355
18457WAT      O55612   2.962   6.910   8.609
18457WAT     H155613   2.988   6.814   8.615
18457WAT     H255614   3.045   6.967   8.603
18458WAT      O55615   2.977   1.225   5.580
18458WAT     H155616   2.989   1.130   5.552
18458WAT     H255617   2.885   1.256   5.556
18459WAT      O55618   5.204   1.446   0.437
18459WAT     H155619   5.135   1.374   0.428
18459WAT     H255620   5.290   1.415   0.395
18460WAT      O55621   1.156   5.957   0.376
18460WAT     H155622   1.142   5.880   0.437
18460WAT     H255623   1.102   6.035   0.408
18461WAT      O55624   4.439   6.403   1.088
18461WAT     H155625   4.375   6.417   1.164
18461WAT     H255626   4.530   6.386   1.125
18462WAT      O55627   9.130   6.257   7.455
18462WAT     H155628   9.162   6.232   7.363
18462WAT     H255629   9.197   6.226   7.522
18463WAT      O55630   2.265   4.951   7.890
18463WAT     H155631   2.342   4.916   7.836
18463WAT     H255632   2.280   4.932   7.987
18464WAT      O55633   0.230   1.993   2.814
18464WAT     H155634   0.160   2.063   2.807
18464WAT     H255635   0.210   1.918   2.751
18465WAT      O55636   7.769   1.570   4.956
18465WAT     H155637   7.801   1.487   4.910
18465WAT     H255638   7.817   1.580   5.043
18466WAT      O55639   1.777   8.352   6.194
18466WAT     H155640   1.738   8.435   6.235
18466WAT     H255641   1.703   8.289   6.170
18467WAT      O55642   2.400   5.069   0.391
18467WAT     H155643   2.322   5.098   0.447
18467WAT     H255644   2.378   4.984   0.344
18468WAT      O55645   6.885   3.178   4.569
18468WAT     H155646   6.889   3.146   4.475
18468WAT     H255647   6.821   3.255   4.576
18469WAT      O55648   7.377   4.117   0.979
18469WAT     H155649   7.360   4.034   0.927
18469WAT     H255650   7.294   4.172   0.984
18470WAT      O55651   3.885   0.327   3.935
18470WAT     H155652   3.885   0.228   3.949
18470WAT     H255653   3.879   0.348   3.838
18471WAT      O55654   7.048   2.100   7.574
18471WAT     H155655   7.142   2.112   7.543
18471WAT     H255656   7.005   2.190   7.584
18472WAT      O55657   3.466   6.887   8.597
18472WAT     H155658   3.504   6.979   8.603
18472WAT     H255659   3.526   6.830   8.540
18473WAT      O55660   0.499   4.665   1.689
18473WAT     H155661   0.453   4.751   1.666
18473WAT     H255662   0.430   4.596   1.712
18474WAT      O55663   3.548   1.439   4.774
18474WAT     H155664   3.616   1.407   4.708
18474WAT     H255665   3.507   1.360   4.820
18475WAT      O55666   5.827   0.057   4.016
18475WAT     H155667   5.798  -0.028   3.973
18475WAT     H255668   5.904   0.096   3.966
18476WAT      O55669   7.065   6.984   0.180
18476WAT     H155670   6.977   6.943   0.205
18476WAT     H255671   7.109   7.020   0.262
18477WAT      O55672   6.328   5.863   0.306
18477WAT     H155673   6.239   5.869   0.262
18477WAT     H255674   6.391   5.811   0.247
18478WAT      O55675   9.750   4.941   1.408
18478WAT     H155676   9.810   4.911   1.335
18478WAT     H255677   9.755   4.876   1.484
18479WAT      O55678   8.810   8.759   9.187
18479WAT     H155679   8.762   8.737   9.102
18479WAT     H255680   8.900   8.798   9.165
18480WAT      O55681   8.666   6.264   2.993
18480WAT     H155682   8.732   6.242   3.065
18480WAT     H255683   8.622   6.180   2.962
18481WAT      O55684   6.230   6.214   9.247
18481WAT     H155685   6.235   6.247   9.152
18481WAT     H255686   6.226   6.114   9.247
18482WAT      O55687   8.172   7.036   8.988
18482WAT     H155688   8.137   6.975   8.918
18482WAT     H255689   8.176   7.130   8.952
18483WAT      O55690   5.049   0.990   3.381
18483WAT     H155691   5.133   1.011   3.430
18483WAT     H255692   5.071   0.960   3.288
18484WAT      O55693   3.285   7.759   7.331
18484WAT     H155694   3.270   7.733   7.236
18484WAT     H255695   3.229   7.701   7.391
18485WAT      O55696   4.022   2.031   3.730
18485WAT     H155697   3.923   2.038   3.736
18485WAT     H255698   4.048   2.001   3.638
18486WAT      O55699   3.180   4.888   0.926
18486WAT     H155700   3.133   4.898   1.013
18486WAT     H255701   3.131   4.823   0.868
18487WAT      O55702   3.537   9.404   4.368
18487WAT     H155703   3.443   9.431   4.351
18487WAT     H255704   3.595   9.435   4.292
18488WAT      O55705   8.594   0.412   0.238
18488WAT     H155706   8.635   0.498   0.208
18488WAT     H255707   8.494   0.418   0.231
18489WAT      O55708   0.160   2.690   6.633
18489WAT     H155709   0.065   2.713   6.653
18489WAT     H255710   0.221   2.757   6.673
18490WAT      O55711   1.247   3.627   8.957
18490WAT     H155712   1.157   3.664   8.978
18490WAT     H255713   1.309   3.646   9.033
18491WAT      O55714   2.008   4.404   4.167
18491WAT     H155715   1.999   4.502   4.185
18491WAT     H255716   2.098   4.386   4.129
18492WAT      O55717   8.381   7.096   1.708
18492WAT     H155718   8.327   7.085   1.792
18492WAT     H255719   8.326   7.144   1.640
18493WAT      O55720   1.383   7.292   7.384
18493WAT     H155721   1.367   7.384   7.420
18493WAT     H255722   1.297   7.240   7.387
18494WAT      O55723   1.349   7.730   4.383
18494WAT     H155724   1.343   7.666   4.460
18494WAT     H255725   1.363   7.679   4.298
18495WAT      O55726   2.238   1.779   8.485
18495WAT     H155727   2.183   1.826   8.417
18495WAT     H255728   2.283   1.846   8.544
18496WAT      O55729   7.472   1.334   2.996
18496WAT     H155730   7.397   1.271   2.976
18496WAT     H255731   7.440   1.403   3.062
18497WAT      O55732   8.094   5.366   8.632
18497WAT     H155733   8.043   5.428   8.572
18497WAT     H255734   8.125   5.287   8.579
18498WAT      O55735   2.502   8.111   1.641
18498WAT     H155736   2.464   8.019   1.650
18498WAT     H255737   2.506   8.155   1.731
18499WAT      O55738   6.479   5.624   4.246
18499WAT     H155739   6.538   5.554   4.286
18499WAT     H255740   6.429   5.672   4.319
18500WAT      O55741   8.202   4.239   9.307
18500WAT     H155742   8.201   4.183   9.225
18500WAT     H255743   8.118   4.224   9.359
18501WAT      O55744   4.888   8.288   5.943
18501WAT     H155745   4.988   8.287   5.942
18501WAT     H255746   4.857   8.370   5.992
18502WAT      O55747   3.789   5.538   5.374
18502WAT     H155748   3.869   5.486   5.402
18502WAT     H255749   3.786   5.625   5.423
18503WAT      O55750   4.193   9.003   0.217
18503WAT     H155751   4.228   8.922   0.171
18503WAT     H255752   4.268   9.067   0.236
18504WAT      O55753   8.706   8.735   6.521
18504WAT     H155754   8.624   8.720   6.577
18504WAT     H255755   8.780   8.675   6.553
18505WAT      O55756   2.529   7.286   4.389
18505WAT     H155757   2.461   7.242   4.330
18505WAT     H255758   2.607   7.225   4.400
18506WAT      O55759   1.527   8.183   9.224
18506WAT     H155760   1.586   8.239   9.281
18506WAT     H255761   1.570   8.171   9.134
18507WAT      O55762   9.601   6.516   2.531
18507WAT     H155763   9.556   6.519   2.621
18507WAT     H255764   9.626   6.609   2.504
18508WAT      O55765   6.567   6.354   0.078
18508WAT     H155766   6.569   6.446   0.039
18508WAT     H255767   6.603   6.289   0.011
18509WAT      O55768   1.248   3.020   8.728
18509WAT     H155769   1.219   3.047   8.636
18509WAT     H255770   1.342   3.051   8.744
18510WAT      O55771   9.284   8.841   0.161
18510WAT     H155772   9.187   8.823   0.180
18510WAT     H255773   9.297   8.850   0.063
18511WAT      O55774   6.823   8.894   6.333
18511WAT     H155775   6.882   8.929   6.405
18511WAT     H255776   6.747   8.957   6.319
18512WAT      O55777   3.616   3.919   7.810
18512WAT     H155778   3.588   3.996   7.867
18512WAT     H255779   3.689   3.948   7.748
18513WAT      O55780   0.062   0.873   6.864
18513WAT     H155781   0.076   0.972   6.865
18513WAT     H255782  -0.029   0.853   6.827
18514WAT      O55783   4.792   6.492   8.810
18514WAT     H155784   4.809   6.427   8.736
18514WAT     H255785   4.718   6.457   8.868
18515WAT      O55786   0.350   7.367   4.170
18515WAT     H155787   0.432   7.311   4.160
18515WAT     H255788   0.324   7.404   4.081
18516WAT      O55789   2.189   6.817   9.398
18516WAT     H155790   2.222   6.910   9.418
18516WAT     H255791   2.098   6.823   9.358
18517WAT      O55792   5.512   0.451   3.437
18517WAT     H155793   5.606   0.442   3.403
18517WAT     H255794   5.477   0.542   3.416
18518WAT      O55795   8.322   4.152   7.620
18518WAT     H155796   8.316   4.066   7.569
18518WAT     H255797   8.407   4.153   7.673
18519WAT      O55798   3.804   7.370   0.828
18519WAT     H155799   3.885   7.343   0.880
18519WAT     H255800   3.815   7.344   0.732
18520WAT      O55801   8.020   8.806   2.797
18520WAT     H155802   7.946   8.873   2.792
18520WAT     H255803   8.008   8.749   2.879
18521WAT      O55804   3.246   0.188   3.114
18521WAT     H155805   3.237   0.150   3.022
18521WAT     H255806   3.173   0.255   3.129
18522WAT      O55807   9.750   6.965   3.623
18522WAT     H155808   9.763   6.995   3.717
18522WAT     H255809   9.691   6.883   3.622
18523WAT      O55810   4.546   5.370   4.856
18523WAT     H155811   4.469   5.412   4.809
18523WAT     H255812   4.626   5.369   4.796
18524WAT      O55813   2.236   5.874   9.573
18524WAT     H155814   2.265   5.785   9.607
18524WAT     H255815   2.307   5.942   9.592
18525WAT      O55816   1.091   1.241   7.966
18525WAT     H155817   1.068   1.319   8.024
18525WAT     H255818   1.181   1.255   7.925
18526WAT      O55819   2.610   1.025   4.604
18526WAT     H155820   2.654   1.085   4.537
18526WAT     H255821   2.602   0.933   4.565
18527WAT      O55822   2.172   3.097   9.092
18527WAT     H155823   2.134   3.084   9.184
18527WAT     H255824   2.271   3.109   9.099
18528WAT      O55825   8.663   8.731   8.934
18528WAT     H155826   8.570   8.735   8.969
18528WAT     H255827   8.682   8.639   8.900
18529WAT      O55828   8.705   0.929   7.895
18529WAT     H155829   8.667   0.994   7.960
18529WAT     H255830   8.803   0.918   7.911
18530WAT      O55831   4.386   7.733   5.520
18530WAT     H155832   4.327   7.797   5.570
18530WAT     H255833   4.443   7.783   5.456
18531WAT      O55834   5.011   8.524   2.947
18531WAT     H155835   5.053   8.542   2.858
18531WAT     H255836   4.961   8.438   2.943
18532WAT      O55837   6.053   7.472   1.766
18532WAT     H155838   5.961   7.444   1.738
18532WAT     H255839   6.116   7.394   1.757
18533WAT      O55840   2.005   3.954   3.491
18533WAT     H155841   2.061   3.961   3.409
18533WAT     H255842   2.057   3.987   3.570
18534WAT      O55843   2.796   8.952   7.286
18534WAT     H155844   2.807   9.015   7.363
18534WAT     H255845   2.804   9.003   7.200
18535WAT      O55846   5.772   6.999   3.910
18535WAT     H155847   5.725   7.027   3.994
18535WAT     H255848   5.706   6.956   3.848
18536WAT      O55849   1.258   8.826   2.501
18536WAT     H155850   1.249   8.830   2.402
18536WAT     H255851   1.317   8.901   2.532
18537WAT      O55852   8.636   1.137   3.056
18537WAT     H155853   8.695   1.167   2.981
18537WAT     H255854   8.641   1.037   3.065
18538WAT      O55855   6.524   9.522   2.039
18538WAT     H155856   6.522   9.439   2.095
18538WAT     H255857   6.434   9.537   1.999
18539WAT      O55858   6.584   9.597   0.757
18539WAT     H155859   6.648   9.673   0.743
18539WAT     H255860   6.506   9.607   0.695
18540WAT      O55861   2.414   6.003   1.615
18540WAT     H155862   2.459   5.938   1.555
18540WAT     H255863   2.366   5.955   1.688
18541WAT      O55864   9.475   6.462   6.497
18541WAT     H155865   9.420   6.501   6.423
18541WAT     H255866   9.467   6.363   6.496
18542WAT      O55867   8.136   7.855   7.019
18542WAT     H155868   8.189   7.776   7.048
18542WAT     H255869   8.170   7.888   6.931
18543WAT      O55870   3.051   5.714   4.497
18543WAT     H155871   3.117   5.782   4.529
18543WAT     H255872   3.097   5.627   4.481
18544WAT      O55873   3.642   3.289   3.568
18544WAT     H155874   3.565   3.229   3.591
18544WAT     H255875   3.719   3.268   3.627
18545WAT      O55876   2.140   5.078   3.782
18545WAT     H155877   2.240   5.080   3.787
18545WAT     H255878   2.105   5.023   3.858
18546WAT      O55879   9.212   3.434   8.703
18546WAT     H155880   9.308   3.430   8.733
18546WAT     H255881   9.185   3.347   8.663
18547WAT      O55882   3.291   3.767   4.557
18547WAT     H155883   3.338   3.811   4.634
18547WAT     H255884   3.359   3.738   4.489
18548WAT      O55885   1.144   1.319   6.084
18548WAT     H155886   1.196   1.285   6.162
18548WAT     H255887   1.046   1.300   6.098
18549WAT      O55888   4.019   1.132   4.659
18549WAT     H155889   4.085   1.061   4.636
18549WAT     H255890   3.974   1.109   4.746
18550WAT      O55891   4.531   8.795   1.120
18550WAT     H155892   4.595   8.721   1.140
18550WAT     H255893   4.499   8.787   1.026
18551WAT      O55894   0.158   7.339   3.194
18551WAT     H155895   0.232   7.405   3.179
18551WAT     H255896   0.175   7.258   3.139
18552WAT      O55897   5.069   9.268   1.301
18552WAT     H155898   4.980   9.283   1.343
18552WAT     H255899   5.090   9.170   1.301
18553WAT      O55900   0.703   9.342   8.194
18553WAT     H155901   0.679   9.368   8.287
18553WAT     H255902   0.797   9.307   8.192
18554WAT      O55903   0.226   1.060   9.802
18554WAT     H155904   0.224   1.158   9.819
18554WAT     H255905   0.312   1.022   9.837
18555WAT      O55906   7.626   3.577   2.583
18555WAT     H155907   7.617   3.496   2.640
18555WAT     H255908   7.612   3.659   2.638
18556WAT      O55909   0.756   4.156   7.747
18556WAT     H155910   0.809   4.235   7.777
18556WAT     H255911   0.703   4.180   7.666
18557WAT      O55912   5.750   8.422   0.323
18557WAT     H155913   5.804   8.396   0.403
18557WAT     H255914   5.683   8.491   0.349
18558WAT      O55915   6.917   8.131   1.842
18558WAT     H155916   6.911   8.208   1.779
18558WAT     H255917   6.966   8.160   1.925
18559WAT      O55918   2.964   4.466   0.333
18559WAT     H155919   2.958   4.468   0.433
18559WAT     H255920   3.031   4.398   0.305
18560WAT      O55921   0.601   1.288   4.993
18560WAT     H155922   0.604   1.382   4.959
18560WAT     H255923   0.691   1.261   5.026
18561WAT      O55924   3.924   7.267   8.831
18561WAT     H155925   3.993   7.317   8.779
18561WAT     H255926   3.855   7.230   8.769
18562WAT      O55927   8.224   7.612   7.550
18562WAT     H155928   8.157   7.686   7.547
18562WAT     H255929   8.298   7.632   7.486
18563WAT      O55930   1.047   5.345   0.603
18563WAT     H155931   1.024   5.442   0.606
18563WAT     H255932   0.969   5.291   0.636
18564WAT      O55933   4.847   6.208   9.618
18564WAT     H155934   4.843   6.246   9.710
18564WAT     H255935   4.915   6.257   9.563
18565WAT      O55936   0.955   0.233   3.859
18565WAT     H155937   1.052   0.216   3.880
18565WAT     H255938   0.898   0.201   3.934
18566WAT      O55939   7.310   8.108   7.926
18566WAT     H155940   7.292   8.203   7.899
18566WAT     H255941   7.407   8.089   7.915
18567WAT      O55942   1.072   7.723   5.629
18567WAT     H155943   0.975   7.738   5.608
18567WAT     H255944   1.126   7.729   5.545
18568WAT      O55945   0.694   8.407   3.516
18568WAT     H155946   0.752   8.428   3.595
18568WAT     H255947   0.730   8.327   3.468
18569WAT      O55948   7.359   8.891   4.358
18569WAT     H155949   7.405   8.894   4.447
18569WAT     H255950   7.383   8.807   4.311
18570WAT      O55951   7.095   9.149   7.125
18570WAT     H155952   7.028   9.210   7.166
18570WAT     H255953   7.122   9.183   7.035
18571WAT      O55954   1.156   8.019   0.870
18571WAT     H155955   1.085   7.968   0.822
18571WAT     H255956   1.182   7.969   0.953
18572WAT      O55957   0.299   1.345   4.991
18572WAT     H155958   0.248   1.261   5.009
18572WAT     H255959   0.367   1.358   5.064
18573WAT      O55960   8.567   7.892   6.793
18573WAT     H155961   8.484   7.851   6.756
18573WAT     H255962   8.591   7.848   6.879
18574WAT      O55963   6.811   2.267   3.950
18574WAT     H155964   6.857   2.187   3.990
18574WAT     H255965   6.722   2.279   3.993
18575WAT      O55966   7.724   3.180   4.802
18575WAT     H155967   7.657   3.156   4.731
18575WAT     H255968   7.808   3.213   4.759
18576WAT      O55969   7.993   7.459   3.712
18576WAT     H155970   7.942   7.434   3.793
18576WAT     H255971   8.062   7.527   3.736
18577WAT      O55972   2.856   7.978   2.165
18577WAT     H155973   2.931   7.975   2.099
18577WAT     H255974   2.892   7.995   2.257
18578WAT      O55975   5.701   9.397   3.451
18578WAT     H155976   5.666   9.453   3.526
18578WAT     H255977   5.800   9.387   3.461
18579WAT      O55978   2.136   5.700   6.263
18579WAT     H155979   2.097   5.621   6.215
18579WAT     H255980   2.105   5.699   6.358
18580WAT      O55981   8.209   2.708   5.332
18580WAT     H155982   8.225   2.609   5.333
18580WAT     H255983   8.117   2.726   5.296
18581WAT      O55984   0.201   3.737   5.262
18581WAT     H155985   0.222   3.790   5.344
18581WAT     H255986   0.106   3.707   5.265
18582WAT      O55987   4.192   7.509   4.074
18582WAT     H155988   4.281   7.544   4.102
18582WAT     H255989   4.204   7.447   3.997
18583WAT      O55990   6.062   2.453   6.409
18583WAT     H155991   6.153   2.494   6.422
18583WAT     H255992   6.001   2.521   6.369
18584WAT      O55993   6.706   5.009   1.727
18584WAT     H155994   6.719   5.046   1.819
18584WAT     H255995   6.609   4.985   1.715
18585WAT      O55996   0.911   7.402   3.298
18585WAT     H155997   0.901   7.309   3.333
18585WAT     H255998   0.864   7.466   3.359
18586WAT      O55999   2.812   8.382   1.709
18586WAT     H156000   2.791   8.290   1.677
18586WAT     H256001   2.841   8.379   1.804
18587WAT      O56002   8.652   7.863   2.782
18587WAT     H156003   8.578   7.865   2.715
18587WAT     H256004   8.726   7.923   2.751
18588WAT      O56005   7.621   8.776   0.393
18588WAT     H156006   7.651   8.841   0.463
18588WAT     H256007   7.695   8.713   0.372
18589WAT      O56008   5.775   5.446   6.401
18589WAT     H156009   5.827   5.524   6.368
18589WAT     H256010   5.678   5.459   6.383
18590WAT      O56011   5.649   6.194   1.613
18590WAT     H156012   5.745   6.222   1.609
18590WAT     H256013   5.594   6.253   1.556
18591WAT      O56014   0.154   1.052   3.693
18591WAT     H156015   0.136   1.112   3.615
18591WAT     H256016   0.250   1.060   3.719
18592WAT      O56017   1.061   4.018   1.923
18592WAT     H156018   1.016   3.933   1.950
18592WAT     H256019   1.083   4.072   2.005
18593WAT      O56020   9.209   3.312   7.370
18593WAT     H156021   9.178   3.403   7.342
18593WAT     H256022   9.253   3.267   7.293
18594WAT      O56023   3.537   6.157   6.384
18594WAT     H156024   3.526   6.181   6.288
18594WAT     H256025   3.616   6.204   6.421
18595WAT      O56026   4.756   5.749   3.897
18595WAT     H156027   4.796   5.800   3.973
18595WAT     H256028   4.819   5.677   3.868
18596WAT      O56029   7.182   5.612   5.306
18596WAT     H156030   7.140   5.558   5.233
18596WAT     H256031   7.270   5.571   5.330
18597WAT      O56032   4.451   3.899   5.874
18597WAT     H156033   4.504   3.845   5.808
18597WAT     H256034   4.495   3.893   5.964
18598WAT      O56035   1.846   8.040   1.694
18598WAT     H156036   1.921   7.976   1.714
18598WAT     H256037   1.800   8.012   1.609
18599WAT      O56038   4.631   7.993   1.273
18599WAT     H156039   4.531   7.997   1.263
18599WAT     H256040   4.665   8.082   1.303
18600WAT      O56041   4.901   3.018   1.115
18600WAT     H156042   4.871   3.030   1.021
18600WAT     H256043   4.934   2.924   1.128
18601WAT      O56044   3.485   7.976   9.352
18601WAT     H156045   3.544   8.053   9.378
18601WAT     H256046   3.440   7.939   9.433
18602WAT      O56047   8.312   7.684   8.861
18602WAT     H156048   8.222   7.724   8.844
18602WAT     H256049   8.321   7.662   8.958
18603WAT      O56050   8.286   0.490   1.328
18603WAT     H156051   8.264   0.574   1.278
18603WAT     H256052   8.225   0.481   1.407
18604WAT      O56053   5.301   3.958   0.461
18604WAT     H156054   5.284   3.981   0.556
18604WAT     H256055   5.328   3.862   0.454
18605WAT      O56056   9.174   1.097   7.257
18605WAT     H156057   9.217   1.012   7.226
18605WAT     H256058   9.213   1.123   7.346
18606WAT      O56059   1.482   4.939   9.782
18606WAT     H156060   1.524   5.028   9.795
18606WAT     H256061   1.553   4.870   9.772
18607WAT      O56062   1.877   1.479   0.802
18607WAT     H156063   1.805   1.411   0.791
18607WAT     H256064   1.954   1.456   0.742
18608WAT      O56065   6.056   3.794   1.160
18608WAT     H156066   6.032   3.777   1.256
18608WAT     H256067   5.981   3.842   1.115
18609WAT      O56068   1.344   6.803   5.562
18609WAT     H156069   1.314   6.720   5.607
18609WAT     H256070   1.441   6.794   5.537
18610WAT      O56071   0.931   1.040   6.044
18610WAT     H156072   0.842   1.012   6.007
18610WAT     H256073   0.917   1.111   6.113
18611WAT      O56074   5.615   0.339   9.329
18611WAT     H156075   5.551   0.285   9.274
18611WAT     H256076   5.709   0.308   9.312
18612WAT      O56077   4.394   0.655   7.501
18612WAT     H156078   4.395   0.682   7.597
18612WAT     H256079   4.308   0.683   7.459
18613WAT      O56080   6.871   0.537   4.588
18613WAT     H156081   6.904   0.444   4.568
18613WAT     H256082   6.778   0.548   4.554
18614WAT      O56083   0.712   4.834   2.583
18614WAT     H156084   0.740   4.757   2.640
18614WAT     H256085   0.772   4.912   2.598
18615WAT      O56086   1.151   6.556   2.525
18615WAT     H156087   1.191   6.642   2.495
18615WAT     H256088   1.089   6.521   2.455
18616WAT      O56089   4.709   6.065   3.112
18616WAT     H156090   4.768   6.058   3.031
18616WAT     H256091   4.655   6.149   3.107
18617WAT      O56092   6.036   0.832   6.844
18617WAT     H156093   6.002   0.868   6.931
18617WAT     H256094   5.960   0.818   6.781
18618WAT      O56095   5.488   1.252   7.491
18618WAT     H156096   5.423   1.326   7.474
18618WAT     H256097   5.565   1.260   7.427
18619WAT      O56098   0.518   2.994   0.965
18619WAT     H156099   0.503   2.934   0.887
18619WAT     H256100   0.435   3.047   0.984
18620WAT      O56101   1.944   8.997   9.824
18620WAT     H156102   1.855   8.992   9.779
18620WAT     H256103   2.016   8.984   9.757
18621WAT      O56104   2.367   9.101   8.827
18621WAT     H156105   2.277   9.117   8.868
18621WAT     H256106   2.356   9.051   8.741
18622WAT      O56107   7.240   3.341   3.558
18622WAT     H156108   7.227   3.272   3.629
18622WAT     H256109   7.316   3.313   3.499
18623WAT      O56110   1.587   8.902   4.837
18623WAT     H156111   1.650   8.971   4.873
18623WAT     H256112   1.636   8.838   4.779
18624WAT      O56113   4.494   6.405   8.096
18624WAT     H156114   4.471   6.424   8.000
18624WAT     H256115   4.570   6.465   8.124
18625WAT      O56116   9.051   2.777   2.840
18625WAT     H156117   8.962   2.735   2.827
18625WAT     H256118   9.122   2.714   2.809
18626WAT      O56119   0.671   8.151   1.604
18626WAT     H156120   0.651   8.230   1.662
18626WAT     H256121   0.683   8.070   1.662
18627WAT      O56122   2.199   5.998   0.467
18627WAT     H156123   2.182   5.949   0.553
18627WAT     H256124   2.261   5.945   0.410
18628WAT      O56125   4.477   7.462   7.286
18628WAT     H156126   4.406   7.498   7.347
18628WAT     H256127   4.487   7.364   7.301
18629WAT      O56128   8.496   6.245   8.233
18629WAT     H156129   8.584   6.208   8.262
18629WAT     H256130   8.431   6.170   8.218
18630WAT      O56131   3.751   8.475   8.406
18630WAT     H156132   3.811   8.433   8.337
18630WAT     H256133   3.657   8.443   8.391
18631WAT      O56134   3.151   4.267   3.019
18631WAT     H156135   3.061   4.271   3.063
18631WAT     H256136   3.176   4.358   2.986
18632WAT      O56137   0.569   8.923   5.426
18632WAT     H156138   0.555   8.834   5.471
18632WAT     H256139   0.652   8.920   5.370
18633WAT      O56140   8.403   7.002   7.233
18633WAT     H156141   8.484   6.996   7.175
18633WAT     H256142   8.328   7.044   7.182
18634WAT      O56143   5.474   2.676   8.756
18634WAT     H156144   5.556   2.694   8.810
18634WAT     H256145   5.476   2.732   8.673
18635WAT      O56146   4.104   7.224   7.565
18635WAT     H156147   4.030   7.198   7.627
18635WAT     H256148   4.133   7.317   7.585
18636WAT      O56149   8.710   2.951   3.191
18636WAT     H156150   8.766   2.877   3.153
18636WAT     H256151   8.718   3.031   3.132
18637WAT      O56152   5.094   9.379   3.929
18637WAT     H156153   5.174   9.325   3.901
18637WAT     H256154   5.011   9.328   3.909
18638WAT      O56155   5.571   8.282   4.259
18638WAT     H156156   5.559   8.381   4.267
18638WAT     H256157   5.667   8.262   4.235
18639WAT      O56158   3.920   1.979   2.437
18639WAT     H156159   3.950   1.885   2.423
18639WAT     H256160   3.994   2.042   2.411
18640WAT      O56161   3.564   9.116   6.575
18640WAT     H156162   3.482   9.148   6.623
18640WAT     H256163   3.579   9.019   6.597
18641WAT      O56164   0.014   4.374   7.647
18641WAT     H156165   0.113   4.366   7.664
18641WAT     H256166  -0.029   4.419   7.725
18642WAT      O56167   7.433   5.882   8.935
18642WAT     H156168   7.395   5.801   8.890
18642WAT     H256169   7.525   5.862   8.967
18643WAT      O56170   1.434   0.657   2.403
18643WAT     H156171   1.494   0.631   2.478
18643WAT     H256172   1.341   0.624   2.421
18644WAT      O56173   1.149   5.402   8.946
18644WAT     H156174   1.155   5.315   8.994
18644WAT     H256175   1.241   5.432   8.920
18645WAT      O56176   3.827   6.005   1.836
18645WAT     H156177   3.927   5.998   1.837
18645WAT     H256178   3.795   6.004   1.741
18646WAT      O56179   2.553   6.885   9.447
18646WAT     H156180   2.569   6.958   9.381
18646WAT     H256181   2.516   6.805   9.400
18647WAT      O56182   0.228   3.730   6.704
18647WAT     H156183   0.320   3.713   6.668
18647WAT     H256184   0.214   3.829   6.714
18648WAT      O56185   4.587   7.212   6.157
18648WAT     H156186   4.493   7.235   6.129
18648WAT     H256187   4.615   7.127   6.114
18649WAT      O56188   9.550   8.955   1.784
18649WAT     H156189   9.470   9.011   1.807
18649WAT     H256190   9.622   8.970   1.851
18650WAT      O56191   8.630   6.110   0.205
18650WAT     H156192   8.552   6.047   0.217
18650WAT     H256193   8.620   6.159   0.118
18651WAT      O56194   5.050   6.429   7.231
18651WAT     H156195   5.127   6.378   7.193
18651WAT     H256196   5.082   6.486   7.306
18652WAT      O56197   0.148   8.107   5.679
18652WAT     H156198   0.214   8.096   5.606
18652WAT     H256199   0.192   8.153   5.757
18653WAT      O56200   7.541   2.603   5.475
18653WAT     H156201   7.624   2.567   5.518
18653WAT     H256202   7.465   2.596   5.540
18654WAT      O56203   7.070   6.664   2.325
18654WAT     H156204   7.136   6.738   2.324
18654WAT     H256205   7.116   6.577   2.311
18655WAT      O56206   1.420   7.443   1.444
18655WAT     H156207   1.506   7.419   1.400
18655WAT     H256208   1.435   7.517   1.510
18656WAT      O56209   3.138   8.479   0.897
18656WAT     H156210   3.146   8.380   0.893
18656WAT     H256211   3.198   8.520   0.828
18657WAT      O56212   3.458   0.293   4.820
18657WAT     H156213   3.418   0.284   4.911
18657WAT     H256214   3.406   0.237   4.755
18658WAT      O56215   7.277   0.508   1.474
18658WAT     H156216   7.196   0.450   1.481
18658WAT     H256217   7.323   0.513   1.563
18659WAT      O56218   2.506   2.415   1.866
18659WAT     H156219   2.529   2.338   1.806
18659WAT     H256220   2.422   2.395   1.915
18660WAT      O56221   1.848   8.404   0.602
18660WAT     H156222   1.921   8.472   0.594
18660WAT     H256223   1.837   8.377   0.698
18661WAT      O56224   4.462   0.212   9.345
18661WAT     H156225   4.459   0.224   9.444
18661WAT     H256226   4.435   0.118   9.321
18662WAT      O56227   7.208   9.112   2.921
18662WAT     H156228   7.126   9.057   2.902
18662WAT     H256229   7.263   9.119   2.838
18663WAT      O56230   5.698   0.899   5.889
18663WAT     H156231   5.651   0.951   5.818
18663WAT     H256232   5.638   0.888   5.967
18664WAT      O56233   9.342   4.505   1.818
18664WAT     H156234   9.403   4.562   1.763
18664WAT     H256235   9.377   4.411   1.821
18665WAT      O56236   2.468   1.693   8.351
18665WAT     H156237   2.483   1.759   8.277
18665WAT     H256238   2.392   1.724   8.409
18666WAT      O56239   5.149   8.524   5.610
18666WAT     H156240   5.051   8.535   5.629
18666WAT     H256241   5.176   8.584   5.535
18667WAT      O56242   1.025   1.302   0.982
18667WAT     H156243   0.976   1.359   1.048
18667WAT     H256244   1.104   1.352   0.946
18668WAT      O56245   9.186   5.712   3.488
18668WAT     H156246   9.278   5.694   3.452
18668WAT     H256247   9.127   5.743   3.413
18669WAT      O56248   7.267   5.401   7.580
18669WAT     H156249   7.314   5.386   7.667
18669WAT     H256250   7.293   5.490   7.542
18670WAT      O56251   1.888   8.874   1.527
18670WAT     H156252   1.807   8.821   1.549
18670WAT     H256253   1.952   8.818   1.475
18671WAT      O56254   4.637   1.087   7.649
18671WAT     H156255   4.593   1.154   7.589
18671WAT     H256256   4.589   1.085   7.737
18672WAT      O56257   3.944   0.716   0.279
18672WAT     H156258   3.999   0.662   0.342
18672WAT     H256259   3.896   0.788   0.329
18673WAT      O56260   4.914   3.519   5.507
18673WAT     H156261   5.007   3.511   5.471
18673WAT     H256262   4.851   3.537   5.431
18674WAT      O56263   9.354   1.104   6.853
18674WAT     H156264   9.411   1.184   6.837
18674WAT     H256265   9.262   1.122   6.818
18675WAT      O56266   6.930   2.349   9.383
18675WAT     H156267   6.907   2.259   9.346
18675WAT     H256268   6.991   2.396   9.320
18676WAT      O56269   2.178   0.674   2.120
18676WAT     H156270   2.105   0.628   2.171
18676WAT     H256271   2.180   0.771   2.144
18677WAT      O56272   0.860   2.169   0.314
18677WAT     H156273   0.860   2.118   0.229
18677WAT     H256274   0.932   2.239   0.312
18678WAT      O56275   4.834   8.888   0.743
18678WAT     H156276   4.832   8.812   0.679
18678WAT     H256277   4.759   8.951   0.723
18679WAT      O56278   9.276   2.858   5.859
18679WAT     H156279   9.283   2.782   5.795
18679WAT     H256280   9.364   2.906   5.864
18680WAT      O56281   6.695   9.337   7.864
18680WAT     H156282   6.722   9.258   7.920
18680WAT     H256283   6.777   9.390   7.841
18681WAT      O56284   9.433   8.015   5.137
18681WAT     H156285   9.514   7.977   5.092
18681WAT     H256286   9.374   7.940   5.168
18682WAT      O56287   4.389   4.895   3.537
18682WAT     H156288   4.461   4.865   3.475
18682WAT     H256289   4.345   4.977   3.501
18683WAT      O56290   2.401   6.561   9.701
18683WAT     H156291   2.320   6.507   9.727
18683WAT     H256292   2.431   6.534   9.610
18684WAT      O56293   5.409   8.494   7.283
18684WAT     H156294   5.345   8.550   7.230
18684WAT     H256295   5.492   8.548   7.300
18685WAT      O56296   5.071   3.582   3.101
18685WAT     H156297   5.119   3.594   3.014
18685WAT     H256298   5.050   3.672   3.139
18686WAT      O56299   0.603   0.440   8.186
18686WAT     H156300   0.673   0.472   8.250
18686WAT     H256301   0.634   0.454   8.092
18687WAT      O56302   8.021   9.478   4.390
18687WAT     H156303   7.962   9.527   4.453
18687WAT     H256304   7.978   9.474   4.299
18688WAT      O56305   4.842   0.927   6.979
18688WAT     H156306   4.843   0.829   7.001
18688WAT     H256307   4.788   0.976   7.047
18689WAT      O56308   1.148   3.077   8.256
18689WAT     H156309   1.220   3.008   8.255
18689WAT     H256310   1.115   3.091   8.349
18690WAT      O56311   5.265   7.042   4.360
18690WAT     H156312   5.258   7.011   4.455
18690WAT     H256313   5.290   7.139   4.359
18691WAT      O56314   5.978   5.540   1.112
18691WAT     H156315   6.044   5.479   1.156
18691WAT     H256316   6.009   5.560   1.019
18692WAT      O56317   4.464   3.350   3.534
18692WAT     H156318   4.548   3.302   3.513
18692WAT     H256319   4.482   3.424   3.599
18693WAT      O56320   3.770   0.113   4.571
18693WAT     H156321   3.716   0.184   4.617
18693WAT     H256322   3.859   0.106   4.615
18694WAT      O56323   4.258   9.231   9.052
18694WAT     H156324   4.198   9.249   9.130
18694WAT     H256325   4.353   9.228   9.084
18695WAT      O56326   3.580   8.335   6.778
18695WAT     H156327   3.499   8.344   6.836
18695WAT     H256328   3.658   8.306   6.834
18696WAT      O56329   0.955   8.474   8.728
18696WAT     H156330   1.038   8.516   8.762
18696WAT     H256331   0.964   8.459   8.629
18697WAT      O56332   0.629   5.868   5.930
18697WAT     H156333   0.696   5.931   5.971
18697WAT     H256334   0.571   5.919   5.866
18698WAT      O56335   6.319   7.037   8.912
18698WAT     H156336   6.257   6.995   8.846
18698WAT     H256337   6.321   7.136   8.898
18699WAT      O56338   5.567   6.204   8.734
18699WAT     H156339   5.662   6.234   8.722
18699WAT     H256340   5.564   6.104   8.738
18700WAT      O56341   8.101   2.028   5.411
18700WAT     H156342   8.018   2.077   5.438
18700WAT     H256343   8.167   2.031   5.485
18701WAT      O56344   3.089   0.097   7.051
18701WAT     H156345   3.139   0.169   7.100
18701WAT     H256346   3.027   0.140   6.985
18702WAT      O56347   9.697   8.376   3.722
18702WAT     H156348   9.646   8.433   3.787
18702WAT     H256349   9.657   8.386   3.631
18703WAT      O56350   3.832   1.938   4.763
18703WAT     H156351   3.911   1.879   4.745
18703WAT     H256352   3.753   1.905   4.712
18704WAT      O56353   8.831   0.605   9.214
18704WAT     H156354   8.750   0.596   9.156
18704WAT     H256355   8.912   0.618   9.156
18705WAT      O56356   3.301   6.989   1.254
18705WAT     H156357   3.325   7.055   1.182
18705WAT     H256358   3.217   6.941   1.230
18706WAT      O56359   4.392   0.246   8.824
18706WAT     H156360   4.322   0.191   8.870
18706WAT     H256361   4.482   0.214   8.852
18707WAT      O56362   3.939   2.162   4.648
18707WAT     H156363   3.864   2.138   4.586
18707WAT     H256364   3.941   2.098   4.724
18708WAT      O56365   0.528   2.604   2.975
18708WAT     H156366   0.574   2.687   3.007
18708WAT     H256367   0.584   2.560   2.904
18709WAT      O56368   6.779   8.544   3.731
18709WAT     H156369   6.866   8.559   3.685
18709WAT     H256370   6.729   8.630   3.736
18710WAT      O56371   7.054   2.898   6.630
18710WAT     H156372   7.113   2.829   6.671
18710WAT     H256373   7.056   2.889   6.531
18711WAT      O56374   9.373   9.191   6.434
18711WAT     H156375   9.279   9.224   6.445
18711WAT     H256376   9.388   9.164   6.339
18712WAT      O56377   5.123   0.380   3.513
18712WAT     H156378   5.044   0.431   3.478
18712WAT     H256379   5.191   0.371   3.441
18713WAT      O56380   1.001   9.399   9.675
18713WAT     H156381   1.042   9.486   9.702
18713WAT     H256382   1.050   9.324   9.721
18714WAT      O56383   3.019   2.085   4.008
18714WAT     H156384   2.957   2.033   3.948
18714WAT     H256385   2.973   2.169   4.037
18715WAT      O56386   7.378   6.422   7.858
18715WAT     H156387   7.347   6.512   7.829
18715WAT     H256388   7.443   6.432   7.933
18716WAT      O56389   7.452   0.571   2.025
18716WAT     H156390   7.432   0.661   2.065
18716WAT     H256391   7.550   0.564   2.008
18717WAT      O56392   3.862   3.809   4.731
18717WAT     H156393   3.949   3.800   4.780
18717WAT     H256394   3.860   3.745   4.654
18718WAT      O56395   5.470   5.494   9.033
18718WAT     H156396   5.456   5.398   9.008
18718WAT     H256397   5.404   5.551   8.984
18719WAT      O56398   9.078   9.579   5.301
18719WAT     H156399   9.157   9.625   5.260
18719WAT     H256400   8.995   9.633   5.284
18720WAT      O56401   3.045   7.990   1.951
18720WAT     H156402   3.050   7.917   1.883
18720WAT     H256403   3.130   7.991   2.004
18721WAT      O56404   8.921   5.592   7.894
18721WAT     H156405   8.940   5.539   7.811
18721WAT     H256406   9.007   5.609   7.943
18722WAT      O56407   4.428   9.310   6.424
18722WAT     H156408   4.409   9.231   6.366
18722WAT     H256409   4.526   9.312   6.447
18723WAT      O56410   1.044   8.513   6.211
18723WAT     H156411   1.040   8.579   6.286
18723WAT     H256412   1.100   8.435   6.238
18724WAT      O56413   7.387   5.824   9.425
18724WAT     H156414   7.349   5.754   9.365
18724WAT     H256415   7.332   5.830   9.509
18725WAT      O56416   0.124   7.289   4.548
18725WAT     H156417   0.136   7.387   4.561
18725WAT     H256418   0.029   7.264   4.567
18726WAT      O56419   7.105   5.495   9.703
18726WAT     H156420   7.195   5.514   9.742
18726WAT     H256421   7.038   5.557   9.743
18727WAT      O56422   9.325   6.774   3.360
18727WAT     H156423   9.241   6.722   3.345
18727WAT     H256424   9.398   6.712   3.390
18728WAT      O56425   5.339   9.078   5.140
18728WAT     H156426   5.396   9.001   5.109
18728WAT     H256427   5.290   9.052   5.223
18729WAT      O56428   1.735   8.852   2.943
18729WAT     H156429   1.820   8.806   2.966
18729WAT     H256430   1.749   8.951   2.945
18730WAT      O56431   4.211   7.998   2.628
18730WAT     H156432   4.211   8.089   2.670
18730WAT     H256433   4.198   7.929   2.698
18731WAT      O56434   2.473   1.839   2.404
18731WAT     H156435   2.531   1.818   2.326
18731WAT     H256436   2.519   1.812   2.488
18732WAT      O56437   5.134   1.621   0.809
18732WAT     H156438   5.040   1.597   0.834
18732WAT     H256439   5.196   1.588   0.880
18733WAT      O56440   7.349   0.543   1.065
18733WAT     H156441   7.369   0.553   1.162
18733WAT     H256442   7.418   0.486   1.021
18734WAT      O56443   4.847   9.025   7.399
18734WAT     H156444   4.881   9.097   7.338
18734WAT     H256445   4.872   8.935   7.362
18735WAT      O56446   1.106   8.481   5.145
18735WAT     H156447   1.068   8.400   5.191
18735WAT     H256448   1.032   8.547   5.128
18736WAT      O56449   7.644   7.155   1.771
18736WAT     H156450   7.694   7.204   1.843
18736WAT     H256451   7.707   7.093   1.723
18737WAT      O56452   1.662   7.832   9.037
18737WAT     H156453   1.656   7.931   9.046
18737WAT     H256454   1.571   7.792   9.047
18738WAT      O56455   1.150   2.912   3.893
18738WAT     H156456   1.085   2.987   3.902
18738WAT     H256457   1.220   2.919   3.965
18739WAT      O56458   8.064   1.472   7.518
18739WAT     H156459   8.091   1.412   7.593
18739WAT     H256460   7.968   1.498   7.528
18740WAT      O56461   3.961   9.270   4.415
18740WAT     H156462   3.921   9.276   4.323
18740WAT     H256463   3.913   9.200   4.468
18741WAT      O56464   8.865   7.631   0.893
18741WAT     H156465   8.802   7.620   0.817
18741WAT     H256466   8.834   7.706   0.952
18742WAT      O56467   3.363   7.502   0.024
18742WAT     H156468   3.424   7.548   0.088
18742WAT     H256469   3.334   7.414   0.063
18743WAT      O56470   7.839   6.993   1.626
18743WAT     H156471   7.889   7.068   1.583
18743WAT     H256472   7.903   6.937   1.680
18744WAT      O56473   9.283   8.179   6.703
18744WAT     H156474   9.341   8.238   6.758
18744WAT     H256475   9.309   8.188   6.606
18745WAT      O56476   6.320   7.577   2.284
18745WAT     H156477   6.260   7.501   2.310
18745WAT     H256478   6.414   7.554   2.306
18746WAT      O56479   5.198   3.166   0.707
18746WAT     H156480   5.134   3.205   0.774
18746WAT     H256481   5.241   3.084   0.746
18747WAT      O56482   3.293   6.032   9.216
18747WAT     H156483   3.381   6.021   9.172
18747WAT     H256484   3.296   5.992   9.308
18748WAT      O56485   0.447   6.914   5.344
18748WAT     H156486   0.387   6.906   5.265
18748WAT     H256487   0.537   6.946   5.314
18749WAT      O56488   0.807   7.471   0.981
18749WAT     H156489   0.778   7.536   0.911
18749WAT     H256490   0.809   7.516   1.070
18750WAT      O56491   1.896   0.478   3.480
18750WAT     H156492   1.905   0.384   3.445
18750WAT     H256493   1.981   0.527   3.464
18751WAT      O56494   7.270   8.514   8.409
18751WAT     H156495   7.251   8.425   8.452
18751WAT     H256496   7.228   8.586   8.462
18752WAT      O56497   9.258   4.336   2.953
18752WAT     H156498   9.331   4.375   2.897
18752WAT     H256499   9.217   4.258   2.905
18753WAT      O56500   3.719   9.064   9.531
18753WAT     H156501   3.640   9.122   9.551
18753WAT     H256502   3.799   9.099   9.580
18754WAT      O56503   5.467   0.521   2.240
18754WAT     H156504   5.435   0.434   2.201
18754WAT     H256505   5.428   0.597   2.188
18755WAT      O56506   4.779   2.779   5.627
18755WAT     H156507   4.807   2.855   5.567
18755WAT     H256508   4.723   2.815   5.701
18756WAT      O56509   8.142   4.489   6.436
18756WAT     H156510   8.201   4.408   6.437
18756WAT     H256511   8.198   4.571   6.452
18757WAT      O56512   8.366   2.020   9.654
18757WAT     H156513   8.285   1.987   9.606
18757WAT     H256514   8.345   2.031   9.752
18758WAT      O56515   7.546   6.649   1.374
18758WAT     H156516   7.580   6.733   1.415
18758WAT     H256517   7.469   6.615   1.427
18759WAT      O56518   5.524   5.791   0.679
18759WAT     H156519   5.572   5.826   0.760
18759WAT     H256520   5.431   5.827   0.676
18760WAT      O56521   6.064   7.252   1.294
18760WAT     H156522   6.135   7.185   1.272
18760WAT     H256523   6.105   7.330   1.341
18761WAT      O56524   9.116   8.984   5.710
18761WAT     H156525   9.031   9.001   5.760
18761WAT     H256526   9.168   9.069   5.703
18762WAT      O56527   1.917   3.789   1.608
18762WAT     H156528   1.841   3.830   1.658
18762WAT     H256529   1.905   3.690   1.606
18763WAT      O56530   8.179   1.882   6.874
18763WAT     H156531   8.091   1.856   6.834
18763WAT     H256532   8.171   1.884   6.973
18764WAT      O56533   6.847   8.906   9.241
18764WAT     H156534   6.865   8.905   9.339
18764WAT     H256535   6.815   8.997   9.214
18765WAT      O56536   0.868   8.168   8.277
18765WAT     H156537   0.844   8.226   8.355
18765WAT     H256538   0.813   8.085   8.278
18766WAT      O56539   6.128   4.903   3.086
18766WAT     H156540   6.122   4.849   3.171
18766WAT     H256541   6.096   4.996   3.104
18767WAT      O56542   2.895   3.715   9.210
18767WAT     H156543   2.817   3.748   9.262
18767WAT     H256544   2.876   3.623   9.176
18768WAT      O56545   9.662   8.600   5.009
18768WAT     H156546   9.637   8.554   5.095
18768WAT     H256547   9.760   8.588   4.993
18769WAT      O56548   1.857   2.116   6.785
18769WAT     H156549   1.781   2.120   6.721
18769WAT     H256550   1.938   2.082   6.738
18770WAT      O56551   0.858   5.718   9.600
18770WAT     H156552   0.807   5.784   9.545
18770WAT     H256553   0.856   5.629   9.555
18771WAT      O56554   0.890   8.913   8.616
18771WAT     H156555   0.834   8.941   8.695
18771WAT     H256556   0.923   8.995   8.569
18772WAT      O56557   5.235   9.570   5.655
18772WAT     H156558   5.268   9.605   5.567
18772WAT     H256559   5.136   9.583   5.661
18773WAT      O56560   4.742   3.863   2.670
18773WAT     H156561   4.823   3.805   2.660
18773WAT     H256562   4.723   3.909   2.584
18774WAT      O56563   0.208   2.560   7.326
18774WAT     H156564   0.142   2.506   7.273
18774WAT     H256565   0.191   2.657   7.312
18775WAT      O56566   6.753   6.047   8.712
18775WAT     H156567   6.770   5.988   8.633
18775WAT     H256568   6.839   6.092   8.739
18776WAT      O56569   7.394   5.629   2.804
18776WAT     H156570   7.328   5.612   2.876
18776WAT     H256571   7.357   5.598   2.716
18777WAT      O56572   0.863   1.912   2.656
18777WAT     H156573   0.801   1.896   2.580
18777WAT     H256574   0.941   1.967   2.625
18778WAT      O56575   7.204   7.376   4.536
18778WAT     H156576   7.215   7.297   4.476
18778WAT     H256577   7.246   7.357   4.624
18779WAT      O56578   1.756   8.989   8.991
18779WAT     H156579   1.742   8.942   8.905
18779WAT     H256580   1.668   9.014   9.032
18780WAT      O56581   6.018   1.825   6.653
18780WAT     H156582   5.966   1.740   6.662
18780WAT     H256583   6.064   1.825   6.564
18781WAT      O56584   2.045   6.841   7.484
18781WAT     H156585   1.982   6.901   7.533
18781WAT     H256586   2.108   6.798   7.549
18782WAT      O56587   0.619   3.795   8.769
18782WAT     H156588   0.622   3.876   8.828
18782WAT     H256589   0.684   3.727   8.803
18783WAT      O56590   8.267   6.072   9.736
18783WAT     H156591   8.303   5.988   9.695
18783WAT     H256592   8.184   6.099   9.687
18784WAT      O56593   7.248   8.399   1.354
18784WAT     H156594   7.241   8.476   1.417
18784WAT     H256595   7.162   8.348   1.354
18785WAT      O56596   0.469   1.549   5.173
18785WAT     H156597   0.376   1.552   5.210
18785WAT     H256598   0.535   1.563   5.247
18786WAT      O56599   5.527   2.131   8.574
18786WAT     H156600   5.447   2.123   8.633
18786WAT     H256601   5.527   2.055   8.508
18787WAT      O56602   5.893   0.365   7.317
18787WAT     H156603   5.806   0.344   7.271
18787WAT     H256604   5.882   0.354   7.416
18788WAT      O56605   2.825   1.713   3.096
18788WAT     H156606   2.893   1.696   3.025
18788WAT     H256607   2.734   1.719   3.055
18789WAT      O56608   7.797   5.443   3.289
18789WAT     H156609   7.761   5.534   3.309
18789WAT     H256610   7.809   5.392   3.374
18790WAT      O56611   3.447   9.008   3.328
18790WAT     H156612   3.355   9.042   3.346
18790WAT     H256613   3.463   8.925   3.381
18791WAT      O56614   3.061   4.836   1.735
18791WAT     H156615   3.062   4.909   1.804
18791WAT     H256616   3.153   4.821   1.700
18792WAT      O56617   7.838   9.049   8.110
18792WAT     H156618   7.840   9.061   8.010
18792WAT     H256619   7.761   9.100   8.147
18793WAT      O56620   6.058   3.851   0.672
18793WAT     H156621   6.013   3.849   0.582
18793WAT     H256622   6.051   3.760   0.714
18794WAT      O56623   4.746   4.478   3.412
18794WAT     H156624   4.819   4.412   3.432
18794WAT     H256625   4.756   4.512   3.319
18795WAT      O56626   3.260   1.218   0.471
18795WAT     H156627   3.183   1.277   0.495
18795WAT     H256628   3.268   1.144   0.538
18796WAT      O56629   0.179   4.227   8.386
18796WAT     H156630   0.147   4.136   8.360
18796WAT     H256631   0.121   4.262   8.460
18797WAT      O56632   0.991   5.202   6.413
18797WAT     H156633   1.005   5.284   6.357
18797WAT     H256634   0.902   5.208   6.458
18798WAT      O56635   3.815   3.708   0.848
18798WAT     H156636   3.834   3.756   0.762
18798WAT     H256637   3.900   3.697   0.899
18799WAT      O56638   1.392   2.346   4.485
18799WAT     H156639   1.490   2.347   4.505
18799WAT     H256640   1.377   2.328   4.388
18800WAT      O56641   9.563   2.173   3.900
18800WAT     H156642   9.553   2.074   3.913
18800WAT     H256643   9.480   2.218   3.932
18801WAT      O56644   4.021   9.363   2.465
18801WAT     H156645   4.047   9.336   2.558
18801WAT     H256646   3.926   9.394   2.465
18802WAT      O56647   1.099   1.864   2.337
18802WAT     H156648   1.161   1.825   2.405
18802WAT     H256649   1.151   1.884   2.253
18803WAT      O56650   0.345   6.517   4.364
18803WAT     H156651   0.393   6.444   4.412
18803WAT     H256652   0.285   6.565   4.428
18804WAT      O56653   2.368   9.177   8.131
18804WAT     H156654   2.443   9.203   8.071
18804WAT     H256655   2.342   9.255   8.189
18805WAT      O56656   3.088   4.756   0.086
18805WAT     H156657   3.056   4.666   0.115
18805WAT     H256658   3.097   4.759  -0.013
18806WAT      O56659   6.946   4.304   1.498
18806WAT     H156660   6.998   4.259   1.571
18806WAT     H256661   6.970   4.263   1.410
18807WAT      O56662   5.281   1.495   8.277
18807WAT     H156663   5.327   1.416   8.318
18807WAT     H256664   5.182   1.487   8.290
18808WAT      O56665   5.866   3.605   6.903
18808WAT     H156666   5.964   3.608   6.886
18808WAT     H256667   5.841   3.675   6.970
18809WAT      O56668   8.173   2.065   2.315
18809WAT     H156669   8.120   2.120   2.379
18809WAT     H256670   8.133   1.974   2.307
18810WAT      O56671   4.960   8.092   4.766
18810WAT     H156672   4.895   8.031   4.811
18810WAT     H256673   5.027   8.036   4.715
18811WAT      O56674   2.448   7.921   4.058
18811WAT     H156675   2.387   7.864   4.003
18811WAT     H256676   2.399   8.002   4.090
18812WAT      O56677   2.008   0.478   9.853
18812WAT     H156678   2.020   0.440   9.761
18812WAT     H256679   1.916   0.518   9.861
18813WAT      O56680   8.225   0.313   8.353
18813WAT     H156681   8.265   0.308   8.261
18813WAT     H256682   8.176   0.228   8.372
18814WAT      O56683   6.721   8.207   3.029
18814WAT     H156684   6.797   8.163   3.075
18814WAT     H256685   6.636   8.160   3.054
18815WAT      O56686   7.519   9.723   1.421
18815WAT     H156687   7.520   9.666   1.339
18815WAT     H256688   7.428   9.761   1.434
18816WAT      O56689   2.982   9.240   7.507
18816WAT     H156690   2.996   9.339   7.498
18816WAT     H256691   3.057   9.192   7.462
18817WAT      O56692   1.256   9.759   8.567
18817WAT     H156693   1.337   9.806   8.532
18817WAT     H256694   1.284   9.695   8.639
18818WAT      O56695   5.394   8.592   4.746
18818WAT     H156696   5.370   8.636   4.832
18818WAT     H256697   5.362   8.497   4.747
18819WAT      O56698   8.192   3.493   7.783
18819WAT     H156699   8.194   3.592   7.794
18819WAT     H256700   8.280   3.454   7.811
18820WAT      O56701   7.909   9.037   6.201
18820WAT     H156702   7.940   8.947   6.232
18820WAT     H256703   7.812   9.032   6.175
18821WAT      O56704   9.790   7.610   9.764
18821WAT     H156705   9.809   7.631   9.668
18821WAT     H256706   9.716   7.669   9.796
18822WAT      O56707   1.974   5.161   8.417
18822WAT     H156708   2.007   5.101   8.490
18822WAT     H256709   1.887   5.125   8.382
18823WAT      O56710   9.667   7.811   5.374
18823WAT     H156711   9.579   7.799   5.420
18823WAT     H256712   9.696   7.907   5.383
18824WAT      O56713   7.313   4.242   1.869
18824WAT     H156714   7.399   4.233   1.817
18824WAT     H256715   7.333   4.271   1.962
18825WAT      O56716   1.229   9.232   3.361
18825WAT     H156717   1.260   9.204   3.452
18825WAT     H256718   1.306   9.227   3.297
18826WAT      O56719   3.514   9.389   8.436
18826WAT     H156720   3.430   9.442   8.429
18826WAT     H256721   3.582   9.442   8.486
18827WAT      O56722   9.359   2.695   9.364
18827WAT     H156723   9.299   2.665   9.291
18827WAT     H256724   9.378   2.618   9.425
18828WAT      O56725   6.155   4.131   0.749
18828WAT     H156726   6.133   4.034   0.751
18828WAT     H256727   6.235   4.148   0.806
18829WAT      O56728   4.965   4.558   8.367
18829WAT     H156729   5.014   4.478   8.401
18829WAT     H256730   5.029   4.633   8.353
18830WAT      O56731   3.312   5.134   1.261
18830WAT     H156732   3.220   5.152   1.226
18830WAT     H256733   3.323   5.177   1.350
18831WAT      O56734   7.725   4.696   9.203
18831WAT     H156735   7.810   4.669   9.156
18831WAT     H256736   7.747   4.756   9.280
18832WAT      O56737   8.109   4.131   1.600
18832WAT     H156738   8.204   4.128   1.568
18832WAT     H256739   8.101   4.203   1.669
18833WAT      O56740   7.979   9.595   8.877
18833WAT     H156741   8.053   9.550   8.827
18833WAT     H256742   7.996   9.693   8.881
18834WAT      O56743   8.309   3.306   8.103
18834WAT     H156744   8.354   3.352   8.026
18834WAT     H256745   8.261   3.225   8.070
18835WAT      O56746   1.843   9.464   8.673
18835WAT     H156747   1.872   9.372   8.648
18835WAT     H256748   1.818   9.465   8.770
18836WAT      O56749   4.880   8.938   6.610
18836WAT     H156750   4.949   8.866   6.608
18836WAT     H256751   4.846   8.955   6.518
18837WAT      O56752   2.079   0.774   5.539
18837WAT     H156753   2.007   0.704   5.539
18837WAT     H256754   2.168   0.730   5.553
18838WAT      O56755   4.952   0.993   2.538
18838WAT     H156756   4.999   0.934   2.473
18838WAT     H256757   5.019   1.043   2.593
18839WAT      O56758   2.271   1.899   7.000
18839WAT     H156759   2.279   1.988   7.046
18839WAT     H256760   2.180   1.862   7.017
18840WAT      O56761   7.948   8.872   4.367
18840WAT     H156762   8.042   8.904   4.362
18840WAT     H256763   7.947   8.775   4.390
18841WAT      O56764   9.559   6.766   3.548
18841WAT     H156765   9.573   6.668   3.564
18841WAT     H256766   9.493   6.802   3.614
18842WAT      O56767   4.615   6.952   7.538
18842WAT     H156768   4.546   6.948   7.465
18842WAT     H256769   4.582   7.010   7.612
18843WAT      O56770   4.557   1.433   8.120
18843WAT     H156771   4.546   1.513   8.179
18843WAT     H256772   4.469   1.387   8.109
18844WAT      O56773   8.965   9.654   0.624
18844WAT     H156774   9.031   9.724   0.598
18844WAT     H256775   8.931   9.673   0.716
18845WAT      O56776   6.075   3.823   4.250
18845WAT     H156777   6.164   3.848   4.289
18845WAT     H256778   6.010   3.808   4.324
18846WAT      O56779   8.306   2.939   8.220
18846WAT     H156780   8.349   2.984   8.298
18846WAT     H256781   8.360   2.859   8.194
18847WAT      O56782   7.415   3.839   1.878
18847WAT     H156783   7.470   3.922   1.866
18847WAT     H256784   7.420   3.809   1.973
18848WAT      O56785   7.760   7.543   1.033
18848WAT     H156786   7.751   7.500   1.123
18848WAT     H256787   7.856   7.557   1.012
18849WAT      O56788   1.638   2.835   1.920
18849WAT     H156789   1.712   2.890   1.960
18849WAT     H256790   1.657   2.821   1.822
18850WAT      O56791   1.012   2.888   5.120
18850WAT     H156792   1.101   2.910   5.161
18850WAT     H256793   1.027   2.847   5.029
18851WAT      O56794   1.152   2.137   8.510
18851WAT     H156795   1.126   2.049   8.551
18851WAT     H256796   1.245   2.161   8.540
18852WAT      O56797   9.115   3.905   2.967
18852WAT     H156798   9.124   3.812   2.930
18852WAT     H256799   9.052   3.903   3.044
18853WAT      O56800   1.075   1.800   4.629
18853WAT     H156801   1.142   1.789   4.555
18853WAT     H256802   1.103   1.745   4.708
18854WAT      O56803   1.022   3.038   7.896
18854WAT     H156804   0.966   3.100   7.951
18854WAT     H256805   1.019   3.066   7.800
18855WAT      O56806   8.446   1.024   8.302
18855WAT     H156807   8.435   0.962   8.380
18855WAT     H256808   8.397   1.109   8.321
18856WAT      O56809   2.313   7.524   2.911
18856WAT     H156810   2.229   7.482   2.875
18856WAT     H256811   2.293   7.616   2.943
18857WAT      O56812   6.089   1.036   8.945
18857WAT     H156813   6.133   1.020   9.033
18857WAT     H256814   6.154   1.080   8.883
18858WAT      O56815   6.088   9.577   8.803
18858WAT     H156816   6.152   9.577   8.725
18858WAT     H256817   6.140   9.569   8.888
18859WAT      O56818   8.877   8.223   4.397
18859WAT     H156819   8.948   8.259   4.458
18859WAT     H256820   8.884   8.124   4.391
18860WAT      O56821   8.492   2.371   2.451
18860WAT     H156822   8.503   2.273   2.438
18860WAT     H256823   8.582   2.415   2.452
18861WAT      O56824   5.326   9.299   5.695
18861WAT     H156825   5.292   9.393   5.684
18861WAT     H256826   5.265   9.248   5.755
18862WAT      O56827   7.624   6.579   2.266
18862WAT     H156828   7.526   6.594   2.284
18862WAT     H256829   7.677   6.605   2.347
18863WAT      O56830   4.467   8.288   3.298
18863WAT     H156831   4.520   8.373   3.297
18863WAT     H256832   4.519   8.215   3.252
18864WAT      O56833   3.920   2.074   3.025
18864WAT     H156834   3.862   2.133   3.082
18864WAT     H256835   3.972   2.012   3.084
18865WAT      O56836   8.530   9.311   0.047
18865WAT     H156837   8.559   9.390  -0.007
18865WAT     H256838   8.507   9.341   0.139
18866WAT      O56839   4.393   8.954   0.573
18866WAT     H156840   4.343   8.894   0.510
18866WAT     H256841   4.487   8.967   0.541
18867WAT      O56842   4.855   4.939   2.356
18867WAT     H156843   4.820   4.936   2.449
18867WAT     H256844   4.889   4.849   2.329
18868WAT      O56845   7.339   8.797   5.902
18868WAT     H156846   7.411   8.728   5.895
18868WAT     H256847   7.252   8.751   5.921
18869WAT      O56848   4.639   1.050   3.541
18869WAT     H156849   4.671   1.134   3.497
18869WAT     H256850   4.624   0.979   3.472
18870WAT      O56851   0.559   3.181   9.198
18870WAT     H156852   0.611   3.267   9.201
18870WAT     H256853   0.473   3.193   9.248
18871WAT      O56854   8.279   9.522   9.865
18871WAT     H156855   8.216   9.444   9.870
18871WAT     H256856   8.372   9.489   9.850
18872WAT      O56857   4.668   8.715   0.586
18872WAT     H156858   4.604   8.667   0.646
18872WAT     H256859   4.725   8.648   0.537
18873WAT      O56860   8.295   3.700   7.434
18873WAT     H156861   8.221   3.633   7.432
18873WAT     H256862   8.379   3.659   7.398
18874WAT      O56863   7.687   1.668   2.139
18874WAT     H156864   7.743   1.731   2.085
18874WAT     H256865   7.687   1.698   2.234
18875WAT      O56866   3.681   1.730   6.776
18875WAT     H156867   3.589   1.690   6.781
18875WAT     H256868   3.738   1.692   6.849
18876WAT      O56869   3.982   4.656   2.251
18876WAT     H156870   3.900   4.602   2.236
18876WAT     H256871   4.002   4.710   2.169
18877WAT      O56872   0.752   7.171   3.898
18877WAT     H156873   0.754   7.071   3.892
18877WAT     H256874   0.721   7.198   3.990
18878WAT      O56875   1.883   3.612   3.022
18878WAT     H156876   1.848   3.665   3.100
18878WAT     H256877   1.871   3.665   2.938
18879WAT      O56878   3.017   0.445   6.741
18879WAT     H156879   2.936   0.503   6.740
18879WAT     H256880   3.002   0.368   6.804
18880WAT      O56881   0.978   1.945   5.908
18880WAT     H156882   0.950   1.965   5.815
18880WAT     H256883   1.015   1.852   5.912
18881WAT      O56884   4.925   0.045   7.854
18881WAT     H156885   4.948   0.130   7.807
18881WAT     H256886   4.883  -0.019   7.790
18882WAT      O56887   5.025   2.203   0.535
18882WAT     H156888   4.939   2.201   0.587
18882WAT     H256889   5.056   2.110   0.520
18883WAT      O56890   1.660   7.589   4.377
18883WAT     H156891   1.642   7.683   4.348
18883WAT     H256892   1.580   7.553   4.425
18884WAT      O56893   9.047   2.498   6.294
18884WAT     H156894   8.964   2.480   6.241
18884WAT     H256895   9.074   2.415   6.343
18885WAT      O56896   2.515   0.911   4.987
18885WAT     H156897   2.453   0.918   4.909
18885WAT     H256898   2.581   0.838   4.970
18886WAT      O56899   7.061   1.451   5.924
18886WAT     H156900   7.017   1.385   5.985
18886WAT     H256901   7.127   1.505   5.976
18887WAT      O56902   3.742   1.138   3.031
18887WAT     H156903   3.826   1.107   3.077
18887WAT     H256904   3.733   1.090   2.943
18888WAT      O56905   4.972   8.250   0.161
18888WAT     H156906   5.027   8.333   0.157
18888WAT     H256907   5.032   8.170   0.154
18889WAT      O56908   4.914   4.960   7.847
18889WAT     H156909   4.919   4.862   7.831
18889WAT     H256910   4.819   4.990   7.842
18890WAT      O56911   9.595   0.170   1.424
18890WAT     H156912   9.573   0.267   1.409
18890WAT     H256913   9.606   0.124   1.336
18891WAT      O56914   2.626   2.874   2.844
18891WAT     H156915   2.668   2.954   2.886
18891WAT     H256916   2.697   2.815   2.806
18892WAT      O56917   0.604   2.571   1.459
18892WAT     H156918   0.632   2.548   1.366
18892WAT     H256919   0.685   2.581   1.516
18893WAT      O56920   4.401   1.582   6.505
18893WAT     H156921   4.329   1.518   6.478
18893WAT     H256922   4.368   1.639   6.581
18894WAT      O56923   8.157   4.622   7.705
18894WAT     H156924   8.166   4.528   7.670
18894WAT     H256925   8.248   4.659   7.724
18895WAT      O56926   9.176   7.415   0.158
18895WAT     H156927   9.127   7.349   0.101
18895WAT     H256928   9.127   7.502   0.157
18896WAT      O56929   8.032   8.020   0.928
18896WAT     H156930   7.936   7.993   0.917
18896WAT     H256931   8.050   8.037   1.025
18897WAT      O56932   1.059   5.379   6.122
18897WAT     H156933   1.066   5.301   6.059
18897WAT     H256934   0.963   5.394   6.145
18898WAT      O56935   0.076   8.959   9.829
18898WAT     H156936   0.103   9.047   9.868
18898WAT     H256937  -0.021   8.942   9.850
18899WAT      O56938   1.295   6.855   3.433
18899WAT     H156939   1.377   6.844   3.489
18899WAT     H256940   1.319   6.906   3.350
18900WAT      O56941   4.480   7.187   1.935
18900WAT     H156942   4.568   7.234   1.942
18900WAT     H256943   4.493   7.089   1.947
18901WAT      O56944   2.017   2.227   9.161
18901WAT     H156945   1.951   2.264   9.227
18901WAT     H256946   2.041   2.134   9.187
18902WAT      O56947   9.884   9.305   2.896
18902WAT     H156948   9.942   9.364   2.953
18902WAT     H256949   9.812   9.265   2.952
18903WAT      O56950   2.605   0.906   2.694
18903WAT     H156951   2.679   0.885   2.629
18903WAT     H256952   2.607   0.840   2.768
18904WAT      O56953   9.290   1.544   8.812
18904WAT     H156954   9.269   1.462   8.758
18904WAT     H256955   9.378   1.531   8.859
18905WAT      O56956   4.771   4.222   8.013
18905WAT     H156957   4.710   4.161   8.064
18905WAT     H256958   4.843   4.168   7.970
18906WAT      O56959   6.001   9.727   5.422
18906WAT     H156960   5.958   9.667   5.489
18906WAT     H256961   6.076   9.777   5.465
18907WAT      O56962   4.348   7.364   8.838
18907WAT     H156963   4.332   7.361   8.740
18907WAT     H256964   4.348   7.270   8.875
18908WAT      O56965   3.455   4.847   0.875
18908WAT     H156966   3.533   4.854   0.938
18908WAT     H256967   3.372   4.873   0.923
18909WAT      O56968   0.231   0.354   5.824
18909WAT     H156969   0.302   0.377   5.758
18909WAT     H256970   0.156   0.419   5.816
18910WAT      O56971   1.572   3.276   3.096
18910WAT     H156972   1.633   3.198   3.114
18910WAT     H256973   1.606   3.357   3.144
18911WAT      O56974   2.167   9.468   5.142
18911WAT     H156975   2.226   9.471   5.222
18911WAT     H256976   2.217   9.431   5.064
18912WAT      O56977   5.887   1.835   7.430
18912WAT     H156978   5.908   1.738   7.431
18912WAT     H256979   5.934   1.880   7.507
18913WAT      O56980   8.268   6.811   3.912
18913WAT     H156981   8.284   6.717   3.881
18913WAT     H256982   8.326   6.830   3.991
18914WAT      O56983   8.713   1.309   8.529
18914WAT     H156984   8.628   1.355   8.557
18914WAT     H256985   8.758   1.364   8.458
18915WAT      O56986   6.943   0.227   6.744
18915WAT     H156987   6.868   0.288   6.721
18915WAT     H256988   7.030   0.274   6.731
18916WAT      O56989   9.041   7.883   2.245
18916WAT     H156990   9.052   7.976   2.210
18916WAT     H256991   9.122   7.829   2.223
18917WAT      O56992   4.468   5.408   7.284
18917WAT     H156993   4.531   5.338   7.252
18917WAT     H256994   4.508   5.499   7.268
18918WAT      O56995   2.002   7.026   3.418
18918WAT     H156996   2.009   6.927   3.406
18918WAT     H256997   1.980   7.069   3.331
18919WAT      O56998   4.276   3.674   2.997
18919WAT     H156999   4.291   3.736   3.074
18919WAT     H257000   4.178   3.659   2.985
18920WAT      O57001   3.807   3.568   2.738
18920WAT     H157002   3.708   3.577   2.752
18920WAT     H257003   3.830   3.472   2.725
18921WAT      O57004   4.714   1.510   1.583
18921WAT     H157005   4.667   1.499   1.495
18921WAT     H257006   4.724   1.607   1.603
18922WAT      O57007   2.446   2.231   4.356
18922WAT     H157008   2.506   2.178   4.416
18922WAT     H257009   2.497   2.257   4.274
18923WAT      O57010   5.915   2.006   8.455
18923WAT     H157011   5.991   2.024   8.518
18923WAT     H257012   5.946   2.017   8.361
18924WAT      O57013   7.553   7.412   9.672
18924WAT     H157014   7.510   7.343   9.729
18924WAT     H257015   7.494   7.432   9.593
18925WAT      O57016   0.231   2.810   5.472
18925WAT     H157017   0.315   2.864   5.465
18925WAT     H257018   0.153   2.872   5.485
18926WAT      O57019   9.792   0.761   4.995
18926WAT     H157020   9.708   0.795   5.037
18926WAT     H257021   9.787   0.773   4.896
18927WAT      O57022   1.785   6.075   2.019
18927WAT     H157023   1.803   6.068   2.117
18927WAT     H257024   1.809   5.988   1.975
18928WAT      O57025   9.827   0.476   5.020
18928WAT     H157026   9.792   0.430   4.938
18928WAT     H257027   9.830   0.574   5.004
18929WAT      O57028   7.108   7.174   1.287
18929WAT     H157029   7.201   7.150   1.258
18929WAT     H257030   7.075   7.106   1.352
18930WAT      O57031   4.426   2.382   5.066
18930WAT     H157032   4.515   2.363   5.108
18930WAT     H257033   4.390   2.299   5.024
18931WAT      O57034   6.198   3.089   7.087
18931WAT     H157035   6.157   3.166   7.037
18931WAT     H257036   6.126   3.021   7.106
18932WAT      O57037   8.384   1.594   0.511
18932WAT     H157038   8.476   1.570   0.539
18932WAT     H257039   8.373   1.694   0.513
18933WAT      O57040   1.062   8.800   1.948
18933WAT     H157041   1.083   8.706   1.923
18933WAT     H257042   1.036   8.804   2.045
18934WAT      O57043   7.310   7.292   9.832
18934WAT     H157044   7.266   7.229   9.769
18934WAT     H257045   7.259   7.378   9.834
18935WAT      O57046   7.592   3.808   9.567
18935WAT     H157047   7.520   3.745   9.597
18935WAT     H257048   7.647   3.763   9.496
18936WAT      O57049   4.399   7.730   4.763
18936WAT     H157050   4.496   7.712   4.746
18936WAT     H257051   4.368   7.675   4.841
18937WAT      O57052   5.224   7.062   8.582
18937WAT     H157053   5.215   7.156   8.616
18937WAT     H257054   5.137   7.014   8.595
18938WAT      O57055   2.285   2.315   5.263
18938WAT     H157056   2.267   2.366   5.347
18938WAT     H257057   2.288   2.378   5.185
18939WAT      O57058   4.904   1.034   1.523
18939WAT     H157059   4.851   0.950   1.511
18939WAT     H257060   4.863   1.107   1.468
18940WAT      O57061   9.248   8.603   2.650
18940WAT     H157062   9.302   8.589   2.733
18940WAT     H257063   9.156   8.567   2.664
18941WAT      O57064   3.014   8.020   5.832
18941WAT     H157065   2.961   7.969   5.765
18941WAT     H257066   3.059   7.957   5.895
18942WAT      O57067   4.664   7.679   7.391
18942WAT     H157068   4.619   7.591   7.371
18942WAT     H257069   4.722   7.704   7.313
18943WAT      O57070   6.356   6.645   7.201
18943WAT     H157071   6.341   6.694   7.287
18943WAT     H257072   6.367   6.547   7.220
18944WAT      O57073   5.218   8.557   7.648
18944WAT     H157074   5.200   8.655   7.644
18944WAT     H257075   5.230   8.529   7.744
18945WAT      O57076   0.415   8.427   0.887
18945WAT     H157077   0.428   8.445   0.985
18945WAT     H257078   0.347   8.491   0.851
18946WAT      O57079   1.630   3.215   4.027
18946WAT     H157080   1.680   3.290   4.071
18946WAT     H257081   1.691   3.166   3.964
18947WAT      O57082   0.859   4.252   3.595
18947WAT     H157083   0.807   4.337   3.587
18947WAT     H257084   0.886   4.238   3.690
18948WAT      O57085   8.939   7.235   9.558
18948WAT     H157086   9.037   7.244   9.579
18948WAT     H257087   8.927   7.167   9.486
18949WAT      O57088   3.064   1.337   5.290
18949WAT     H157089   3.095   1.367   5.380
18949WAT     H257090   3.002   1.259   5.300
18950WAT      O57091   1.635   6.604   6.442
18950WAT     H157092   1.581   6.606   6.526
18950WAT     H257093   1.655   6.509   6.418
18951WAT      O57094   0.750   3.332   8.773
18951WAT     H157095   0.760   3.244   8.727
18951WAT     H257096   0.812   3.337   8.852
18952WAT      O57097   1.696   3.424   2.075
18952WAT     H157098   1.744   3.506   2.042
18952WAT     H257099   1.762   3.351   2.091
18953WAT      O57100   5.618   6.876   3.744
18953WAT     H157101   5.646   6.865   3.649
18953WAT     H257102   5.616   6.787   3.789
18954WAT      O57103   2.149   0.493   8.506
18954WAT     H157104   2.051   0.473   8.507
18954WAT     H257105   2.194   0.443   8.580
18955WAT      O57106   5.009   1.222   3.010
18955WAT     H157107   5.005   1.223   3.110
18955WAT     H257108   4.922   1.255   2.973
18956WAT      O57109   1.452   7.989   2.561
18956WAT     H157110   1.529   8.014   2.620
18956WAT     H257111   1.366   8.001   2.610
18957WAT      O57112   5.407   9.211   7.867
18957WAT     H157113   5.474   9.277   7.901
18957WAT     H257114   5.320   9.257   7.851
18958WAT      O57115   6.107   2.994   4.933
18958WAT     H157116   6.170   2.945   4.872
18958WAT     H257117   6.115   2.958   5.026
18959WAT      O57118   9.074   6.009   6.344
18959WAT     H157119   9.085   5.918   6.384
18959WAT     H257120   9.077   6.003   6.245
18960WAT      O57121   1.247   4.445   0.343
18960WAT     H157122   1.345   4.439   0.361
18960WAT     H257123   1.216   4.539   0.357
18961WAT      O57124   3.199   7.253   2.147
18961WAT     H157125   3.151   7.340   2.147
18961WAT     H257126   3.203   7.218   2.053
18962WAT      O57127   1.230   3.136   9.481
18962WAT     H157128   1.314   3.189   9.491
18962WAT     H257129   1.183   3.164   9.397
18963WAT      O57130   4.562   5.479   6.053
18963WAT     H157131   4.523   5.571   6.057
18963WAT     H257132   4.556   5.444   5.960
18964WAT      O57133   4.235   5.216   8.579
18964WAT     H157134   4.277   5.306   8.579
18964WAT     H257135   4.174   5.207   8.500
18965WAT      O57136   5.447   5.459   5.876
18965WAT     H157137   5.460   5.465   5.777
18965WAT     H257138   5.528   5.493   5.923
18966WAT      O57139   0.047   6.360   4.292
18966WAT     H157140   0.049   6.459   4.305
18966WAT     H257141  -0.043   6.332   4.260
18967WAT      O57142   1.046   4.544   9.025
18967WAT     H157143   1.048   4.609   8.949
18967WAT     H257144   1.132   4.494   9.028
18968WAT      O57145   9.426   7.108   5.898
18968WAT     H157146   9.459   7.110   5.804
18968WAT     H257147   9.455   7.192   5.945
18969WAT      O57148   3.338   8.464   3.134
18969WAT     H157149   3.431   8.500   3.142
18969WAT     H257150   3.318   8.405   3.212
18970WAT      O57151   2.174   8.231   2.265
18970WAT     H157152   2.243   8.273   2.325
18970WAT     H257153   2.205   8.140   2.238
18971WAT      O57154   3.741   5.217   2.064
18971WAT     H157155   3.688   5.300   2.045
18971WAT     H257156   3.796   5.194   1.983
18972WAT      O57157   5.860   0.997   6.116
18972WAT     H157158   5.807   0.926   6.068
18972WAT     H257159   5.957   0.982   6.101
18973WAT      O57160   9.610   4.241   5.650
18973WAT     H157161   9.667   4.256   5.570
18973WAT     H257162   9.602   4.326   5.702
18974WAT      O57163   6.557   8.622   6.404
18974WAT     H157164   6.623   8.639   6.478
18974WAT     H257165   6.576   8.532   6.364
18975WAT      O57166   5.851   5.211   6.237
18975WAT     H157167   5.755   5.196   6.213
18975WAT     H257168   5.871   5.309   6.234
18976WAT      O57169   0.188   9.540   0.239
18976WAT     H157170   0.279   9.529   0.199
18976WAT     H257171   0.118   9.522   0.169
18977WAT      O57172   0.021   3.343   9.269
18977WAT     H157173   0.001   3.349   9.171
18977WAT     H257174   0.010   3.432   9.312
18978WAT      O57175   7.042   6.221   9.345
18978WAT     H157176   6.987   6.293   9.388
18978WAT     H257177   7.002   6.132   9.365
18979WAT      O57178   9.418   6.299   1.481
18979WAT     H157179   9.329   6.258   1.502
18979WAT     H257180   9.415   6.340   1.390
18980WAT      O57181   2.029   0.864   7.575
18980WAT     H157182   1.977   0.892   7.656
18980WAT     H257183   2.023   0.935   7.505
18981WAT      O57184   7.245   9.401   0.060
18981WAT     H157185   7.246   9.496   0.027
18981WAT     H257186   7.158   9.382   0.105
18982WAT      O57187   1.398   1.784   3.065
18982WAT     H157188   1.365   1.724   2.993
18982WAT     H257189   1.323   1.806   3.128
18983WAT      O57190   2.655   4.684   6.803
18983WAT     H157191   2.741   4.649   6.839
18983WAT     H257192   2.596   4.607   6.779
18984WAT      O57193   2.589   2.406   6.279
18984WAT     H157194   2.536   2.338   6.229
18984WAT     H257195   2.622   2.476   6.216
18985WAT      O57196   6.256   5.650   8.921
18985WAT     H157197   6.226   5.588   8.847
18985WAT     H257198   6.353   5.638   8.937
18986WAT      O57199   4.574   3.533   5.039
18986WAT     H157200   4.515   3.452   5.043
18986WAT     H257201   4.669   3.504   5.030
18987WAT      O57202   7.568   3.126   7.202
18987WAT     H157203   7.489   3.188   7.194
18987WAT     H257204   7.568   3.062   7.126
18988WAT      O57205   1.013   2.251   8.828
18988WAT     H157206   0.975   2.344   8.828
18988WAT     H257207   0.955   2.192   8.772
18989WAT      O57208   0.444   0.066   6.427
18989WAT     H157209   0.352   0.026   6.424
18989WAT     H257210   0.509   0.002   6.387
18990WAT      O57211   3.477   7.340   0.612
18990WAT     H157212   3.474   7.318   0.710
18990WAT     H257213   3.540   7.416   0.598
18991WAT      O57214   5.557   5.352   1.826
18991WAT     H157215   5.487   5.326   1.893
18991WAT     H257216   5.647   5.346   1.868
18992WAT      O57217   5.373   5.144   2.557
18992WAT     H157218   5.278   5.117   2.541
18992WAT     H257219   5.376   5.234   2.601
18993WAT      O57220   0.125   6.271   2.909
18993WAT     H157221   0.084   6.233   2.991
18993WAT     H257222   0.219   6.236   2.899
18994WAT      O57223   1.796   3.701   5.903
18994WAT     H157224   1.836   3.687   5.994
18994WAT     H257225   1.722   3.635   5.889
18995WAT      O57226   8.025   7.562   6.945
18995WAT     H157227   8.124   7.580   6.951
18995WAT     H257228   7.992   7.588   6.855
18996WAT      O57229   5.872   0.847   3.835
18996WAT     H157230   5.792   0.902   3.811
18996WAT     H257231   5.919   0.818   3.752
18997WAT      O57232   1.162   3.391   7.080
18997WAT     H157233   1.125   3.411   7.170
18997WAT     H257234   1.260   3.373   7.087
18998WAT      O57235   5.963   9.477   3.742
18998WAT     H157236   5.963   9.377   3.737
18998WAT     H257237   6.002   9.515   3.658
18999WAT      O57238   5.682   0.781   9.413
18999WAT     H157239   5.747   0.720   9.458
18999WAT     H257240   5.639   0.733   9.337
19000WAT      O57241   5.430   9.357   4.795
19000WAT     H157242   5.522   9.382   4.764
19000WAT     H257243   5.414   9.397   4.885
19001WAT      O57244   1.145   5.320   1.365
19001WAT     H157245   1.225   5.378   1.377
19001WAT     H257246   1.174   5.225   1.353
19002WAT      O57247   5.673   5.123   6.723
19002WAT     H157248   5.768   5.118   6.755
19002WAT     H257249   5.658   5.054   6.652
19003WAT      O57250   4.060   5.181   9.389
19003WAT     H157251   4.135   5.125   9.425
19003WAT     H257252   4.042   5.153   9.295
19004WAT      O57253   8.438   7.010   6.850
19004WAT     H157254   8.478   7.074   6.785
19004WAT     H257255   8.466   6.917   6.827
19005WAT      O57256   1.203   3.050   0.906
19005WAT     H157257   1.162   3.109   0.976
19005WAT     H257258   1.295   3.024   0.936
19006WAT      O57259   5.747   3.451   0.514
19006WAT     H157260   5.844   3.427   0.514
19006WAT     H257261   5.734   3.538   0.467
19007WAT      O57262   4.534   6.330   5.820
19007WAT     H157263   4.455   6.391   5.809
19007WAT     H257264   4.536   6.265   5.744
19008WAT      O57265   6.800   9.534   4.500
19008WAT     H157266   6.889   9.512   4.540
19008WAT     H257267   6.749   9.450   4.484
19009WAT      O57268   2.747   8.694   9.108
19009WAT     H157269   2.813   8.716   9.180
19009WAT     H257270   2.718   8.599   9.116
19010WAT      O57271   7.827   6.995   8.123
19010WAT     H157272   7.877   7.041   8.050
19010WAT     H257273   7.834   7.048   8.207
19011WAT      O57274   2.190   2.920   7.322
19011WAT     H157275   2.272   2.913   7.265
19011WAT     H257276   2.214   2.909   7.418
19012WAT      O57277   2.670   6.470   2.803
19012WAT     H157278   2.719   6.489   2.718
19012WAT     H257279   2.646   6.374   2.807
19013WAT      O57280   9.853   3.148   8.195
19013WAT     H157281   9.790   3.196   8.255
19013WAT     H257282   9.829   3.050   8.193
19014WAT      O57283   0.549   3.211   3.964
19014WAT     H157284   0.568   3.151   3.886
19014WAT     H257285   0.490   3.286   3.935
19015WAT      O57286   8.211   6.609   9.525
19015WAT     H157287   8.150   6.578   9.451
19015WAT     H257288   8.189   6.704   9.548
19016WAT      O57289   8.440   7.630   6.001
19016WAT     H157290   8.438   7.557   5.932
19016WAT     H257291   8.370   7.698   5.978
19017WAT      O57292   5.579   6.742   8.778
19017WAT     H157293   5.664   6.691   8.761
19017WAT     H257294   5.601   6.833   8.812
19018WAT      O57295   7.320   1.392   2.668
19018WAT     H157296   7.321   1.489   2.695
19018WAT     H257297   7.414   1.358   2.666
19019WAT      O57298   9.274   4.699   9.863
19019WAT     H157299   9.273   4.606   9.826
19019WAT     H257300   9.318   4.760   9.796
19020WAT      O57301   3.695   9.119   1.518
19020WAT     H157302   3.772   9.126   1.582
19020WAT     H257303   3.728   9.083   1.431
19021WAT      O57304   7.046   0.107   8.019
19021WAT     H157305   7.040   0.028   8.080
19021WAT     H257306   6.989   0.181   8.054
19022WAT      O57307   8.584   1.517   2.586
19022WAT     H157308   8.628   1.516   2.496
19022WAT     H257309   8.497   1.466   2.581
19023WAT      O57310   4.140   0.287   8.431
19023WAT     H157311   4.229   0.248   8.407
19023WAT     H257312   4.080   0.213   8.462
19024WAT      O57313   8.798   9.366   2.326
19024WAT     H157314   8.781   9.333   2.233
19024WAT     H257315   8.860   9.302   2.373
19025WAT      O57316   4.291   2.544   7.582
19025WAT     H157317   4.220   2.518   7.647
19025WAT     H257318   4.328   2.633   7.607
19026WAT      O57319   9.861   3.659   9.447
19026WAT     H157320   9.763   3.640   9.440
19026WAT     H257321   9.880   3.748   9.406
19027WAT      O57322   3.226   1.825   7.293
19027WAT     H157323   3.316   1.868   7.288
19027WAT     H257324   3.236   1.726   7.295
19028WAT      O57325   3.576   5.956   1.915
19028WAT     H157326   3.668   5.991   1.897
19028WAT     H257327   3.547   5.986   2.006
19029WAT      O57328   9.466   7.723   0.458
19029WAT     H157329   9.467   7.792   0.531
19029WAT     H257330   9.420   7.761   0.377
19030WAT      O57331   8.057   6.606   5.309
19030WAT     H157332   8.113   6.670   5.256
19030WAT     H257333   8.061   6.630   5.406
19031WAT      O57334   0.782   1.023   9.398
19031WAT     H157335   0.830   1.103   9.435
19031WAT     H257336   0.792   0.946   9.461
19032WAT      O57337   7.651   3.858   0.200
19032WAT     H157338   7.580   3.789   0.186
19032WAT     H257339   7.662   3.911   0.116
19033WAT      O57340   1.349   9.515   8.169
19033WAT     H157341   1.426   9.565   8.207
19033WAT     H257342   1.380   9.426   8.135
19034WAT      O57343   8.702   8.127   9.746
19034WAT     H157344   8.682   8.045   9.800
19034WAT     H257345   8.800   8.147   9.750
19035WAT      O57346   9.274   9.123   6.073
19035WAT     H157347   9.201   9.082   6.127
19035WAT     H257348   9.333   9.050   6.038
19036WAT      O57349   0.739   2.223   3.826
19036WAT     H157350   0.794   2.200   3.746
19036WAT     H257351   0.659   2.163   3.831
19037WAT      O57352   9.197   3.165   7.146
19037WAT     H157353   9.280   3.143   7.095
19037WAT     H257354   9.152   3.080   7.175
19038WAT      O57355   6.268   2.823   2.615
19038WAT     H157356   6.201   2.837   2.688
19038WAT     H257357   6.222   2.792   2.532
19039WAT      O57358   0.043   7.738   1.280
19039WAT     H157359  -0.028   7.677   1.314
19039WAT     H257360   0.121   7.737   1.343
19040WAT      O57361   1.097   8.987   0.520
19040WAT     H157362   1.126   9.077   0.554
19040WAT     H257363   1.066   8.931   0.596
19041WAT      O57364   6.035   9.128   0.961
19041WAT     H157365   5.962   9.111   1.027
19041WAT     H257366   6.022   9.218   0.919
19042WAT      O57367   0.197   3.068   5.188
19042WAT     H157368   0.205   2.990   5.125
19042WAT     H257369   0.188   3.034   5.282
19043WAT      O57370   3.104   9.249   7.205
19043WAT     H157371   3.043   9.328   7.210
19043WAT     H257372   3.195   9.279   7.175
19044WAT      O57373   4.351   5.536   1.157
19044WAT     H157374   4.294   5.586   1.092
19044WAT     H257375   4.420   5.483   1.107
19045WAT      O57376   1.880   6.715   7.862
19045WAT     H157377   1.943   6.789   7.838
19045WAT     H257378   1.920   6.659   7.935
19046WAT      O57379   6.291   5.904   2.027
19046WAT     H157380   6.350   5.831   1.992
19046WAT     H257381   6.205   5.905   1.975
19047WAT      O57382   1.224   7.684   6.152
19047WAT     H157383   1.299   7.618   6.144
19047WAT     H257384   1.248   7.768   6.103
19048WAT      O57385   2.264   3.400   7.320
19048WAT     H157386   2.221   3.347   7.393
19048WAT     H257387   2.332   3.462   7.360
19049WAT      O57388   2.247   8.545   8.214
19049WAT     H157389   2.282   8.542   8.308
19049WAT     H257390   2.172   8.610   8.209
19050WAT      O57391   9.669   7.980   1.114
19050WAT     H157392   9.610   8.034   1.053
19050WAT     H257393   9.645   7.884   1.106
19051WAT      O57394   1.501   8.318   3.440
19051WAT     H157395   1.593   8.279   3.434
19051WAT     H257396   1.498   8.404   3.388
19052WAT      O57397   7.692   5.934   8.532
19052WAT     H157398   7.783   5.942   8.492
19052WAT     H257399   7.630   5.894   8.465
19053WAT      O57400   5.803   9.766   7.394
19053WAT     H157401   5.792   9.711   7.477
19053WAT     H257402   5.879   9.730   7.340
19054WAT      O57403   2.962   9.381   2.559
19054WAT     H157404   2.901   9.334   2.497
19054WAT     H257405   2.937   9.360   2.654
19055WAT      O57406   0.664   8.230   7.489
19055WAT     H157407   0.696   8.176   7.566
19055WAT     H257408   0.565   8.217   7.478
19056WAT      O57409   2.776   1.933   8.288
19056WAT     H157410   2.793   1.835   8.276
19056WAT     H257411   2.837   1.984   8.228
19057WAT      O57412   0.030   2.587   4.633
19057WAT     H157413   0.010   2.534   4.715
19057WAT     H257414  -0.021   2.673   4.636
19058WAT      O57415   2.565   6.883   1.724
19058WAT     H157416   2.653   6.850   1.690
19058WAT     H257417   2.570   6.982   1.736
19059WAT      O57418   5.001   6.066   9.128
19059WAT     H157419   4.956   6.149   9.162
19059WAT     H257420   5.100   6.080   9.125
19060WAT      O57421   3.969   3.727   9.781
19060WAT     H157422   4.024   3.697   9.703
19060WAT     H257423   3.927   3.647   9.825
19061WAT      O57424   4.047   6.277   3.621
19061WAT     H157425   3.952   6.310   3.623
19061WAT     H257426   4.076   6.268   3.526
19062WAT      O57427   8.085   1.061   6.307
19062WAT     H157428   8.179   1.089   6.324
19062WAT     H257429   8.065   1.067   6.209
19063WAT      O57430   7.047   5.367   6.509
19063WAT     H157431   7.005   5.414   6.587
19063WAT     H257432   7.058   5.270   6.531
19064WAT      O57433   1.725   2.218   4.459
19064WAT     H157434   1.720   2.308   4.503
19064WAT     H257435   1.757   2.229   4.365
19065WAT      O57436   1.559   1.576   0.598
19065WAT     H157437   1.619   1.655   0.585
19065WAT     H257438   1.590   1.501   0.540
19066WAT      O57439   7.076   0.653   0.555
19066WAT     H157440   7.053   0.709   0.474
19066WAT     H257441   7.147   0.588   0.531
19067WAT      O57442   0.724   0.983   8.028
19067WAT     H157443   0.699   0.966   8.124
19067WAT     H257444   0.710   1.079   8.007
19068WAT      O57445   9.380   7.258   3.082
19068WAT     H157446   9.347   7.165   3.098
19068WAT     H257447   9.301   7.319   3.070
19069WAT      O57448   7.207   3.760   9.297
19069WAT     H157449   7.302   3.775   9.271
19069WAT     H257450   7.155   3.845   9.283
19070WAT      O57451   0.808   0.789   9.617
19070WAT     H157452   0.730   0.815   9.674
19070WAT     H257453   0.889   0.776   9.674
19071WAT      O57454   7.489   7.175   0.192
19071WAT     H157455   7.438   7.255   0.162
19071WAT     H257456   7.427   7.111   0.237
19072WAT      O57457   3.739   2.016   5.957
19072WAT     H157458   3.731   1.947   6.029
19072WAT     H257459   3.676   1.994   5.882
19073WAT      O57460   5.291   8.525   5.859
19073WAT     H157461   5.233   8.516   5.778
19073WAT     H257462   5.318   8.620   5.870
19074WAT      O57463   1.573   7.387   5.519
19074WAT     H157464   1.585   7.291   5.494
19074WAT     H257465   1.647   7.441   5.480
19075WAT      O57466   5.815   7.219   6.072
19075WAT     H157467   5.758   7.216   5.990
19075WAT     H257468   5.794   7.302   6.124
19076WAT      O57469   9.799   6.671   9.382
19076WAT     H157470   9.889   6.685   9.342
19076WAT     H257471   9.799   6.702   9.477
19077WAT      O57472   4.094   9.766   9.729
19077WAT     H157473   4.063   9.843   9.784
19077WAT     H257474   4.014   9.715   9.695
19078WAT      O57475   8.784   6.392   3.812
19078WAT     H157476   8.758   6.461   3.744
19078WAT     H257477   8.880   6.407   3.838
19079WAT      O57478   2.612   8.016   8.385
19079WAT     H157479   2.528   8.063   8.415
19079WAT     H257480   2.589   7.924   8.354
19080WAT      O57481   1.660   1.684   3.117
19080WAT     H157482   1.724   1.679   3.040
19080WAT     H257483   1.582   1.741   3.091
19081WAT      O57484   8.402   9.290   3.631
19081WAT     H157485   8.319   9.236   3.635
19081WAT     H257486   8.471   9.250   3.692
19082WAT      O57487   0.232   8.702   1.564
19082WAT     H157488   0.175   8.769   1.612
19082WAT     H257489   0.327   8.735   1.563
19083WAT      O57490   3.951   1.843   5.839
19083WAT     H157491   4.011   1.913   5.800
19083WAT     H257492   3.873   1.886   5.883
19084WAT      O57493   0.819   7.563   4.920
19084WAT     H157494   0.845   7.659   4.933
19084WAT     H257495   0.795   7.522   5.008
19085WAT      O57496   2.567   7.536   8.818
19085WAT     H157497   2.573   7.512   8.915
19085WAT     H257498   2.490   7.597   8.804
19086WAT      O57499   4.215   8.917   0.843
19086WAT     H157500   4.239   8.991   0.779
19086WAT     H257501   4.116   8.918   0.858
19087WAT      O57502   5.760   7.454   9.506
19087WAT     H157503   5.805   7.395   9.573
19087WAT     H257504   5.712   7.528   9.554
19088WAT      O57505   0.069   9.350   6.128
19088WAT     H157506   0.131   9.276   6.101
19088WAT     H257507   0.090   9.378   6.222
19089WAT      O57508   6.336   4.604   5.684
19089WAT     H157509   6.277   4.566   5.755
19089WAT     H257510   6.290   4.598   5.595
19090WAT      O57511   5.629   0.769   7.683
19090WAT     H157512   5.542   0.815   7.702
19090WAT     H257513   5.633   0.747   7.585
19091WAT      O57514   1.992   0.849   3.971
19091WAT     H157515   1.973   0.947   3.974
19091WAT     H257516   2.021   0.823   3.879
19092WAT      O57517   9.478   1.596   6.724
19092WAT     H157518   9.464   1.601   6.823
19092WAT     H257519   9.544   1.666   6.697
19093WAT      O57520   7.737   9.643   2.563
19093WAT     H157521   7.761   9.738   2.541
19093WAT     H257522   7.791   9.613   2.642
19094WAT      O57523   6.292   7.866   8.886
19094WAT     H157524   6.369   7.919   8.922
19094WAT     H257525   6.206   7.913   8.909
19095WAT      O57526   7.443   3.471   2.341
19095WAT     H157527   7.539   3.453   2.320
19095WAT     H257528   7.424   3.448   2.436
19096WAT      O57529   0.221   9.169   1.830
19096WAT     H157530   0.306   9.221   1.836
19096WAT     H257531   0.241   9.077   1.797
19097WAT      O57532   1.649   4.658   8.447
19097WAT     H157533   1.622   4.661   8.543
19097WAT     H257534   1.629   4.568   8.409
19098WAT      O57535   0.495   3.695   8.553
19098WAT     H157536   0.535   3.725   8.639
19098WAT     H257537   0.397   3.682   8.564
19099WAT      O57538   6.790   5.415   8.146
19099WAT     H157539   6.706   5.457   8.113
19099WAT     H257540   6.770   5.328   8.190
19100WAT      O57541   9.232   5.170   2.753
19100WAT     H157542   9.173   5.142   2.677
19100WAT     H257543   9.221   5.105   2.829
19101WAT      O57544   7.218   0.792   5.343
19101WAT     H157545   7.273   0.710   5.359
19101WAT     H257546   7.274   0.873   5.359
19102WAT      O57547   7.301   7.441   0.234
19102WAT     H157548   7.385   7.470   0.281
19102WAT     H257549   7.281   7.504   0.159
19103WAT      O57550   4.981   2.992   7.552
19103WAT     H157551   4.893   2.952   7.525
19103WAT     H257552   5.016   2.943   7.633
19104WAT      O57553   1.090   8.404   7.340
19104WAT     H157554   1.034   8.483   7.366
19104WAT     H257555   1.183   8.435   7.319
19105WAT      O57556   6.523   6.709   7.849
19105WAT     H157557   6.531   6.678   7.755
19105WAT     H257558   6.575   6.794   7.861
19106WAT      O57559   2.723   1.277   5.556
19106WAT     H157560   2.660   1.229   5.616
19106WAT     H257561   2.697   1.261   5.460
19107WAT      O57562   8.858   2.387   8.971
19107WAT     H157563   8.924   2.314   8.954
19107WAT     H257564   8.810   2.369   9.057
19108WAT      O57565   7.245   4.945   0.008
19108WAT     H157566   7.214   4.943  -0.088
19108WAT     H257567   7.260   5.039   0.036
19109WAT      O57568   2.580   1.002   8.719
19109WAT     H157569   2.525   1.082   8.744
19109WAT     H257570   2.598   0.947   8.801
19110WAT      O57571   3.123   3.393   2.333
19110WAT     H157572   3.190   3.319   2.337
19110WAT     H257573   3.166   3.479   2.358
19111WAT      O57574   5.299   8.547   9.615
19111WAT     H157575   5.278   8.491   9.535
19111WAT     H257576   5.256   8.506   9.696
19112WAT      O57577   8.581   5.666   2.612
19112WAT     H157578   8.634   5.641   2.530
19112WAT     H257579   8.521   5.590   2.637
19113WAT      O57580   1.805   6.926   3.753
19113WAT     H157581   1.773   7.003   3.809
19113WAT     H257582   1.905   6.921   3.756
19114WAT      O57583   9.307   2.293   6.983
19114WAT     H157584   9.346   2.337   6.901
19114WAT     H257585   9.343   2.337   7.065
19115WAT      O57586   1.537   7.241   3.144
19115WAT     H157587   1.583   7.279   3.064
19115WAT     H257588   1.515   7.145   3.128
19116WAT      O57589   2.492   2.217   1.351
19116WAT     H157590   2.549   2.291   1.388
19116WAT     H257591   2.403   2.254   1.327
19117WAT      O57592   7.728   1.523   1.899
19117WAT     H157593   7.654   1.545   1.836
19117WAT     H257594   7.711   1.565   1.988
19118WAT      O57595   7.008   2.254   9.884
19118WAT     H157596   7.037   2.264   9.788
19118WAT     H257597   6.970   2.341   9.917
19119WAT      O57598   5.997   7.640   5.461
19119WAT     H157599   6.029   7.734   5.469
19119WAT     H257600   6.029   7.587   5.540
19120WAT      O57601   5.488   7.152   1.358
19120WAT     H157602   5.461   7.060   1.388
19120WAT     H257603   5.525   7.146   1.265
19121WAT      O57604   8.472   5.246   1.096
19121WAT     H157605   8.543   5.189   1.055
19121WAT     H257606   8.389   5.191   1.109
19122WAT      O57607   5.653   4.591   8.744
19122WAT     H157608   5.655   4.491   8.741
19122WAT     H257609   5.655   4.621   8.839
19123WAT      O57610   8.259   7.931   7.473
19123WAT     H157611   8.172   7.904   7.514
19123WAT     H257612   8.291   7.858   7.412
19124WAT      O57613   7.748   0.091   1.096
19124WAT     H157614   7.836   0.095   1.142
19124WAT     H257615   7.732  -0.002   1.063
19125WAT      O57616   5.128   7.572   4.426
19125WAT     H157617   5.225   7.547   4.426
19125WAT     H257618   5.116   7.654   4.371
19126WAT      O57619   1.348   1.155   9.872
19126WAT     H157620   1.406   1.155   9.791
19126WAT     H257621   1.385   1.219   9.940
19127WAT      O57622   7.614   9.668   5.328
19127WAT     H157623   7.656   9.732   5.264
19127WAT     H257624   7.616   9.707   5.420
19128WAT      O57625   0.292   3.317   7.659
19128WAT     H157626   0.291   3.344   7.563
19128WAT     H257627   0.213   3.258   7.678
19129WAT      O57628   0.079   0.390   1.275
19129WAT     H157629   0.115   0.364   1.365
19129WAT     H257630   0.001   0.452   1.287
19130WAT      O57631   2.057   1.076   9.725
19130WAT     H157632   1.979   1.103   9.782
19130WAT     H257633   2.023   1.042   9.637
19131WAT      O57634   8.232   2.353   5.591
19131WAT     H157635   8.234   2.255   5.611
19131WAT     H257636   8.137   2.385   5.589
19132WAT      O57637   0.528   1.493   5.646
19132WAT     H157638   0.477   1.452   5.722
19132WAT     H257639   0.623   1.507   5.674
19133WAT      O57640   0.583   3.432   1.577
19133WAT     H157641   0.611   3.510   1.520
19133WAT     H257642   0.492   3.402   1.549
19134WAT      O57643   1.125   7.220   9.323
19134WAT     H157644   1.154   7.171   9.405
19134WAT     H257645   1.202   7.271   9.285
19135WAT      O57646   9.366   6.457   8.136
19135WAT     H157647   9.285   6.514   8.122
19135WAT     H257648   9.443   6.495   8.085
19136WAT      O57649   1.475   3.587   1.589
19136WAT     H157650   1.529   3.581   1.674
19136WAT     H257651   1.403   3.655   1.601
19137WAT      O57652   1.565   8.101   1.438
19137WAT     H157653   1.513   8.104   1.353
19137WAT     H257654   1.506   8.128   1.515
19138WAT      O57655   0.244   4.858   0.741
19138WAT     H157656   0.184   4.781   0.716
19138WAT     H257657   0.204   4.943   0.707
19139WAT      O57658   0.815   0.683   5.334
19139WAT     H157659   0.859   0.773   5.325
19139WAT     H257660   0.743   0.675   5.265
19140WAT      O57661   8.697   5.848   1.892
19140WAT     H157662   8.644   5.843   1.807
19140WAT     H257663   8.667   5.926   1.946
19141WAT      O57664   2.903   0.825   6.488
19141WAT     H157665   2.996   0.857   6.504
19141WAT     H257666   2.902   0.725   6.486
19142WAT      O57667   5.734   1.876   7.096
19142WAT     H157668   5.696   1.855   7.186
19142WAT     H257669   5.727   1.974   7.080
19143WAT      O57670   3.671   3.746   1.104
19143WAT     H157671   3.686   3.838   1.067
19143WAT     H257672   3.665   3.680   1.030
19144WAT      O57673   3.716   0.634   7.621
19144WAT     H157674   3.726   0.535   7.636
19144WAT     H257675   3.620   0.658   7.626
19145WAT      O57676   8.586   1.052   1.299
19145WAT     H157677   8.563   1.147   1.320
19145WAT     H257678   8.531   1.021   1.221
19146WAT      O57679   2.372   9.021   4.800
19146WAT     H157680   2.379   8.960   4.721
19146WAT     H257681   2.278   9.052   4.811
19147WAT      O57682   2.372   3.922   3.506
19147WAT     H157683   2.318   3.980   3.445
19147WAT     H257684   2.348   3.826   3.491
19148WAT      O57685   9.392   5.670   6.154
19148WAT     H157686   9.431   5.585   6.118
19148WAT     H257687   9.371   5.657   6.251
19149WAT      O57688   1.334   8.166   3.067
19149WAT     H157689   1.337   8.206   2.975
19149WAT     H257690   1.284   8.227   3.129
19150WAT      O57691   5.360   8.805   6.137
19150WAT     H157692   5.379   8.707   6.148
19150WAT     H257693   5.264   8.823   6.157
19151WAT      O57694   5.710   8.363   2.983
19151WAT     H157695   5.701   8.294   3.055
19151WAT     H257696   5.789   8.342   2.925
19152WAT      O57697   3.298   7.078   7.839
19152WAT     H157698   3.268   7.088   7.934
19152WAT     H257699   3.238   7.013   7.792
19153WAT      O57700   2.936   6.396   5.925
19153WAT     H157701   2.863   6.355   5.980
19153WAT     H257702   2.918   6.378   5.828
19154WAT      O57703   6.742   9.258   3.584
19154WAT     H157704   6.815   9.191   3.596
19154WAT     H257705   6.781   9.348   3.567
19155WAT      O57706   0.141   5.742   6.804
19155WAT     H157707   0.127   5.643   6.807
19155WAT     H257708   0.218   5.763   6.744
19156WAT      O57709   2.645   4.631   6.020
19156WAT     H157710   2.738   4.664   6.003
19156WAT     H257711   2.580   4.701   5.990
19157WAT      O57712   3.216   6.977   0.942
19157WAT     H157713   3.188   7.063   0.900
19157WAT     H257714   3.153   6.955   1.017
19158WAT      O57715   5.951   2.090   3.054
19158WAT     H157716   5.986   2.021   2.990
19158WAT     H257717   5.930   2.174   3.003
19159WAT      O57718   2.647   2.950   8.195
19159WAT     H157719   2.681   3.044   8.201
19159WAT     H257720   2.657   2.916   8.102
19160WAT      O57721   1.518   4.263   6.312
19160WAT     H157722   1.447   4.301   6.372
19160WAT     H257723   1.603   4.254   6.362
19161WAT      O57724   4.940   9.175   2.785
19161WAT     H157725   4.921   9.171   2.686
19161WAT     H257726   4.854   9.165   2.835
19162WAT      O57727   1.482   4.476   1.260
19162WAT     H157728   1.521   4.482   1.168
19162WAT     H257729   1.383   4.461   1.253
19163WAT      O57730   0.097   0.861   5.892
19163WAT     H157731   0.107   0.784   5.955
19163WAT     H257732   0.182   0.872   5.840
19164WAT      O57733   3.993   2.505   7.644
19164WAT     H157734   3.978   2.414   7.682
19164WAT     H257735   3.941   2.572   7.697
19165WAT      O57736   2.740   0.104   8.363
19165WAT     H157737   2.698   0.013   8.366
19165WAT     H257738   2.833   0.099   8.397
19166WAT      O57739   5.837   2.290   1.738
19166WAT     H157740   5.818   2.373   1.790
19166WAT     H257741   5.755   2.233   1.736
19167WAT      O57742   0.570   9.315   1.294
19167WAT     H157743   0.660   9.272   1.299
19167WAT     H257744   0.524   9.287   1.210
19168WAT      O57745   2.890   9.732   0.384
19168WAT     H157746   2.888   9.665   0.309
19168WAT     H257747   2.909   9.685   0.470
19169WAT      O57748   6.842   8.198   4.130
19169WAT     H157749   6.808   8.276   4.079
19169WAT     H257750   6.913   8.151   4.077
19170WAT      O57751   8.062   3.864   5.644
19170WAT     H157752   7.980   3.815   5.673
19170WAT     H257753   8.081   3.939   5.707
19171WAT      O57754   5.214   9.139   7.272
19171WAT     H157755   5.254   9.231   7.267
19171WAT     H257756   5.230   9.101   7.363
19172WAT      O57757   1.503   8.838   4.502
19172WAT     H157758   1.498   8.916   4.563
19172WAT     H257759   1.490   8.868   4.407
19173WAT      O57760   2.582   0.100   3.958
19173WAT     H157761   2.575   0.179   4.019
19173WAT     H257762   2.614   0.021   4.009
19174WAT      O57763   2.300   6.433   3.283
19174WAT     H157764   2.355   6.413   3.202
19174WAT     H257765   2.352   6.493   3.344
19175WAT      O57766   8.936   6.417   9.429
19175WAT     H157767   8.975   6.352   9.364
19175WAT     H257768   8.863   6.469   9.384
19176WAT      O57769   2.956   9.021   0.809
19176WAT     H157770   2.856   9.025   0.811
19176WAT     H257771   2.991   9.103   0.762
19177WAT      O57772   1.988   7.720   1.134
19177WAT     H157773   2.041   7.637   1.150
19177WAT     H257774   2.024   7.794   1.192
19178WAT      O57775   6.888   8.182   6.649
19178WAT     H157776   6.799   8.158   6.611
19178WAT     H257777   6.876   8.246   6.724
19179WAT      O57778   4.576   6.094   5.630
19179WAT     H157779   4.506   6.022   5.631
19179WAT     H257780   4.578   6.138   5.541
19180WAT      O57781   4.148   1.663   3.567
19180WAT     H157782   4.194   1.663   3.656
19180WAT     H257783   4.066   1.605   3.573
19181WAT      O57784   3.699   1.432   3.077
19181WAT     H157785   3.709   1.333   3.064
19181WAT     H257786   3.786   1.477   3.056
19182WAT      O57787   9.297   6.163   2.236
19182WAT     H157788   9.386   6.160   2.280
19182WAT     H257789   9.237   6.093   2.276
19183WAT      O57790   9.887   4.223   3.448
19183WAT     H157791   9.926   4.300   3.497
19183WAT     H257792   9.810   4.185   3.500
19184WAT      O57793   0.170   8.872   7.072
19184WAT     H157794   0.075   8.865   7.043
19184WAT     H257795   0.216   8.785   7.056
19185WAT      O57796   2.003   3.529   5.770
19185WAT     H157797   1.936   3.604   5.768
19185WAT     H257798   2.080   3.552   5.711
19186WAT      O57799   9.059   0.672   3.500
19186WAT     H157800   8.966   0.708   3.507
19186WAT     H257801   9.064   0.582   3.543
19187WAT      O57802   0.969   6.276   4.031
19187WAT     H157803   1.058   6.320   4.043
19187WAT     H257804   0.921   6.272   4.119
19188WAT      O57805   6.527   3.336   8.840
19188WAT     H157806   6.618   3.362   8.873
19188WAT     H257807   6.468   3.318   8.919
19189WAT      O57808   3.889   8.833   3.316
19189WAT     H157809   3.796   8.822   3.279
19189WAT     H257810   3.905   8.929   3.338
19190WAT      O57811   4.469   8.219   4.138
19190WAT     H157812   4.478   8.172   4.226
19190WAT     H257813   4.482   8.317   4.150
19191WAT      O57814   5.265   2.060   3.948
19191WAT     H157815   5.303   2.010   3.871
19191WAT     H257816   5.190   2.119   3.917
19192WAT      O57817   8.192   5.331   1.035
19192WAT     H157818   8.270   5.381   0.997
19192WAT     H257819   8.214   5.233   1.038
19193WAT      O57820   3.864   9.162   9.284
19193WAT     H157821   3.856   9.134   9.188
19193WAT     H257822   3.799   9.111   9.340
19194WAT      O57823   3.152   5.048   3.460
19194WAT     H157824   3.148   5.018   3.555
19194WAT     H257825   3.196   5.138   3.456
19195WAT      O57826   2.932   7.165   7.974
19195WAT     H157827   2.846   7.216   7.975
19195WAT     H257828   2.949   7.129   7.882
19196WAT      O57829   5.572   0.093   2.661
19196WAT     H157830   5.506   0.162   2.692
19196WAT     H257831   5.533   0.002   2.675
19197WAT      O57832   3.664   6.084   3.618
19197WAT     H157833   3.728   6.156   3.644
19197WAT     H257834   3.660   6.078   3.518
19198WAT      O57835   9.410   5.736   7.553
19198WAT     H157836   9.444   5.764   7.643
19198WAT     H257837   9.466   5.777   7.481
19199WAT      O57838   0.199   2.694   3.884
19199WAT     H157839   0.116   2.675   3.831
19199WAT     H257840   0.277   2.647   3.843
19200WAT      O57841   5.331   4.084   8.791
19200WAT     H157842   5.425   4.107   8.816
19200WAT     H257843   5.317   3.985   8.800
19201WAT      O57844   9.312   9.781   1.653
19201WAT     H157845   9.316   9.720   1.573
19201WAT     H257846   9.370   9.860   1.636
19202WAT      O57847   6.051   8.670   6.667
19202WAT     H157848   5.988   8.714   6.603
19202WAT     H257849   6.145   8.685   6.635
19203WAT      O57850   0.902   0.594   1.747
19203WAT     H157851   0.988   0.547   1.768
19203WAT     H257852   0.825   0.532   1.764
19204WAT      O57853   6.691   7.090   1.483
19204WAT     H157854   6.701   7.189   1.471
19204WAT     H257855   6.599   7.062   1.455
19205WAT      O57856   8.848   5.414   3.425
19205WAT     H157857   8.819   5.324   3.457
19205WAT     H257858   8.933   5.405   3.372
19206WAT      O57859   8.395   2.451   1.093
19206WAT     H157860   8.494   2.460   1.097
19206WAT     H257861   8.368   2.356   1.109
19207WAT      O57862   7.816   1.672   9.538
19207WAT     H157863   7.766   1.592   9.572
19207WAT     H257864   7.843   1.657   9.443
19208WAT      O57865   5.312   1.984   4.390
19208WAT     H157866   5.354   1.915   4.331
19208WAT     H257867   5.309   2.072   4.341
19209WAT      O57868   7.436   7.969   1.703
19209WAT     H157869   7.401   8.010   1.619
19209WAT     H257870   7.469   8.041   1.764
19210WAT      O57871   5.482   2.665   9.690
19210WAT     H157872   5.572   2.625   9.672
19210WAT     H257873   5.459   2.730   9.618
19211WAT      O57874   2.386   0.142   1.309
19211WAT     H157875   2.364   0.151   1.212
19211WAT     H257876   2.435   0.056   1.323
19212WAT      O57877   6.649   0.999   3.949
19212WAT     H157878   6.697   1.086   3.964
19212WAT     H257879   6.550   1.015   3.949
19213WAT      O57880   3.950   8.083   7.728
19213WAT     H157881   3.871   8.024   7.743
19213WAT     H257882   3.920   8.171   7.689
19214WAT      O57883   0.910   8.518   7.859
19214WAT     H157884   0.997   8.519   7.910
19214WAT     H257885   0.852   8.445   7.895
19215WAT      O57886   7.813   4.809   9.479
19215WAT     H157887   7.726   4.760   9.492
19215WAT     H257888   7.802   4.903   9.510
19216WAT      O57889   9.282   0.056   1.264
19216WAT     H157890   9.207   0.068   1.328
19216WAT     H257891   9.326   0.144   1.247
19217WAT      O57892   6.831   4.329   1.764
19217WAT     H157893   6.926   4.346   1.789
19217WAT     H257894   6.827   4.291   1.671
19218WAT      O57895   0.444   4.320   1.615
19218WAT     H157896   0.472   4.229   1.585
19218WAT     H257897   0.508   4.354   1.683
19219WAT      O57898   5.901   8.401   9.179
19219WAT     H157899   5.859   8.490   9.161
19219WAT     H257900   5.830   8.333   9.199
19220WAT      O57901   2.441   2.000   8.509
19220WAT     H157902   2.447   2.089   8.555
19220WAT     H257903   2.479   1.929   8.569
19221WAT      O57904   0.372   4.282   2.062
19221WAT     H157905   0.272   4.277   2.058
19221WAT     H257906   0.411   4.193   2.036
19222WAT      O57907   8.636   1.940   1.970
19222WAT     H157908   8.627   1.840   1.975
19222WAT     H257909   8.629   1.969   1.874
19223WAT      O57910   2.588   3.596   8.312
19223WAT     H157911   2.659   3.636   8.371
19223WAT     H257912   2.567   3.660   8.238
19224WAT      O57913   8.406   6.842   1.020
19224WAT     H157914   8.497   6.875   1.044
19224WAT     H257915   8.390   6.855   0.922
19225WAT      O57916   9.820   0.224   1.669
19225WAT     H157917   9.806   0.155   1.597
19225WAT     H257918   9.749   0.294   1.662
19226WAT      O57919   2.521   9.292   3.196
19226WAT     H157920   2.487   9.297   3.290
19226WAT     H257921   2.519   9.383   3.155
19227WAT      O57922   4.557   0.454   3.309
19227WAT     H157923   4.618   0.399   3.367
19227WAT     H257924   4.582   0.440   3.213
19228WAT      O57925   7.789   2.124   0.804
19228WAT     H157926   7.870   2.118   0.747
19228WAT     H257927   7.792   2.209   0.858
19229WAT      O57928   9.412   8.092   0.089
19229WAT     H157929   9.451   8.150   0.019
19229WAT     H257930   9.340   8.035   0.049
19230WAT      O57931   6.122   5.437   1.582
19230WAT     H157932   6.050   5.447   1.650
19230WAT     H257933   6.211   5.430   1.628
19231WAT      O57934   5.500   6.190   8.238
19231WAT     H157935   5.485   6.244   8.321
19231WAT     H257936   5.596   6.196   8.211
19232WAT      O57937   7.058   7.491   2.541
19232WAT     H157938   7.154   7.517   2.533
19232WAT     H257939   7.005   7.533   2.468
19233WAT      O57940   4.688   5.211   7.916
19233WAT     H157941   4.624   5.175   7.848
19233WAT     H257942   4.720   5.301   7.886
19234WAT      O57943   5.359   4.332   8.671
19234WAT     H157944   5.383   4.376   8.757
19234WAT     H257945   5.340   4.235   8.687
19235WAT      O57946   3.424   5.224   5.530
19235WAT     H157947   3.483   5.143   5.525
19235WAT     H257948   3.430   5.264   5.622
19236WAT      O57949   6.417   8.402   5.602
19236WAT     H157950   6.337   8.375   5.655
19236WAT     H257951   6.398   8.391   5.505
19237WAT      O57952   2.588   6.585   7.637
19237WAT     H157953   2.586   6.659   7.570
19237WAT     H257954   2.641   6.509   7.600
19238WAT      O57955   7.666   6.439   9.281
19238WAT     H157956   7.747   6.450   9.224
19238WAT     H257957   7.590   6.491   9.241
19239WAT      O57958   8.308   0.603   7.816
19239WAT     H157959   8.368   0.679   7.844
19239WAT     H257960   8.283   0.549   7.897
19240WAT      O57961   8.945   0.440   0.565
19240WAT     H157962   9.037   0.458   0.601
19240WAT     H257963   8.939   0.345   0.536
19241WAT      O57964   4.571   2.234   5.850
19241WAT     H157965   4.516   2.165   5.803
19241WAT     H257966   4.511   2.301   5.892
19242WAT      O57967   6.702   4.486   2.073
19242WAT     H157968   6.681   4.476   2.171
19242WAT     H257969   6.769   4.417   2.046
19243WAT      O57970   8.244   5.061   9.180
19243WAT     H157971   8.168   5.126   9.180
19243WAT     H257972   8.254   5.020   9.270
19244WAT      O57973   0.670   4.805   9.810
19244WAT     H157974   0.591   4.744   9.802
19244WAT     H257975   0.695   4.838   9.719
19245WAT      O57976   2.464   2.288   6.945
19245WAT     H157977   2.448   2.331   6.856
19245WAT     H257978   2.490   2.359   7.011
19246WAT      O57979   5.834   3.703   6.087
19246WAT     H157980   5.922   3.750   6.075
19246WAT     H257981   5.785   3.744   6.164
19247WAT      O57982   4.751   9.060   8.003
19247WAT     H157983   4.835   9.096   8.044
19247WAT     H257984   4.700   9.135   7.961
19248WAT      O57985   4.087   1.037   7.659
19248WAT     H157986   4.086   1.007   7.564
19248WAT     H257987   4.014   0.992   7.710
19249WAT      O57988   5.003   6.846   7.296
19249WAT     H157989   5.034   6.937   7.326
19249WAT     H257990   4.920   6.856   7.242
19250WAT      O57991   3.515   7.278   0.900
19250WAT     H157992   3.521   7.178   0.897
19250WAT     H257993   3.604   7.317   0.879
19251WAT      O57994   2.507   8.898   0.377
19251WAT     H157995   2.526   8.813   0.329
19251WAT     H257996   2.442   8.881   0.451
19252WAT      O57997   5.651   0.668   3.226
19252WAT     H157998   5.685   0.574   3.224
19252WAT     H257999   5.621   0.695   3.135
19253WAT      O58000   2.354   1.649   1.714
19253WAT     H158001   2.271   1.645   1.770
19253WAT     H258002   2.395   1.558   1.707
19254WAT      O58003   8.592   9.165   5.677
19254WAT     H158004   8.580   9.088   5.740
19254WAT     H258005   8.535   9.151   5.596
19255WAT      O58006   7.173   5.530   2.167
19255WAT     H158007   7.242   5.587   2.212
19255WAT     H258008   7.119   5.482   2.236
19256WAT      O58009   5.403   7.632   8.829
19256WAT     H158010   5.458   7.576   8.891
19256WAT     H258011   5.412   7.597   8.735
19257WAT      O58012   1.589   8.447   3.858
19257WAT     H158013   1.490   8.448   3.871
19257WAT     H258014   1.634   8.463   3.946
19258WAT      O58015   1.004   7.642   1.769
19258WAT     H158016   1.026   7.661   1.674
19258WAT     H258017   1.062   7.568   1.803
19259WAT      O58018   9.697   4.993   8.514
19259WAT     H158019   9.656   5.078   8.481
19259WAT     H258020   9.632   4.944   8.571
19260WAT      O58021   1.111   2.715   5.795
19260WAT     H158022   1.117   2.730   5.696
19260WAT     H258023   1.154   2.792   5.843
19261WAT      O58024   5.761   9.396   4.975
19261WAT     H158025   5.717   9.310   5.000
19261WAT     H258026   5.855   9.379   4.948
19262WAT      O58027   4.891   9.453   9.304
19262WAT     H158028   4.803   9.468   9.259
19262WAT     H258029   4.909   9.526   9.369
19263WAT      O58030   6.587   8.050   5.694
19263WAT     H158031   6.656   8.044   5.767
19263WAT     H258032   6.561   8.146   5.681
19264WAT      O58033   7.529   5.544   2.493
19264WAT     H158034   7.614   5.584   2.529
19264WAT     H258035   7.551   5.464   2.438
19265WAT      O58036   0.440   3.818   2.714
19265WAT     H158037   0.362   3.838   2.773
19265WAT     H258038   0.510   3.770   2.767
19266WAT      O58039   5.149   2.058   3.438
19266WAT     H158040   5.126   1.978   3.383
19266WAT     H258041   5.165   2.137   3.378
19267WAT      O58042   5.244   8.142   2.567
19267WAT     H158043   5.294   8.146   2.480
19267WAT     H258044   5.177   8.216   2.571
19268WAT      O58045   6.216   8.313   2.941
19268WAT     H158046   6.208   8.308   3.040
19268WAT     H258047   6.284   8.382   2.917
19269WAT      O58048   8.420   2.104   2.419
19269WAT     H158049   8.329   2.095   2.377
19269WAT     H258050   8.474   2.022   2.399
19270WAT      O58051   8.907   3.002   9.273
19270WAT     H158052   8.950   3.081   9.231
19270WAT     H258053   8.944   2.988   9.365
19271WAT      O58054   0.172   2.905   2.066
19271WAT     H158055   0.240   2.920   2.138
19271WAT     H258056   0.129   2.992   2.043
19272WAT      O58057   4.796   3.485   4.615
19272WAT     H158058   4.778   3.387   4.607
19272WAT     H258059   4.892   3.503   4.598
19273WAT      O58060   4.626   9.822   9.672
19273WAT     H158061   4.539   9.779   9.647
19273WAT     H258062   4.660   9.781   9.757
19274WAT      O58063   3.181   8.295   5.738
19274WAT     H158064   3.119   8.224   5.705
19274WAT     H258065   3.233   8.332   5.661
19275WAT      O58066   1.726   2.205   8.823
19275WAT     H158067   1.719   2.291   8.774
19275WAT     H258068   1.662   2.205   8.900
19276WAT      O58069   9.809   6.548   4.663
19276WAT     H158070   9.883   6.481   4.660
19276WAT     H258071   9.845   6.639   4.642
19277WAT      O58072   0.459   8.881   4.561
19277WAT     H158073   0.467   8.878   4.461
19277WAT     H258074   0.386   8.818   4.590
19278WAT      O58075   4.185   4.625   9.670
19278WAT     H158076   4.214   4.532   9.646
19278WAT     H258077   4.251   4.664   9.735
19279WAT      O58078   1.331   7.743   6.472
19279WAT     H158079   1.312   7.664   6.414
19279WAT     H258080   1.415   7.787   6.441
19280WAT      O58081   0.429   8.654   3.530
19280WAT     H158082   0.450   8.605   3.445
19280WAT     H258083   0.344   8.706   3.518
19281WAT      O58084   2.377   6.087   8.033
19281WAT     H158085   2.408   6.028   7.958
19281WAT     H258086   2.411   6.051   8.120
19282WAT      O58087   2.989   7.617   8.436
19282WAT     H158088   3.002   7.639   8.340
19282WAT     H258089   3.064   7.654   8.490
19283WAT      O58090   6.448   6.168   0.233
19283WAT     H158091   6.513   6.102   0.271
19283WAT     H258092   6.498   6.237   0.180
19284WAT      O58093   4.133   7.199   5.218
19284WAT     H158094   4.116   7.289   5.257
19284WAT     H258095   4.048   7.163   5.179
19285WAT      O58096   8.193   9.036   1.536
19285WAT     H158097   8.176   8.995   1.447
19285WAT     H258098   8.274   9.095   1.531
19286WAT      O58099   7.313   2.274   4.812
19286WAT     H158100   7.271   2.193   4.772
19286WAT     H258101   7.388   2.246   4.873
19287WAT      O58102   6.653   1.075   8.443
19287WAT     H158103   6.650   1.174   8.438
19287WAT     H258104   6.586   1.036   8.378
19288WAT      O58105   3.667   1.795   0.905
19288WAT     H158106   3.676   1.891   0.878
19288WAT     H258107   3.572   1.765   0.893
19289WAT      O58108   4.733   7.267   1.751
19289WAT     H158109   4.830   7.247   1.768
19289WAT     H258110   4.725   7.346   1.691
19290WAT      O58111   6.891   4.136   5.771
19290WAT     H158112   6.800   4.105   5.801
19290WAT     H258113   6.924   4.076   5.699
19291WAT      O58114   8.363   4.532   7.974
19291WAT     H158115   8.267   4.558   7.991
19291WAT     H258116   8.394   4.576   7.890
19292WAT      O58117   2.674   7.121   7.576
19292WAT     H158118   2.728   7.043   7.608
19292WAT     H258119   2.577   7.098   7.581
19293WAT      O58120   9.844   6.062   9.210
19293WAT     H158121   9.927   6.092   9.163
19293WAT     H258122   9.864   6.050   9.307
19294WAT      O58123   1.162   7.852   8.597
19294WAT     H158124   1.078   7.906   8.593
19294WAT     H258125   1.139   7.755   8.600
19295WAT      O58126   1.379   1.257   9.068
19295WAT     H158127   1.320   1.300   8.999
19295WAT     H258128   1.374   1.157   9.058
19296WAT      O58129   8.440   2.823   0.572
19296WAT     H158130   8.429   2.751   0.640
19296WAT     H258131   8.369   2.814   0.502
19297WAT      O58132   0.725   1.940   8.752
19297WAT     H158133   0.639   1.924   8.801
19297WAT     H258134   0.801   1.908   8.808
19298WAT      O58135   2.369   8.869   7.095
19298WAT     H158136   2.320   8.882   7.182
19298WAT     H258137   2.433   8.944   7.081
19299WAT      O58138   7.792   0.468   0.185
19299WAT     H158139   7.841   0.388   0.220
19299WAT     H258140   7.756   0.520   0.262
19300WAT      O58141   6.578   1.844   0.730
19300WAT     H158142   6.490   1.890   0.719
19300WAT     H258143   6.583   1.766   0.668
19301WAT      O58144   5.134   1.922   6.724
19301WAT     H158145   5.051   1.970   6.751
19301WAT     H258146   5.204   1.988   6.698
19302WAT      O58147   9.081   8.624   8.899
19302WAT     H158148   9.169   8.672   8.899
19302WAT     H258149   9.019   8.669   8.963
19303WAT      O58150   8.152   2.165   4.752
19303WAT     H158151   8.146   2.220   4.835
19303WAT     H258152   8.248   2.159   4.723
19304WAT      O58153   1.746   1.047   5.413
19304WAT     H158154   1.812   1.089   5.475
19304WAT     H258155   1.719   1.113   5.343
19305WAT      O58156   5.869   4.976   7.795
19305WAT     H158157   5.799   4.964   7.725
19305WAT     H258158   5.939   4.905   7.787
19306WAT      O58159   9.525   2.252   6.520
19306WAT     H158160   9.579   2.168   6.528
19306WAT     H258161   9.442   2.232   6.468
19307WAT      O58162   9.196   9.329   2.448
19307WAT     H158163   9.255   9.255   2.416
19307WAT     H258164   9.100   9.301   2.438
19308WAT      O58165   8.621   0.420   0.519
19308WAT     H158166   8.632   0.384   0.427
19308WAT     H258167   8.533   0.469   0.525
19309WAT      O58168   3.362   8.907   0.689
19309WAT     H158169   3.369   8.810   0.712
19309WAT     H258170   3.453   8.943   0.670
19310WAT      O58171   4.893   9.332   4.984
19310WAT     H158172   4.968   9.396   4.970
19310WAT     H258173   4.806   9.380   4.973
19311WAT      O58174   5.253   8.321   6.221
19311WAT     H158175   5.159   8.309   6.253
19311WAT     H258176   5.304   8.235   6.233
19312WAT      O58177   5.753   8.301   9.846
19312WAT     H158178   5.824   8.239   9.814
19312WAT     H258179   5.708   8.345   9.768
19313WAT      O58180   0.397   6.108   5.232
19313WAT     H158181   0.399   6.134   5.135
19313WAT     H258182   0.371   6.188   5.287
19314WAT      O58183   1.810   9.301   3.189
19314WAT     H158184   1.859   9.369   3.244
19314WAT     H258185   1.786   9.341   3.100
19315WAT      O58186   0.228   9.765   6.360
19315WAT     H158187   0.130   9.777   6.345
19315WAT     H258188   0.245   9.676   6.402
19316WAT      O58189   6.537   8.145   6.950
19316WAT     H158190   6.577   8.210   6.886
19316WAT     H258191   6.547   8.053   6.915
19317WAT      O58192   0.161   4.286   5.584
19317WAT     H158193   0.097   4.210   5.594
19317WAT     H258194   0.172   4.308   5.487
19318WAT      O58195   0.496   5.140   4.002
19318WAT     H158196   0.566   5.088   3.953
19318WAT     H258197   0.463   5.086   4.079
19319WAT      O58198   2.280   7.641   4.304
19319WAT     H158199   2.285   7.583   4.385
19319WAT     H258200   2.321   7.730   4.324
19320WAT      O58201   5.037   2.854   6.038
19320WAT     H158202   4.982   2.932   6.068
19320WAT     H258203   5.133   2.872   6.056
19321WAT      O58204   8.517   4.941   1.614
19321WAT     H158205   8.607   4.966   1.577
19321WAT     H258206   8.447   4.961   1.545
19322WAT      O58207   4.477   3.893   4.217
19322WAT     H158208   4.476   3.963   4.288
19322WAT     H258209   4.533   3.816   4.248
19323WAT      O58210   4.240   6.927   3.778
19323WAT     H158211   4.275   6.994   3.844
19323WAT     H258212   4.185   6.859   3.827
19324WAT      O58213   2.895   7.175   3.551
19324WAT     H158214   2.892   7.076   3.539
19324WAT     H258215   2.824   7.218   3.496
19325WAT      O58216   9.269   9.013   8.635
19325WAT     H158217   9.251   9.009   8.537
19325WAT     H258218   9.325   9.093   8.656
19326WAT      O58219   1.404   8.835   3.497
19326WAT     H158220   1.357   8.819   3.410
19326WAT     H258221   1.428   8.932   3.504
19327WAT      O58222   5.788   7.657   6.126
19327WAT     H158223   5.706   7.697   6.086
19327WAT     H258224   5.863   7.724   6.123
19328WAT      O58225   0.205   8.055   3.778
19328WAT     H158226   0.188   7.981   3.842
19328WAT     H258227   0.217   8.018   3.686
19329WAT      O58228   1.576   3.526   5.900
19329WAT     H158229   1.590   3.467   5.979
19329WAT     H258230   1.490   3.503   5.855
19330WAT      O58231   7.501   7.082   3.987
19330WAT     H158232   7.496   7.158   3.922
19330WAT     H258233   7.507   6.996   3.936
19331WAT      O58234   7.079   4.210   9.594
19331WAT     H158235   6.999   4.167   9.634
19331WAT     H258236   7.142   4.139   9.562
19332WAT      O58237   2.641   6.628   8.727
19332WAT     H158238   2.561   6.591   8.774
19332WAT     H258239   2.724   6.602   8.776
19333WAT      O58240   7.723   6.149   6.466
19333WAT     H158241   7.641   6.092   6.472
19333WAT     H258242   7.701   6.241   6.496
19334WAT      O58243   9.601   7.928   0.180
19334WAT     H158244   9.519   7.970   0.140
19334WAT     H258245   9.643   7.993   0.243
19335WAT      O58246   4.468   7.849   8.109
19335WAT     H158247   4.450   7.931   8.163
19335WAT     H258248   4.401   7.778   8.132
19336WAT      O58249   0.860   1.916   2.225
19336WAT     H158250   0.872   2.013   2.203
19336WAT     H258251   0.940   1.884   2.276
19337WAT      O58252   9.711   4.772   8.171
19337WAT     H158253   9.674   4.699   8.229
19337WAT     H258254   9.639   4.839   8.152
19338WAT      O58255   0.329   0.526   1.188
19338WAT     H158256   0.259   0.480   1.135
19338WAT     H258257   0.310   0.514   1.286
19339WAT      O58258   1.190   5.933   3.251
19339WAT     H158259   1.264   5.938   3.185
19339WAT     H258260   1.112   5.985   3.218
19340WAT      O58261   2.815   5.546   6.454
19340WAT     H158262   2.743   5.591   6.507
19340WAT     H258263   2.904   5.582   6.480
19341WAT      O58264   0.115   1.700   6.425
19341WAT     H158265   0.021   1.670   6.439
19341WAT     H258266   0.164   1.633   6.370
19342WAT      O58267   0.994   4.158   7.318
19342WAT     H158268   1.043   4.135   7.234
19342WAT     H258269   0.958   4.251   7.310
19343WAT      O58270   8.591   0.253   9.485
19343WAT     H158271   8.676   0.299   9.457
19343WAT     H258272   8.543   0.220   9.404
19344WAT      O58273   6.752   7.748   4.659
19344WAT     H158274   6.658   7.716   4.665
19344WAT     H258275   6.753   7.848   4.652
19345WAT      O58276   9.026   6.400   8.365
19345WAT     H158277   9.003   6.392   8.268
19345WAT     H258278   9.051   6.495   8.385
19346WAT      O58279   7.703   4.458   7.716
19346WAT     H158280   7.692   4.557   7.724
19346WAT     H258281   7.723   4.420   7.806
19347WAT      O58282   2.147   0.065   2.242
19347WAT     H158283   2.129   0.128   2.166
19347WAT     H258284   2.227   0.009   2.220
19348WAT      O58285   4.451   7.629   9.327
19348WAT     H158286   4.470   7.531   9.316
19348WAT     H258287   4.411   7.664   9.242
19349WAT      O58288   8.560   0.490   7.589
19349WAT     H158289   8.613   0.417   7.545
19349WAT     H258290   8.572   0.575   7.537
19350WAT      O58291   4.546   7.897   1.964
19350WAT     H158292   4.560   7.945   2.050
19350WAT     H258293   4.525   7.963   1.892
19351WAT      O58294   5.554   3.549   7.169
19351WAT     H158295   5.541   3.645   7.143
19351WAT     H258296   5.650   3.534   7.193
19352WAT      O58297   4.828   8.127   9.866
19352WAT     H158298   4.896   8.162   9.930
19352WAT     H258299   4.823   8.028   9.874
19353WAT      O58300   3.448   0.534   7.484
19353WAT     H158301   3.400   0.595   7.549
19353WAT     H258302   3.497   0.464   7.535
19354WAT      O58303   5.833   4.210   0.964
19354WAT     H158304   5.927   4.244   0.970
19354WAT     H258305   5.821   4.162   0.877
19355WAT      O58306   8.819   7.026   3.452
19355WAT     H158307   8.908   7.003   3.413
19355WAT     H258308   8.755   7.047   3.379
19356WAT      O58309   2.781   5.918   8.571
19356WAT     H158310   2.758   5.965   8.486
19356WAT     H258311   2.697   5.895   8.620
19357WAT      O58312   3.968   3.062   6.395
19357WAT     H158313   3.998   3.094   6.305
19357WAT     H258314   4.027   2.987   6.426
19358WAT      O58315   8.181   3.865   3.060
19358WAT     H158316   8.153   3.914   3.142
19358WAT     H258317   8.192   3.930   2.984
19359WAT      O58318   0.717   0.554   1.017
19359WAT     H158319   0.742   0.598   1.103
19359WAT     H258320   0.677   0.622   0.956
19360WAT      O58321   6.038   5.180   1.945
19360WAT     H158322   6.067   5.245   2.014
19360WAT     H258323   6.054   5.087   1.977
19361WAT      O58324   8.277   1.393   8.059
19361WAT     H158325   8.320   1.386   8.148
19361WAT     H258326   8.325   1.462   8.004
19362WAT      O58327   1.341   2.129   6.747
19362WAT     H158328   1.414   2.173   6.801
19362WAT     H258329   1.361   2.141   6.649
19363WAT      O58330   9.602   7.209   6.181
19363WAT     H158331   9.657   7.159   6.114
19363WAT     H258332   9.649   7.295   6.204
19364WAT      O58333   5.531   3.668   8.367
19364WAT     H158334   5.556   3.747   8.312
19364WAT     H258335   5.539   3.691   8.464
19365WAT      O58336   1.478   2.840   3.222
19365WAT     H158337   1.400   2.865   3.166
19365WAT     H258338   1.561   2.882   3.185
19366WAT      O58339   0.818   2.390   4.048
19366WAT     H158340   0.804   2.356   3.955
19366WAT     H258341   0.751   2.461   4.068
19367WAT      O58342   5.276   5.500   5.222
19367WAT     H158343   5.300   5.457   5.135
19367WAT     H258344   5.333   5.581   5.236
19368WAT      O58345   5.406   8.524   0.028
19368WAT     H158346   5.329   8.490  -0.026
19368WAT     H258347   5.378   8.535   0.123
19369WAT      O58348   6.373   9.086   5.682
19369WAT     H158349   6.451   9.148   5.680
19369WAT     H258350   6.292   9.136   5.714
19370WAT      O58351   7.767   2.531   3.272
19370WAT     H158352   7.848   2.493   3.227
19370WAT     H258353   7.796   2.596   3.342
19371WAT      O58354   3.454   6.859   4.795
19371WAT     H158355   3.374   6.827   4.744
19371WAT     H258356   3.528   6.881   4.732
19372WAT      O58357   8.387   3.414   9.690
19372WAT     H158358   8.465   3.368   9.732
19372WAT     H258359   8.314   3.348   9.672
19373WAT      O58360   7.200   4.624   4.421
19373WAT     H158361   7.226   4.550   4.359
19373WAT     H258362   7.177   4.705   4.368
19374WAT      O58363   9.875   8.498   9.592
19374WAT     H158364   9.903   8.589   9.622
19374WAT     H258365   9.946   8.432   9.617
19375WAT      O58366   6.346   4.119   8.460
19375WAT     H158367   6.369   4.062   8.539
19375WAT     H258368   6.372   4.072   8.376
19376WAT      O58369   4.507   9.820   1.145
19376WAT     H158370   4.525   9.846   1.240
19376WAT     H258371   4.573   9.865   1.085
19377WAT      O58372   8.263   4.275   7.119
19377WAT     H158373   8.171   4.314   7.117
19377WAT     H258374   8.323   4.333   7.173
19378WAT      O58375   4.433   8.172   6.146
19378WAT     H158376   4.527   8.180   6.113
19378WAT     H258377   4.434   8.149   6.243
19379WAT      O58378   4.919   6.052   1.116
19379WAT     H158379   4.864   6.099   1.184
19379WAT     H258380   4.860   5.992   1.061
19380WAT      O58381   6.539   0.678   8.329
19380WAT     H158382   6.457   0.639   8.370
19380WAT     H258383   6.611   0.685   8.397
19381WAT      O58384   6.987   6.758   3.350
19381WAT     H158385   6.922   6.834   3.344
19381WAT     H258386   7.079   6.791   3.329
19382WAT      O58387   9.860   6.784   1.905
19382WAT     H158388   9.808   6.699   1.920
19382WAT     H258389   9.854   6.841   1.987
19383WAT      O58390   6.790   5.843   1.846
19383WAT     H158391   6.867   5.782   1.864
19383WAT     H258392   6.815   5.937   1.870
19384WAT      O58393   8.750   1.313   1.809
19384WAT     H158394   8.760   1.228   1.756
19384WAT     H258395   8.729   1.388   1.746
19385WAT      O58396   9.533   3.624   4.457
19385WAT     H158397   9.632   3.636   4.465
19385WAT     H258398   9.487   3.709   4.482
19386WAT      O58399   5.214   4.174   5.581
19386WAT     H158400   5.276   4.101   5.610
19386WAT     H258401   5.231   4.256   5.637
19387WAT      O58402   6.653   0.910   4.662
19387WAT     H158403   6.740   0.877   4.626
19387WAT     H258404   6.668   0.965   4.744
19388WAT      O58405   4.025   4.555   8.808
19388WAT     H158406   4.022   4.475   8.867
19388WAT     H258407   4.116   4.596   8.811
19389WAT      O58408   5.291   4.962   4.064
19389WAT     H158409   5.329   4.870   4.057
19389WAT     H258410   5.327   5.006   4.147
19390WAT      O58411   0.203   4.690   4.756
19390WAT     H158412   0.131   4.624   4.737
19390WAT     H258413   0.287   4.662   4.709
19391WAT      O58414   5.113   2.562   0.367
19391WAT     H158415   5.101   2.595   0.274
19391WAT     H258416   5.179   2.620   0.415
19392WAT      O58417   8.681   5.761   4.828
19392WAT     H158418   8.758   5.812   4.867
19392WAT     H258419   8.598   5.782   4.879
19393WAT      O58420   5.341   0.534   0.509
19393WAT     H158421   5.355   0.564   0.603
19393WAT     H258422   5.414   0.570   0.451
19394WAT      O58423   2.622   0.893   6.991
19394WAT     H158424   2.667   0.894   7.080
19394WAT     H258425   2.578   0.981   6.975
19395WAT      O58426   5.520   7.550   0.321
19395WAT     H158427   5.569   7.471   0.284
19395WAT     H258428   5.449   7.519   0.383
19396WAT      O58429   9.689   7.726   2.747
19396WAT     H158430   9.756   7.709   2.675
19396WAT     H258431   9.624   7.651   2.752
19397WAT      O58432   8.236   8.575   7.779
19397WAT     H158433   8.137   8.562   7.778
19397WAT     H258434   8.263   8.620   7.864
19398WAT      O58435   2.356   8.415   7.987
19398WAT     H158436   2.311   8.452   8.068
19398WAT     H258437   2.314   8.453   7.904
19399WAT      O58438   2.263   1.871   0.941
19399WAT     H158439   2.328   1.947   0.936
19399WAT     H258440   2.218   1.859   0.852
19400WAT      O58441   0.925   0.362   0.912
19400WAT     H158442   0.965   0.328   0.997
19400WAT     H258443   0.852   0.427   0.934
19401WAT      O58444   0.705   3.306   1.084
19401WAT     H158445   0.705   3.248   1.165
19401WAT     H258446   0.772   3.272   1.018
19402WAT      O58447   0.423   8.803   8.249
19402WAT     H158448   0.457   8.789   8.156
19402WAT     H258449   0.331   8.766   8.257
19403WAT      O58450   5.611   9.221   6.409
19403WAT     H158451   5.535   9.285   6.422
19403WAT     H258452   5.582   9.144   6.353
19404WAT      O58453   6.018   7.385   3.093
19404WAT     H158454   5.928   7.387   3.051
19404WAT     H258455   6.047   7.478   3.115
19405WAT      O58456   3.842   8.898   8.311
19405WAT     H158457   3.913   8.969   8.305
19405WAT     H258458   3.850   8.850   8.399
19406WAT      O58459   3.649   9.470   9.048
19406WAT     H158460   3.619   9.393   8.991
19406WAT     H258461   3.711   9.438   9.119
19407WAT      O58462   3.466   4.359   3.934
19407WAT     H158463   3.434   4.454   3.938
19407WAT     H258464   3.565   4.358   3.919
19408WAT      O58465   1.797   4.085   2.193
19408WAT     H158466   1.850   4.103   2.276
19408WAT     H258467   1.860   4.062   2.119
19409WAT      O58468   7.682   3.640   4.332
19409WAT     H158469   7.658   3.551   4.294
19409WAT     H258470   7.663   3.641   4.430
19410WAT      O58471   9.665   5.136   4.961
19410WAT     H158472   9.726   5.211   4.985
19410WAT     H258473   9.573   5.156   4.995
19411WAT      O58474   5.717   6.062   0.116
19411WAT     H158475   5.750   6.154   0.098
19411WAT     H258476   5.702   6.050   0.214
19412WAT      O58477   1.056   1.139   9.796
19412WAT     H158478   1.019   1.192   9.872
19412WAT     H258479   1.156   1.139   9.801
19413WAT      O58480   8.441   6.648   1.403
19413WAT     H158481   8.530   6.679   1.369
19413WAT     H258482   8.378   6.638   1.327
19414WAT      O58483   0.677   4.451   6.331
19414WAT     H158484   0.590   4.500   6.332
19414WAT     H258485   0.676   4.380   6.400
19415WAT      O58486   1.396   6.701   9.004
19415WAT     H158487   1.456   6.656   9.070
19415WAT     H258488   1.447   6.720   8.920
19416WAT      O58489   8.636   1.978   3.892
19416WAT     H158490   8.580   1.942   3.817
19416WAT     H258491   8.626   2.077   3.897
19417WAT      O58492   2.434   3.263   0.412
19417WAT     H158493   2.497   3.191   0.383
19417WAT     H258494   2.345   3.249   0.369
19418WAT      O58495   2.829   1.022   8.609
19418WAT     H158496   2.733   1.023   8.634
19418WAT     H258497   2.882   1.072   8.678
19419WAT      O58498   2.555   9.643   6.587
19419WAT     H158499   2.501   9.573   6.540
19419WAT     H258500   2.594   9.706   6.519
19420WAT      O58501   4.908   8.413   2.386
19420WAT     H158502   4.962   8.390   2.306
19420WAT     H258503   4.894   8.512   2.390
19421WAT      O58504   5.625   5.635   8.521
19421WAT     H158505   5.635   5.554   8.462
19421WAT     H258506   5.692   5.704   8.493
19422WAT      O58507   1.881   9.338   2.680
19422WAT     H158508   1.980   9.328   2.695
19422WAT     H258509   1.849   9.264   2.621
19423WAT      O58510   6.720   0.914   7.082
19423WAT     H158511   6.760   0.925   7.173
19423WAT     H258512   6.654   0.987   7.065
19424WAT      O58513   0.712   2.645   2.703
19424WAT     H158514   0.654   2.586   2.648
19424WAT     H258515   0.693   2.741   2.682
19425WAT      O58516   3.011   5.046   8.196
19425WAT     H158517   2.948   5.066   8.121
19425WAT     H258518   2.961   5.004   8.272
19426WAT      O58519   1.115   7.380   5.225
19426WAT     H158520   1.177   7.365   5.302
19426WAT     H258521   1.168   7.395   5.142
19427WAT      O58522   2.803   2.818   8.364
19427WAT     H158523   2.884   2.833   8.308
19427WAT     H258524   2.722   2.849   8.315
19428WAT      O58525   3.841   4.851   8.479
19428WAT     H158526   3.849   4.755   8.507
19428WAT     H258527   3.918   4.876   8.421
19429WAT      O58528   2.693   6.023   0.141
19429WAT     H158529   2.739   5.985   0.222
19429WAT     H258530   2.658   6.114   0.162
19430WAT      O58531   0.320   5.476   5.764
19430WAT     H158532   0.239   5.433   5.726
19430WAT     H258533   0.396   5.468   5.699
19431WAT      O58534   3.816   7.656   1.299
19431WAT     H158535   3.883   7.591   1.265
19431WAT     H258536   3.725   7.631   1.264
19432WAT      O58537   0.562   7.616   0.169
19432WAT     H158538   0.652   7.573   0.169
19432WAT     H258539   0.492   7.545   0.181
19433WAT      O58540   6.664   9.441   6.594
19433WAT     H158541   6.682   9.365   6.656
19433WAT     H258542   6.690   9.527   6.639
19434WAT      O58543   4.130   7.208   9.859
19434WAT     H158544   4.169   7.246   9.943
19434WAT     H258545   4.201   7.158   9.810
19435WAT      O58546   9.630   7.640   9.138
19435WAT     H158547   9.595   7.731   9.157
19435WAT     H258548   9.560   7.572   9.159
19436WAT      O58549   5.771   5.316   0.039
19436WAT     H158550   5.761   5.233   0.094
19436WAT     H258551   5.737   5.298  -0.054
19437WAT      O58552   2.076   8.764   5.969
19437WAT     H158553   2.159   8.732   5.924
19437WAT     H258554   2.081   8.862   5.984
19438WAT      O58555   8.267   4.869   1.728
19438WAT     H158556   8.222   4.924   1.658
19438WAT     H258557   8.363   4.896   1.736
19439WAT      O58558   5.199   7.011   2.254
19439WAT     H158559   5.168   7.067   2.331
19439WAT     H258560   5.151   6.923   2.256
19440WAT      O58561   6.804   0.563   2.839
19440WAT     H158562   6.762   0.611   2.916
19440WAT     H258563   6.790   0.464   2.849
19441WAT      O58564   3.205   8.823   4.665
19441WAT     H158565   3.287   8.766   4.670
19441WAT     H258566   3.227   8.917   4.693
19442WAT      O58567   4.718   7.506   8.847
19442WAT     H158568   4.730   7.485   8.944
19442WAT     H258569   4.629   7.547   8.833
19443WAT      O58570   1.318   1.387   9.562
19443WAT     H158571   1.389   1.327   9.601
19443WAT     H258572   1.318   1.474   9.612
19444WAT      O58573   1.389   4.223   3.130
19444WAT     H158574   1.350   4.202   3.220
19444WAT     H258575   1.322   4.274   3.076
19445WAT      O58576   7.234   0.249   3.491
19445WAT     H158577   7.304   0.310   3.527
19445WAT     H258578   7.143   0.289   3.505
19446WAT      O58579   2.252   6.729   3.516
19446WAT     H158580   2.175   6.748   3.456
19446WAT     H258581   2.220   6.721   3.610
19447WAT      O58582   7.619   0.895   0.228
19447WAT     H158583   7.695   0.952   0.259
19447WAT     H258584   7.624   0.885   0.128
19448WAT      O58585   1.504   5.686   6.670
19448WAT     H158586   1.529   5.694   6.767
19448WAT     H258587   1.581   5.645   6.620
19449WAT      O58588   8.655   3.888   4.980
19449WAT     H158589   8.676   3.798   4.940
19449WAT     H258590   8.572   3.880   5.035
19450WAT      O58591   0.084   4.010   7.001
19450WAT     H158592  -0.006   4.041   7.031
19450WAT     H258593   0.092   3.911   7.016
19451WAT      O58594   9.821   9.517   1.339
19451WAT     H158595   9.849   9.604   1.380
19451WAT     H258596   9.857   9.511   1.246
19452WAT      O58597   9.863   7.999   6.118
19452WAT     H158598   9.961   7.979   6.114
19452WAT     H258599   9.834   8.004   6.213
19453WAT      O58600   1.770   8.287   3.676
19453WAT     H158601   1.797   8.311   3.582
19453WAT     H258602   1.717   8.362   3.715
19454WAT      O58603   1.512   2.259   8.992
19454WAT     H158604   1.507   2.340   9.051
19454WAT     H258605   1.434   2.258   8.930
19455WAT      O58606   8.949   3.706   0.686
19455WAT     H158607   8.864   3.756   0.703
19455WAT     H258608   9.025   3.751   0.734
19456WAT      O58609   6.457   8.632   5.773
19456WAT     H158610   6.498   8.598   5.857
19456WAT     H258611   6.433   8.555   5.714
19457WAT      O58612   5.433   6.754   3.977
19457WAT     H158613   5.417   6.768   4.075
19457WAT     H258614   5.527   6.723   3.962
19458WAT      O58615   3.156   6.533   7.518
19458WAT     H158616   3.218   6.599   7.475
19458WAT     H258617   3.186   6.440   7.495
19459WAT      O58618   7.273   9.269   4.294
19459WAT     H158619   7.356   9.238   4.248
19459WAT     H258620   7.231   9.343   4.241
19460WAT      O58621   7.852   8.531   9.590
19460WAT     H158622   7.893   8.620   9.611
19460WAT     H258623   7.848   8.476   9.673
19461WAT      O58624   4.807   8.549   0.414
19461WAT     H158625   4.762   8.488   0.348
19461WAT     H258626   4.892   8.506   0.445
19462WAT      O58627   3.737   3.581   5.631
19462WAT     H158628   3.724   3.486   5.605
19462WAT     H258629   3.743   3.638   5.549
19463WAT      O58630   5.190   7.244   2.134
19463WAT     H158631   5.103   7.291   2.124
19463WAT     H258632   5.177   7.158   2.183
19464WAT      O58633   3.390   4.929   8.998
19464WAT     H158634   3.457   4.913   9.071
19464WAT     H258635   3.337   5.011   9.020
19465WAT      O58636   8.157   8.013   5.698
19465WAT     H158637   8.221   7.983   5.628
19465WAT     H258638   8.082   7.947   5.705
19466WAT      O58639   2.873   1.931   3.847
19466WAT     H158640   2.848   1.847   3.895
19466WAT     H258641   2.964   1.921   3.807
19467WAT      O58642   2.175   6.862   8.123
19467WAT     H158643   2.213   6.770   8.116
19467WAT     H258644   2.248   6.929   8.115
19468WAT      O58645   2.657   7.667   6.540
19468WAT     H158646   2.725   7.717   6.593
19468WAT     H258647   2.567   7.710   6.553
19469WAT      O58648   6.376   5.545   9.873
19469WAT     H158649   6.417   5.460   9.840
19469WAT     H258650   6.336   5.595   9.796
19470WAT      O58651   8.673   1.315   4.444
19470WAT     H158652   8.674   1.356   4.352
19470WAT     H258653   8.584   1.271   4.459
19471WAT      O58654   1.297   5.273   9.594
19471WAT     H158655   1.285   5.240   9.688
19471WAT     H258656   1.239   5.219   9.533
19472WAT      O58657   5.012   2.198   4.470
19472WAT     H158658   5.060   2.278   4.435
19472WAT     H258659   4.914   2.216   4.472
19473WAT      O58660   1.394   4.390   4.928
19473WAT     H158661   1.341   4.307   4.945
19473WAT     H258662   1.468   4.396   4.995
19474WAT      O58663   2.504   3.274   3.349
19474WAT     H158664   2.460   3.363   3.360
19474WAT     H258665   2.548   3.270   3.259
19475WAT      O58666   7.203   7.754   8.233
19475WAT     H158667   7.272   7.825   8.224
19475WAT     H258668   7.233   7.687   8.302
19476WAT      O58669   1.320   8.168   1.599
19476WAT     H158670   1.376   8.147   1.678
19476WAT     H258671   1.266   8.251   1.617
19477WAT      O58672   8.849   2.496   6.129
19477WAT     H158673   8.857   2.409   6.079
19477WAT     H258674   8.856   2.572   6.065
19478WAT      O58675   5.791   6.015   0.394
19478WAT     H158676   5.781   6.061   0.483
19478WAT     H258677   5.757   5.921   0.402
19479WAT      O58678   2.404   8.021   5.033
19479WAT     H158679   2.360   7.953   5.091
19479WAT     H258680   2.503   8.020   5.050
19480WAT      O58681   8.484   3.877   0.663
19480WAT     H158682   8.465   3.969   0.629
19480WAT     H258683   8.580   3.871   0.691
19481WAT      O58684   2.351   4.204   3.108
19481WAT     H158685   2.428   4.169   3.054
19481WAT     H258686   2.276   4.228   3.047
19482WAT      O58687   3.122   7.581   7.489
19482WAT     H158688   3.196   7.558   7.551
19482WAT     H258689   3.126   7.523   7.408
19483WAT      O58690   9.640   1.276   0.925
19483WAT     H158691   9.653   1.288   1.023
19483WAT     H258692   9.610   1.182   0.907
19484WAT      O58693   0.143   4.481   6.720
19484WAT     H158694   0.056   4.473   6.671
19484WAT     H258695   0.125   4.505   6.816
19485WAT      O58696   8.673   3.692   8.306
19485WAT     H158697   8.625   3.616   8.348
19485WAT     H258698   8.636   3.778   8.341
19486WAT      O58699   4.423   2.811   4.188
19486WAT     H158700   4.450   2.905   4.211
19486WAT     H258701   4.467   2.748   4.251
19487WAT      O58702   6.185   6.622   9.621
19487WAT     H158703   6.266   6.680   9.611
19487WAT     H258704   6.179   6.560   9.543
19488WAT      O58705   2.400   0.449   6.013
19488WAT     H158706   2.364   0.466   5.922
19488WAT     H258707   2.498   0.472   6.015
19489WAT      O58708   7.377   7.604   8.799
19489WAT     H158709   7.448   7.599   8.728
19489WAT     H258710   7.346   7.511   8.822
19490WAT      O58711   8.272   2.532   8.367
19490WAT     H158712   8.304   2.543   8.461
19490WAT     H258713   8.347   2.495   8.311
19491WAT      O58714   3.950   5.904   4.847
19491WAT     H158715   3.995   5.922   4.760
19491WAT     H258716   4.010   5.848   4.905
19492WAT      O58717   8.659   1.169   5.231
19492WAT     H158718   8.600   1.246   5.208
19492WAT     H258719   8.738   1.168   5.170
19493WAT      O58720   5.581   5.028   7.296
19493WAT     H158721   5.609   5.069   7.210
19493WAT     H258722   5.490   5.062   7.321
19494WAT      O58723   0.470   2.739   0.134
19494WAT     H158724   0.438   2.775   0.047
19494WAT     H258725   0.564   2.705   0.124
19495WAT      O58726   1.055   1.800   9.529
19495WAT     H158727   1.066   1.813   9.628
19495WAT     H258728   1.136   1.752   9.493
19496WAT      O58729   1.683   8.097   6.385
19496WAT     H158730   1.777   8.101   6.350
19496WAT     H258731   1.683   8.121   6.482
19497WAT      O58732   0.812   3.173   6.906
19497WAT     H158733   0.841   3.111   6.978
19497WAT     H258734   0.774   3.257   6.947
19498WAT      O58735   4.613   2.351   1.286
19498WAT     H158736   4.521   2.384   1.263
19498WAT     H258737   4.621   2.342   1.385
19499WAT      O58738   2.779   2.102   5.268
19499WAT     H158739   2.859   2.064   5.315
19499WAT     H258740   2.804   2.128   5.175
19500WAT      O58741   1.420   0.174   2.773
19500WAT     H158742   1.374   0.262   2.757
19500WAT     H258743   1.518   0.185   2.754
19501WAT      O58744   8.087   0.160   0.614
19501WAT     H158745   8.172   0.180   0.662
19501WAT     H258746   8.012   0.158   0.679
19502WAT      O58747   1.178   1.218   9.419
19502WAT     H158748   1.089   1.250   9.387
19502WAT     H258749   1.223   1.290   9.472
19503WAT      O58750   9.282   6.419   5.631
19503WAT     H158751   9.266   6.469   5.717
19503WAT     H258752   9.373   6.379   5.633
19504WAT      O58753   8.089   9.460   2.207
19504WAT     H158754   8.043   9.426   2.289
19504WAT     H258755   8.060   9.406   2.128
19505WAT      O58756   4.233   3.149   1.318
19505WAT     H158757   4.241   3.086   1.241
19505WAT     H258758   4.271   3.238   1.292
19506WAT      O58759   9.374   1.634   6.472
19506WAT     H158760   9.429   1.612   6.553
19506WAT     H258761   9.283   1.663   6.501
19507WAT      O58762   5.447   8.004   8.178
19507WAT     H158763   5.437   8.068   8.254
19507WAT     H258764   5.434   8.053   8.092
19508WAT      O58765   2.539   2.320   0.352
19508WAT     H158766   2.627   2.358   0.321
19508WAT     H258767   2.474   2.319   0.276
19509WAT      O58768   8.192   3.070   8.504
19509WAT     H158769   8.224   3.164   8.518
19509WAT     H258770   8.235   3.010   8.571
19510WAT      O58771   5.160   8.217   1.165
19510WAT     H158772   5.213   8.136   1.139
19510WAT     H258773   5.219   8.279   1.217
19511WAT      O58774   3.412   8.103   8.671
19511WAT     H158775   3.383   8.181   8.726
19511WAT     H258776   3.491   8.060   8.713
19512WAT      O58777   3.912   6.053   6.168
19512WAT     H158778   3.968   6.066   6.250
19512WAT     H258779   3.831   6.000   6.191
19513WAT      O58780   9.033   0.018   3.291
19513WAT     H158781   9.112   0.021   3.229
19513WAT     H258782   8.997   0.110   3.304
19514WAT      O58783   9.665   2.469   9.624
19514WAT     H158784   9.710   2.418   9.551
19514WAT     H258785   9.642   2.407   9.700
19515WAT      O58786   2.228   4.318   2.739
19515WAT     H158787   2.271   4.400   2.701
19515WAT     H258788   2.249   4.239   2.682
19516WAT      O58789   2.238   9.107   7.488
19516WAT     H158790   2.309   9.174   7.468
19516WAT     H258791   2.259   9.021   7.440
19517WAT      O58792   1.088   1.216   0.613
19517WAT     H158793   1.012   1.280   0.623
19517WAT     H258794   1.062   1.127   0.651
19518WAT      O58795   1.200   4.262   9.062
19518WAT     H158796   1.288   4.271   9.108
19518WAT     H258797   1.130   4.235   9.129
19519WAT      O58798   1.566   2.808   4.764
19519WAT     H158799   1.478   2.848   4.740
19519WAT     H258800   1.561   2.708   4.755
19520WAT      O58801   3.731   4.242   7.414
19520WAT     H158802   3.761   4.278   7.502
19520WAT     H258803   3.643   4.281   7.389
19521WAT      O58804   7.174   0.899   2.956
19521WAT     H158805   7.267   0.936   2.961
19521WAT     H258806   7.162   0.850   2.870
19522WAT      O58807   3.976   6.586   4.406
19522WAT     H158808   4.035   6.665   4.390
19522WAT     H258809   3.968   6.570   4.504
19523WAT      O58810   7.900   2.934   3.517
19523WAT     H158811   7.976   2.927   3.581
19523WAT     H258812   7.924   2.998   3.444
19524WAT      O58813   3.202   6.761   4.146
19524WAT     H158814   3.244   6.851   4.157
19524WAT     H258815   3.271   6.690   4.157
19525WAT      O58816   8.938   3.592   9.437
19525WAT     H158817   8.885   3.670   9.469
19525WAT     H258818   9.035   3.615   9.435
19526WAT      O58819   6.938   8.692   6.121
19526WAT     H158820   6.933   8.749   6.203
19526WAT     H258821   6.876   8.614   6.130
19527WAT      O58822   8.154   8.888   3.941
19527WAT     H158823   8.149   8.817   3.871
19527WAT     H258824   8.065   8.933   3.950
19528WAT      O58825   2.300   7.117   2.977
19528WAT     H158826   2.287   7.022   3.006
19528WAT     H258827   2.296   7.177   3.057
19529WAT      O58828   3.411   9.165   7.297
19529WAT     H158829   3.330   9.117   7.332
19529WAT     H258830   3.433   9.131   7.206
19530WAT      O58831   4.943   6.377   2.382
19530WAT     H158832   4.898   6.438   2.447
19530WAT     H258833   4.876   6.342   2.316
19531WAT      O58834   6.831   3.059   8.533
19531WAT     H158835   6.908   3.012   8.491
19531WAT     H258836   6.791   3.122   8.467
19532WAT      O58837   1.538   8.388   1.814
19532WAT     H158838   1.559   8.406   1.910
19532WAT     H258839   1.513   8.291   1.802
19533WAT      O58840   2.389   7.860   1.621
19533WAT     H158841   2.299   7.829   1.649
19533WAT     H258842   2.448   7.782   1.603
19534WAT      O58843   0.031   2.520   8.738
19534WAT     H158844  -0.031   2.519   8.660
19534WAT     H258845   0.111   2.575   8.717
19535WAT      O58846   5.118   4.539   2.902
19535WAT     H158847   5.024   4.571   2.910
19535WAT     H258848   5.143   4.532   2.805
19536WAT      O58849   6.765   9.513   1.196
19536WAT     H158850   6.704   9.592   1.199
19536WAT     H258851   6.748   9.455   1.276
19537WAT      O58852   8.243   0.818   2.691
19537WAT     H158853   8.159   0.872   2.697
19537WAT     H258854   8.237   0.740   2.754
19538WAT      O58855   8.032   6.821   1.790
19538WAT     H158856   8.002   6.732   1.823
19538WAT     H258857   8.072   6.811   1.699
19539WAT      O58858   7.224   4.721   8.233
19539WAT     H158859   7.158   4.775   8.180
19539WAT     H258860   7.315   4.760   8.221
19540WAT      O58861   0.913   4.395   8.635
19540WAT     H158862   0.815   4.375   8.631
19540WAT     H258863   0.958   4.329   8.695
19541WAT      O58864   7.328   1.929   3.452
19541WAT     H158865   7.263   1.957   3.523
19541WAT     H258866   7.284   1.937   3.362
19542WAT      O58867   8.032   0.263   4.261
19542WAT     H158868   8.074   0.233   4.174
19542WAT     H258869   8.090   0.234   4.337
19543WAT      O58870   3.161   3.699   5.192
19543WAT     H158871   3.183   3.701   5.289
19543WAT     H258872   3.126   3.608   5.168
19544WAT      O58873   6.456   8.626   5.033
19544WAT     H158874   6.494   8.564   4.964
19544WAT     H258875   6.530   8.673   5.081
19545WAT      O58876   4.775   8.125   0.729
19545WAT     H158877   4.701   8.058   0.723
19545WAT     H258878   4.850   8.097   0.669
19546WAT      O58879   5.537   8.774   2.827
19546WAT     H158880   5.524   8.685   2.870
19546WAT     H258881   5.460   8.793   2.765
19547WAT      O58882   9.586   0.902   5.167
19547WAT     H158883   9.536   0.879   5.084
19547WAT     H258884   9.528   0.956   5.227
19548WAT      O58885   6.570   3.725   7.159
19548WAT     H158886   6.626   3.713   7.241
19548WAT     H258887   6.629   3.729   7.078
19549WAT      O58888   2.227   7.331   5.281
19549WAT     H158889   2.238   7.245   5.331
19549WAT     H258890   2.225   7.312   5.182
19550WAT      O58891   9.041   2.176   7.145
19550WAT     H158892   8.999   2.085   7.138
19550WAT     H258893   8.996   2.227   7.218
19551WAT      O58894   6.813   8.594   4.813
19551WAT     H158895   6.847   8.678   4.772
19551WAT     H258896   6.736   8.560   4.759
19552WAT      O58897   4.473   7.821   3.687
19552WAT     H158898   4.540   7.844   3.616
19552WAT     H258899   4.511   7.753   3.749
19553WAT      O58900   6.839   2.483   1.674
19553WAT     H158901   6.784   2.537   1.610
19553WAT     H258902   6.896   2.419   1.623
19554WAT      O58903   0.153   1.549   0.311
19554WAT     H158904   0.181   1.587   0.223
19554WAT     H258905   0.092   1.472   0.296
19555WAT      O58906   5.025   4.577   0.771
19555WAT     H158907   5.003   4.643   0.843
19555WAT     H258908   4.968   4.595   0.691
19556WAT      O58909   9.501   6.849   6.481
19556WAT     H158910   9.405   6.834   6.507
19556WAT     H258911   9.548   6.761   6.477
19557WAT      O58912   6.148   3.818   8.379
19557WAT     H158913   6.214   3.745   8.360
19557WAT     H258914   6.138   3.829   8.478
19558WAT      O58915   3.097   1.274   7.850
19558WAT     H158916   3.149   1.210   7.794
19558WAT     H258917   3.020   1.226   7.893
19559WAT      O58918   5.971   0.823   5.533
19559WAT     H158919   5.929   0.805   5.444
19559WAT     H258920   6.064   0.857   5.520
19560WAT      O58921   2.153   7.815   9.399
19560WAT     H158922   2.057   7.842   9.384
19560WAT     H258923   2.181   7.840   9.491
19561WAT      O58924   4.470   3.778   9.013
19561WAT     H158925   4.439   3.850   8.951
19561WAT     H258926   4.517   3.818   9.091
19562WAT      O58927   4.677   1.566   6.665
19562WAT     H158928   4.584   1.549   6.632
19562WAT     H258929   4.687   1.662   6.690
19563WAT      O58930   1.953   3.589   6.180
19563WAT     H158931   1.875   3.638   6.220
19563WAT     H258932   1.947   3.492   6.201
19564WAT      O58933   6.733   3.228   8.330
19564WAT     H158934   6.707   3.158   8.264
19564WAT     H258935   6.768   3.308   8.281
19565WAT      O58936   0.651   2.759   4.821
19565WAT     H158937   0.608   2.812   4.893
19565WAT     H258938   0.702   2.683   4.862
19566WAT      O58939   2.154   1.104   6.093
19566WAT     H158940   2.165   1.024   6.035
19566WAT     H258941   2.133   1.184   6.036
19567WAT      O58942   6.103   0.092   8.940
19567WAT     H158943   6.187   0.088   8.886
19567WAT     H258944   6.086   0.187   8.967
19568WAT      O58945   1.947   2.671   8.034
19568WAT     H158946   1.891   2.630   8.107
19568WAT     H258947   1.928   2.624   7.948
19569WAT      O58948   4.127   6.250   3.372
19569WAT     H158949   4.130   6.152   3.352
19569WAT     H258950   4.102   6.301   3.290
19570WAT      O58951   5.110   6.645   8.884
19570WAT     H158952   5.109   6.648   8.784
19570WAT     H258953   5.074   6.557   8.915
19571WAT      O58954   8.836   0.623   6.655
19571WAT     H158955   8.838   0.535   6.606
19571WAT     H258956   8.869   0.695   6.596
19572WAT      O58957   2.986   8.205   3.441
19572WAT     H158958   2.967   8.299   3.467
19572WAT     H258959   2.942   8.185   3.354
19573WAT      O58960   9.540   1.622   1.182
19573WAT     H158961   9.451   1.646   1.222
19573WAT     H258962   9.613   1.666   1.234
19574WAT      O58963   2.969   3.384   9.815
19574WAT     H158964   2.905   3.415   9.744
19574WAT     H258965   2.941   3.420   9.903
19575WAT      O58966   4.903   5.792   6.045
19575WAT     H158967   4.867   5.879   6.077
19575WAT     H258968   4.867   5.772   5.954
19576WAT      O58969   1.161   9.019   8.792
19576WAT     H158970   1.261   9.024   8.797
19576WAT     H258971   1.135   8.978   8.704
19577WAT      O58972   7.987   3.640   8.451
19577WAT     H158973   7.960   3.596   8.365
19577WAT     H258974   8.085   3.626   8.466
19578WAT      O58975   2.493   3.401   0.651
19578WAT     H158976   2.467   3.370   0.560
19578WAT     H258977   2.593   3.399   0.659
19579WAT      O58978   1.912   9.542   6.952
19579WAT     H158979   1.814   9.561   6.953
19579WAT     H258980   1.949   9.569   6.863
19580WAT      O58981   0.001   4.186   4.139
19580WAT     H158982   0.048   4.123   4.202
19580WAT     H258983   0.041   4.178   4.048
19581WAT      O58984   5.142   8.150   9.716
19581WAT     H158985   5.232   8.170   9.754
19581WAT     H258986   5.138   8.055   9.685
19582WAT      O58987   2.352   0.325   2.688
19582WAT     H158988   2.328   0.246   2.745
19582WAT     H258989   2.315   0.311   2.596
19583WAT      O58990   6.016   7.009   1.637
19583WAT     H158991   6.089   7.067   1.603
19583WAT     H258992   5.965   6.970   1.561
19584WAT      O58993   0.110   0.777   2.200
19584WAT     H158994   0.119   0.679   2.185
19584WAT     H258995   0.020   0.796   2.240
19585WAT      O58996   8.313   5.752   3.200
19585WAT     H158997   8.241   5.787   3.140
19585WAT     H258998   8.279   5.675   3.252
19586WAT      O58999   3.410   1.544   1.743
19586WAT     H159000   3.419   1.477   1.816
19586WAT     H259001   3.327   1.597   1.756
19587WAT      O59002   7.790   0.323   8.755
19587WAT     H159003   7.842   0.379   8.689
19587WAT     H259004   7.692   0.334   8.738
19588WAT      O59005   4.408   1.629   1.416
19588WAT     H159006   4.411   1.530   1.429
19588WAT     H259007   4.378   1.649   1.322
19589WAT      O59008   7.315   6.984   6.056
19589WAT     H159009   7.218   6.961   6.061
19589WAT     H259010   7.332   7.040   5.974
19590WAT      O59011   2.638   3.246   7.279
19590WAT     H159012   2.583   3.264   7.360
19590WAT     H259013   2.607   3.303   7.203
19591WAT      O59014   7.624   3.329   2.689
19591WAT     H159015   7.715   3.287   2.687
19591WAT     H259016   7.568   3.291   2.616
19592WAT      O59017   4.823   4.854   3.860
19592WAT     H159018   4.772   4.896   3.786
19592WAT     H259019   4.916   4.891   3.863
19593WAT      O59020   1.102   9.309   2.253
19593WAT     H159021   1.051   9.371   2.313
19593WAT     H259022   1.038   9.257   2.196
19594WAT      O59023   6.162   4.492   8.810
19594WAT     H159024   6.241   4.553   8.804
19594WAT     H259025   6.095   4.515   8.740
19595WAT      O59026   1.105   4.761   2.872
19595WAT     H159027   1.025   4.736   2.927
19595WAT     H259028   1.187   4.755   2.928
19596WAT      O59029   1.731   5.519   5.788
19596WAT     H159030   1.760   5.423   5.794
19596WAT     H259031   1.648   5.525   5.732
19597WAT      O59032   8.414   3.717   2.790
19597WAT     H159033   8.490   3.778   2.768
19597WAT     H259034   8.328   3.768   2.786
19598WAT      O59035   6.209   0.751   8.997
19598WAT     H159036   6.122   0.800   8.986
19598WAT     H259037   6.210   0.672   8.936
19599WAT      O59038   3.406   6.776   7.722
19599WAT     H159039   3.392   6.707   7.651
19599WAT     H259040   3.320   6.825   7.737
19600WAT      O59041   8.300   4.409   5.217
19600WAT     H159042   8.307   4.498   5.263
19600WAT     H259043   8.302   4.423   5.118
19601WAT      O59044   4.009   0.288   9.570
19601WAT     H159045   4.094   0.267   9.618
19601WAT     H259046   4.031   0.323   9.478
19602WAT      O59047   9.861   8.699   7.382
19602WAT     H159048   9.889   8.763   7.454
19602WAT     H259049   9.837   8.750   7.300
19603WAT      O59050   7.778   4.641   8.622
19603WAT     H159051   7.725   4.577   8.677
19603WAT     H259052   7.762   4.624   8.525
19604WAT      O59053   8.857   1.367   7.417
19604WAT     H159054   8.955   1.380   7.433
19604WAT     H259055   8.838   1.374   7.319
19605WAT      O59056   2.274   7.171   1.178
19605WAT     H159057   2.258   7.190   1.081
19605WAT     H259058   2.342   7.234   1.214
19606WAT      O59059   7.065   7.248   7.360
19606WAT     H159060   6.973   7.288   7.364
19606WAT     H259061   7.076   7.185   7.436
19607WAT      O59062   1.144   5.137   9.440
19607WAT     H159063   1.185   5.053   9.473
19607WAT     H259064   1.112   5.124   9.346
19608WAT      O59065   8.134   8.306   3.106
19608WAT     H159066   8.197   8.274   3.035
19608WAT     H259067   8.159   8.264   3.194
19609WAT      O59068   8.170   8.905   6.024
19609WAT     H159069   8.133   8.972   6.088
19609WAT     H259070   8.228   8.840   6.072
19610WAT      O59071   1.122   2.036   2.605
19610WAT     H159072   1.170   1.973   2.545
19610WAT     H259073   1.186   2.073   2.673
19611WAT      O59074   9.554   5.822   7.763
19611WAT     H159075   9.545   5.873   7.849
19611WAT     H259076   9.642   5.845   7.720
19612WAT      O59077   6.345   5.739   5.451
19612WAT     H159078   6.256   5.733   5.496
19612WAT     H259079   6.409   5.676   5.494
19613WAT      O59080   8.641   4.976   7.456
19613WAT     H159081   8.729   4.960   7.412
19613WAT     H259082   8.586   5.039   7.400
19614WAT      O59083   9.629   5.764   6.842
19614WAT     H159084   9.649   5.785   6.937
19614WAT     H259085   9.703   5.798   6.784
19615WAT      O59086   8.820   5.486   2.772
19615WAT     H159087   8.903   5.529   2.806
19615WAT     H259088   8.741   5.517   2.825
19616WAT      O59089   2.630   0.851   2.069
19616WAT     H159090   2.612   0.884   1.977
19616WAT     H259091   2.667   0.926   2.124
19617WAT      O59092   4.077   7.445   8.683
19617WAT     H159093   4.160   7.433   8.628
19617WAT     H259094   4.061   7.543   8.697
19618WAT      O59095   1.638   2.439   4.576
19618WAT     H159096   1.589   2.473   4.656
19618WAT     H259097   1.649   2.513   4.509
19619WAT      O59098   6.271   9.420   3.599
19619WAT     H159099   6.196   9.484   3.583
19619WAT     H259100   6.353   9.470   3.626
19620WAT      O59101   4.059   0.395   8.677
19620WAT     H159102   4.099   0.346   8.599
19620WAT     H259103   4.044   0.330   8.752
19621WAT      O59104   1.450   1.871   2.758
19621WAT     H159105   1.402   1.949   2.797
19621WAT     H259106   1.460   1.800   2.828
19622WAT      O59107   8.701   3.217   1.325
19622WAT     H159108   8.782   3.171   1.362
19622WAT     H259109   8.639   3.240   1.399
19623WAT      O59110   8.586   3.326   1.569
19623WAT     H159111   8.647   3.323   1.648
19623WAT     H259112   8.524   3.404   1.578
19624WAT      O59113   5.764   5.230   2.505
19624WAT     H159114   5.745   5.268   2.595
19624WAT     H259115   5.685   5.242   2.446
19625WAT      O59116   8.861   7.450   0.382
19625WAT     H159117   8.922   7.372   0.367
19625WAT     H259118   8.819   7.443   0.472
19626WAT      O59119   4.321   2.211   7.006
19626WAT     H159120   4.376   2.294   6.992
19626WAT     H259121   4.224   2.233   6.997
19627WAT      O59122   4.250   4.466   7.057
19627WAT     H159123   4.322   4.531   7.033
19627WAT     H259124   4.278   4.374   7.031
19628WAT      O59125   4.521   6.927   2.009
19628WAT     H159126   4.596   6.965   2.063
19628WAT     H259127   4.526   6.827   2.010
19629WAT      O59128   7.297   3.100   9.554
19629WAT     H159129   7.275   3.176   9.615
19629WAT     H259130   7.396   3.090   9.548
19630WAT      O59131   7.338   7.270   4.813
19630WAT     H159132   7.313   7.184   4.857
19630WAT     H259133   7.426   7.259   4.766
19631WAT      O59134   9.265   8.686   9.273
19631WAT     H159135   9.235   8.748   9.345
19631WAT     H259136   9.218   8.709   9.188
19632WAT      O59137   9.608   4.461   7.261
19632WAT     H159138   9.613   4.472   7.360
19632WAT     H259139   9.520   4.493   7.228
19633WAT      O59140   6.140   1.755   9.817
19633WAT     H159141   6.186   1.818   9.880
19633WAT     H259142   6.049   1.734   9.851
19634WAT      O59143   0.609   1.101   0.924
19634WAT     H159144   0.701   1.065   0.911
19634WAT     H259145   0.569   1.061   1.006
19635WAT      O59146   5.921   6.295   8.437
19635WAT     H159147   5.890   6.372   8.380
19635WAT     H259148   5.880   6.210   8.404
19636WAT      O59149   8.891   1.160   9.389
19636WAT     H159150   8.964   1.177   9.324
19636WAT     H259151   8.927   1.162   9.482
19637WAT      O59152   2.449   3.358   9.429
19637WAT     H159153   2.527   3.380   9.371
19637WAT     H259154   2.414   3.267   9.404
19638WAT      O59155   2.823   4.443   7.511
19638WAT     H159156   2.881   4.517   7.545
19638WAT     H259157   2.853   4.418   7.419
19639WAT      O59158   0.812   1.813   1.710
19639WAT     H159159   0.837   1.889   1.649
19639WAT     H259160   0.736   1.842   1.768
19640WAT      O59161   1.984   2.595   0.683
19640WAT     H159162   2.013   2.509   0.640
19640WAT     H259163   1.938   2.652   0.616
19641WAT      O59164   5.864   2.136   7.257
19641WAT     H159165   5.794   2.139   7.186
19641WAT     H259166   5.948   2.179   7.224
19642WAT      O59167   8.821   1.603   4.712
19642WAT     H159168   8.726   1.578   4.734
19642WAT     H259169   8.882   1.528   4.737
19643WAT      O59170   9.587   7.017   8.086
19643WAT     H159171   9.686   7.007   8.076
19643WAT     H259172   9.566   7.113   8.108
19644WAT      O59173   6.809   8.626   9.151
19644WAT     H159174   6.869   8.687   9.203
19644WAT     H259175   6.768   8.559   9.212
19645WAT      O59176   2.114   5.010   4.588
19645WAT     H159177   2.078   5.090   4.637
19645WAT     H259178   2.084   5.013   4.493
19646WAT      O59179   6.987   9.726   8.648
19646WAT     H159180   6.967   9.645   8.592
19646WAT     H259181   6.955   9.808   8.601
19647WAT      O59182   2.667   2.732   9.467
19647WAT     H159183   2.708   2.658   9.520
19647WAT     H259184   2.578   2.703   9.431
19648WAT      O59185   4.969   8.941   2.158
19648WAT     H159186   4.963   8.842   2.157
19648WAT     H259187   5.010   8.973   2.073
19649WAT      O59188   5.826   7.617   5.237
19649WAT     H159189   5.894   7.600   5.308
19649WAT     H259190   5.859   7.689   5.176
19650WAT      O59191   6.977   7.600   1.156
19650WAT     H159192   7.025   7.613   1.070
19650WAT     H259193   6.930   7.685   1.181
19651WAT      O59194   3.493   0.131   0.640
19651WAT     H159195   3.469   0.181   0.557
19651WAT     H259196   3.490   0.193   0.718
19652WAT      O59197   7.070   6.844   7.116
19652WAT     H159198   7.047   6.814   7.024
19652WAT     H259199   7.084   6.765   7.175
19653WAT      O59200   0.662   7.419   6.938
19653WAT     H159201   0.655   7.329   6.894
19653WAT     H259202   0.743   7.467   6.904
19654WAT      O59203   1.634   1.547   6.688
19654WAT     H159204   1.668   1.636   6.718
19654WAT     H259205   1.687   1.474   6.732
19655WAT      O59206   3.123   8.623   6.803
19655WAT     H159207   3.057   8.549   6.790
19655WAT     H259208   3.198   8.613   6.737
19656WAT      O59209   3.224   2.830   3.183
19656WAT     H159210   3.304   2.881   3.215
19656WAT     H259211   3.254   2.745   3.139
19657WAT      O59212   4.742   8.774   2.272
19657WAT     H159213   4.781   8.741   2.358
19657WAT     H259214   4.795   8.738   2.195
19658WAT      O59215   3.162   2.132   0.207
19658WAT     H159216   3.243   2.078   0.228
19658WAT     H259217   3.187   2.212   0.153
19659WAT      O59218   6.904   5.199   5.187
19659WAT     H159219   6.925   5.161   5.277
19659WAT     H259220   6.846   5.280   5.198
19660WAT      O59221   7.321   7.235   4.116
19660WAT     H159222   7.294   7.194   4.203
19660WAT     H259223   7.401   7.187   4.079
19661WAT      O59224   6.448   5.277   5.608
19661WAT     H159225   6.362   5.298   5.560
19661WAT     H259226   6.449   5.324   5.696
19662WAT      O59227   3.384   1.490   3.445
19662WAT     H159228   3.462   1.512   3.386
19662WAT     H259229   3.393   1.396   3.478
19663WAT      O59230   5.569   3.237   8.024
19663WAT     H159231   5.521   3.316   8.063
19663WAT     H259232   5.576   3.166   8.094
19664WAT      O59233   2.067   1.912   5.255
19664WAT     H159234   2.122   1.995   5.256
19664WAT     H259235   1.971   1.935   5.237
19665WAT      O59236   7.320   1.671   2.194
19665WAT     H159237   7.332   1.667   2.095
19665WAT     H259238   7.224   1.659   2.217
19666WAT      O59239   8.825   6.624   4.859
19666WAT     H159240   8.871   6.537   4.877
19666WAT     H259241   8.893   6.697   4.859
19667WAT      O59242   5.712   8.501   4.997
19667WAT     H159243   5.645   8.427   4.989
19667WAT     H259244   5.725   8.545   4.908
19668WAT      O59245   0.346   3.356   3.551
19668WAT     H159246   0.362   3.386   3.457
19668WAT     H259247   0.334   3.435   3.610
19669WAT      O59248   0.762   0.512   9.721
19669WAT     H159249   0.740   0.494   9.625
19669WAT     H259250   0.825   0.442   9.755
19670WAT      O59251   7.921   3.969   5.186
19670WAT     H159252   7.982   3.927   5.118
19670WAT     H259253   7.839   4.004   5.140
19671WAT      O59254   1.750   2.776   6.521
19671WAT     H159255   1.672   2.717   6.500
19671WAT     H259256   1.719   2.871   6.530
19672WAT      O59257   5.092   6.150   2.753
19672WAT     H159258   5.011   6.208   2.761
19672WAT     H259259   5.106   6.125   2.657
19673WAT      O59260   9.547   6.954   5.279
19673WAT     H159261   9.595   6.978   5.195
19673WAT     H259262   9.472   7.018   5.294
19674WAT      O59263   5.015   6.085   6.182
19674WAT     H159264   5.032   6.183   6.194
19674WAT     H259265   4.976   6.047   6.265
19675WAT      O59266   4.061   2.119   7.397
19675WAT     H159267   4.015   2.084   7.479
19675WAT     H259268   4.015   2.202   7.366
19676WAT      O59269   9.731   2.108   8.022
19676WAT     H159270   9.676   2.192   8.013
19676WAT     H259271   9.819   2.121   7.976
19677WAT      O59272   6.998   7.303   8.010
19677WAT     H159273   7.089   7.265   8.029
19677WAT     H259274   7.008   7.394   7.970
19678WAT      O59275   7.420   1.379   1.925
19678WAT     H159276   7.384   1.301   1.876
19678WAT     H259277   7.461   1.349   2.011
19679WAT      O59278   1.803   8.122   7.321
19679WAT     H159279   1.768   8.116   7.415
19679WAT     H259280   1.757   8.196   7.273
19680WAT      O59281   6.558   5.647   8.828
19680WAT     H159282   6.618   5.670   8.904
19680WAT     H259283   6.524   5.731   8.785
19681WAT      O59284   0.423   3.629   4.749
19681WAT     H159285   0.384   3.540   4.724
19681WAT     H259286   0.350   3.692   4.775
19682WAT      O59287   6.561   2.942   9.158
19682WAT     H159288   6.650   2.897   9.162
19682WAT     H259289   6.491   2.875   9.135
19683WAT      O59290   5.290   5.917   8.547
19683WAT     H159291   5.248   5.966   8.623
19683WAT     H259292   5.245   5.944   8.461
19684WAT      O59293   3.430   2.337   8.672
19684WAT     H159294   3.427   2.412   8.605
19684WAT     H259295   3.410   2.251   8.626
19685WAT      O59296   3.989   2.124   9.502
19685WAT     H159297   3.991   2.222   9.480
19685WAT     H259298   3.913   2.080   9.455
19686WAT      O59299   1.039   7.099   3.729
19686WAT     H159300   1.010   7.171   3.665
19686WAT     H259301   1.134   7.076   3.712
19687WAT      O59302   6.860   3.173   1.236
19687WAT     H159303   6.797   3.226   1.180
19687WAT     H259304   6.945   3.224   1.248
19688WAT      O59305   1.284   5.821   4.747
19688WAT     H159306   1.275   5.791   4.652
19688WAT     H259307   1.207   5.787   4.800
19689WAT      O59308   8.709   6.796   2.403
19689WAT     H159309   8.695   6.789   2.502
19689WAT     H259310   8.776   6.729   2.374
19690WAT      O59311   2.525   5.749   1.105
19690WAT     H159312   2.558   5.667   1.057
19690WAT     H259313   2.587   5.772   1.179
19691WAT      O59314   3.857   4.671   6.984
19691WAT     H159315   3.920   4.594   6.989
19691WAT     H259316   3.799   4.662   6.903
19692WAT      O59317   1.733   3.002   7.976
19692WAT     H159318   1.715   2.919   7.925
19692WAT     H259319   1.711   3.082   7.920
19693WAT      O59320   6.044   2.938   2.280
19693WAT     H159321   5.970   2.902   2.224
19693WAT     H259322   6.051   3.037   2.268
19694WAT      O59323   8.335   3.019   7.826
19694WAT     H159324   8.424   3.050   7.861
19694WAT     H259325   8.262   3.074   7.866
19695WAT      O59326   6.709   1.475   1.101
19695WAT     H159327   6.646   1.430   1.165
19695WAT     H259328   6.658   1.542   1.046
19696WAT      O59329   0.052   4.964   3.296
19696WAT     H159330   0.038   4.919   3.207
19696WAT     H259331   0.119   4.912   3.349
19697WAT      O59332   9.040   3.877   4.829
19697WAT     H159333   9.070   3.906   4.920
19697WAT     H259334   9.041   3.777   4.824
19698WAT      O59335   7.161   8.209   6.544
19698WAT     H159336   7.233   8.241   6.606
19698WAT     H259337   7.081   8.181   6.598
19699WAT      O59338   7.561   2.579   9.083
19699WAT     H159339   7.504   2.580   9.000
19699WAT     H259340   7.562   2.671   9.123
19700WAT      O59341   4.550   9.531   5.983
19700WAT     H159342   4.592   9.564   6.068
19700WAT     H259343   4.554   9.431   5.981
19701WAT      O59344   5.693   8.695   5.640
19701WAT     H159345   5.606   8.702   5.591
19701WAT     H259346   5.766   8.733   5.583
19702WAT      O59347   7.664   5.290   9.798
19702WAT     H159348   7.578   5.265   9.841
19702WAT     H259349   7.647   5.322   9.704
19703WAT      O59350   6.200   8.959   0.008
19703WAT     H159351   6.198   8.861  -0.011
19703WAT     H259352   6.274   8.978   0.073
19704WAT      O59353   2.341   8.465   6.431
19704WAT     H159354   2.375   8.551   6.394
19704WAT     H259355   2.390   8.388   6.389
19705WAT      O59356   9.554   1.320   6.793
19705WAT     H159357   9.533   1.417   6.789
19705WAT     H259358   9.647   1.304   6.760
19706WAT      O59359   1.706   9.112   1.926
19706WAT     H159360   1.786   9.155   1.967
19706WAT     H259361   1.671   9.170   1.853
19707WAT      O59362   6.584   3.347   3.096
19707WAT     H159363   6.579   3.272   3.163
19707WAT     H259364   6.633   3.316   3.015
19708WAT      O59365   2.607   7.370   3.651
19708WAT     H159366   2.642   7.334   3.565
19708WAT     H259367   2.684   7.392   3.712
19709WAT      O59368   8.661   6.312   6.853
19709WAT     H159369   8.734   6.264   6.805
19709WAT     H259370   8.698   6.357   6.934
19710WAT      O59371   4.666   2.112   1.611
19710WAT     H159372   4.638   2.058   1.691
19710WAT     H259373   4.601   2.095   1.536
19711WAT      O59374   5.886   0.681   8.807
19711WAT     H159375   5.903   0.619   8.884
19711WAT     H259376   5.969   0.692   8.753
19712WAT      O59377   7.699   1.753   1.351
19712WAT     H159378   7.648   1.667   1.354
19712WAT     H259379   7.725   1.779   1.444
19713WAT      O59380   8.235   8.292   4.267
19713WAT     H159381   8.181   8.306   4.184
19713WAT     H259382   8.202   8.210   4.315
19714WAT      O59383   8.641   9.583   2.227
19714WAT     H159384   8.705   9.508   2.246
19714WAT     H259385   8.666   9.663   2.281
19715WAT      O59386   8.463   2.888   3.909
19715WAT     H159387   8.556   2.905   3.944
19715WAT     H259388   8.435   2.964   3.851
19716WAT      O59389   2.687   0.777   5.861
19716WAT     H159390   2.662   0.808   5.952
19716WAT     H259391   2.786   0.772   5.853
19717WAT      O59392   8.653   7.192   9.676
19717WAT     H159393   8.605   7.254   9.613
19717WAT     H259394   8.749   7.218   9.681
19718WAT      O59395   0.848   0.493   8.323
19718WAT     H159396   0.828   0.513   8.418
19718WAT     H259397   0.901   0.409   8.317
19719WAT      O59398   4.029   7.192   2.038
19719WAT     H159399   4.124   7.178   2.068
19719WAT     H259400   4.027   7.204   1.939
19720WAT      O59401   6.150   6.774   2.373
19720WAT     H159402   6.208   6.817   2.442
19720WAT     H259403   6.095   6.844   2.327
19721WAT      O59404   3.748   1.865   7.331
19721WAT     H159405   3.798   1.872   7.245
19721WAT     H259406   3.803   1.905   7.404
19722WAT      O59407   8.265   7.636   6.458
19722WAT     H159408   8.190   7.694   6.427
19722WAT     H259409   8.340   7.639   6.392
19723WAT      O59410   1.595   7.782   6.085
19723WAT     H159411   1.585   7.778   5.986
19723WAT     H259412   1.675   7.729   6.113
19724WAT      O59413   7.487   5.441   6.364
19724WAT     H159414   7.510   5.438   6.461
19724WAT     H259415   7.390   5.419   6.352
19725WAT      O59416   6.868   5.565   1.632
19725WAT     H159417   6.941   5.633   1.629
19725WAT     H259418   6.832   5.559   1.725
19726WAT      O59419   1.443   3.835   0.721
19726WAT     H159420   1.442   3.773   0.799
19726WAT     H259421   1.368   3.813   0.659
19727WAT      O59422   1.229   8.493   6.743
19727WAT     H159423   1.167   8.416   6.756
19727WAT     H259424   1.176   8.578   6.737
19728WAT      O59425   5.239   6.290   7.913
19728WAT     H159426   5.156   6.275   7.965
19728WAT     H259427   5.316   6.303   7.975
19729WAT      O59428   2.438   7.851   4.451
19729WAT     H159429   2.468   7.933   4.402
19729WAT     H259430   2.507   7.780   4.442
19730WAT      O59431   3.532   9.050   4.743
19730WAT     H159432   3.572   9.141   4.732
19730WAT     H259433   3.593   8.982   4.701
19731WAT      O59434   6.585   1.730   0.420
19731WAT     H159435   6.590   1.828   0.435
19731WAT     H259436   6.497   1.695   0.454
19732WAT      O59437   0.130   9.303   7.813
19732WAT     H159438   0.111   9.394   7.850
19732WAT     H259439   0.080   9.290   7.728
19733WAT      O59440   7.630   0.782   3.230
19733WAT     H159441   7.685   0.861   3.204
19733WAT     H259442   7.579   0.748   3.151
19734WAT      O59443   1.016   0.963   2.076
19734WAT     H159444   0.965   0.884   2.043
19734WAT     H259445   1.023   0.958   2.176
19735WAT      O59446   6.749   8.237   0.004
19735WAT     H159447   6.765   8.335  -0.007
19735WAT     H259448   6.804   8.203   0.080
19736WAT      O59449   5.420   4.435   3.148
19736WAT     H159450   5.418   4.534   3.139
19736WAT     H259451   5.329   4.402   3.175
19737WAT      O59452   8.924   0.445   3.814
19737WAT     H159453   8.959   0.457   3.907
19737WAT     H259454   8.836   0.490   3.806
19738WAT      O59455   7.333   5.405   0.271
19738WAT     H159456   7.364   5.316   0.302
19738WAT     H259457   7.233   5.407   0.271
19739WAT      O59458   2.465   2.259   8.575
19739WAT     H159459   2.402   2.320   8.526
19739WAT     H259460   2.559   2.290   8.560
19740WAT      O59461   2.007   4.988   4.326
19740WAT     H159462   2.051   5.025   4.243
19740WAT     H259463   1.909   4.981   4.311
19741WAT      O59464   4.401   8.036   7.685
19741WAT     H159465   4.411   7.990   7.596
19741WAT     H259466   4.337   7.985   7.742
19742WAT      O59467   1.635   6.233   7.515
19742WAT     H159468   1.621   6.178   7.433
19742WAT     H259469   1.653   6.328   7.490
19743WAT      O59470   2.738   0.322   8.492
19743WAT     H159471   2.814   0.343   8.554
19743WAT     H259472   2.747   0.228   8.459
19744WAT      O59473   2.364   2.504   8.970
19744WAT     H159474   2.305   2.511   8.890
19744WAT     H259475   2.378   2.595   9.010
19745WAT      O59476   8.430   6.277   3.953
19745WAT     H159477   8.508   6.246   3.899
19745WAT     H259478   8.463   6.323   4.036
19746WAT      O59479   3.711   1.591   7.164
19746WAT     H159480   3.628   1.554   7.207
19746WAT     H259481   3.706   1.691   7.165
19747WAT      O59482   9.400   7.991   1.496
19747WAT     H159483   9.449   7.993   1.583
19747WAT     H259484   9.384   7.896   1.469
19748WAT      O59485   0.024   9.719   4.145
19748WAT     H159486   0.081   9.671   4.212
19748WAT     H259487  -0.046   9.656   4.111
19749WAT      O59488   0.098   6.867   5.519
19749WAT     H159489   0.104   6.931   5.442
19749WAT     H259490   0.120   6.775   5.488
19750WAT      O59491   5.803   7.361   1.989
19750WAT     H159492   5.816   7.453   2.025
19750WAT     H259493   5.809   7.364   1.889
19751WAT      O59494   2.828   2.282   9.799
19751WAT     H159495   2.871   2.218   9.862
19751WAT     H259496   2.740   2.311   9.835
19752WAT      O59497   7.639   8.589   4.588
19752WAT     H159498   7.547   8.614   4.618
19752WAT     H259499   7.659   8.634   4.500
19753WAT      O59500   6.921   8.001   6.376
19753WAT     H159501   6.987   8.073   6.356
19753WAT     H259502   6.840   8.041   6.420
19754WAT      O59503   8.519   7.266   8.298
19754WAT     H159504   8.549   7.361   8.309
19754WAT     H259505   8.556   7.210   8.372
19755WAT      O59506   1.784   3.897   4.154
19755WAT     H159507   1.854   3.826   4.164
19755WAT     H259508   1.745   3.917   4.244
19756WAT      O59509   9.358   2.040   1.726
19756WAT     H159510   9.286   2.029   1.657
19756WAT     H259511   9.447   2.047   1.680
19757WAT      O59512   3.324   0.024   5.152
19757WAT     H159513   3.238  -0.017   5.183
19757WAT     H259514   3.341  -0.001   5.057
19758WAT      O59515   3.616   5.368   7.818
19758WAT     H159516   3.591   5.344   7.912
19758WAT     H259517   3.534   5.371   7.762
19759WAT      O59518   7.875   9.350   3.232
19759WAT     H159519   7.973   9.350   3.214
19759WAT     H259520   7.845   9.444   3.249
19760WAT      O59521   8.897   2.738   5.991
19760WAT     H159522   8.959   2.719   5.914
19760WAT     H259523   8.947   2.789   6.062
19761WAT      O59524   8.902   7.663   3.006
19761WAT     H159525   8.914   7.762   3.018
19761WAT     H259526   8.965   7.615   3.067
19762WAT      O59527   4.520   0.034   8.556
19762WAT     H159528   4.555  -0.045   8.606
19762WAT     H259529   4.572   0.116   8.583
19763WAT      O59530   2.575   6.339   4.966
19763WAT     H159531   2.513   6.351   4.889
19763WAT     H259532   2.603   6.428   5.001
19764WAT      O59533   8.203   5.547   4.760
19764WAT     H159534   8.130   5.554   4.692
19764WAT     H259535   8.281   5.499   4.721
19765WAT      O59536   1.895   7.419   3.197
19765WAT     H159537   1.852   7.432   3.107
19765WAT     H259538   1.831   7.443   3.269
19766WAT      O59539   7.502   4.620   8.452
19766WAT     H159540   7.570   4.611   8.379
19766WAT     H259541   7.430   4.552   8.438
19767WAT      O59542   7.402   5.574   1.724
19767WAT     H159543   7.329   5.599   1.660
19767WAT     H259544   7.439   5.657   1.766
19768WAT      O59545   4.131   3.381   2.585
19768WAT     H159546   4.154   3.476   2.561
19768WAT     H259547   4.215   3.328   2.593
19769WAT      O59548   2.930   0.642   5.000
19769WAT     H159549   3.010   0.637   5.060
19769WAT     H259550   2.847   0.639   5.055
19770WAT      O59551   1.574   9.413   0.954
19770WAT     H159552   1.543   9.500   0.993
19770WAT     H259553   1.667   9.394   0.985
19771WAT      O59554   9.808   2.105   5.506
19771WAT     H159555   9.771   2.027   5.456
19771WAT     H259556   9.895   2.079   5.549
19772WAT      O59557   4.922   5.067   1.580
19772WAT     H159558   4.833   5.025   1.562
19772WAT     H259559   4.985   4.998   1.616
19773WAT      O59560   0.933   5.322   2.638
19773WAT     H159561   0.972   5.400   2.688
19773WAT     H259562   0.968   5.322   2.544
19774WAT      O59563   5.463   1.609   0.340
19774WAT     H159564   5.392   1.622   0.270
19774WAT     H259565   5.461   1.514   0.371
19775WAT      O59566   6.981   9.649   6.971
19775WAT     H159567   6.953   9.643   7.067
19775WAT     H259568   7.065   9.703   6.964
19776WAT      O59569   2.478   8.966   5.410
19776WAT     H159570   2.541   8.971   5.333
19776WAT     H259571   2.526   8.934   5.491
19777WAT      O59572   2.415   6.109   6.736
19777WAT     H159573   2.442   6.139   6.827
19777WAT     H259574   2.331   6.157   6.709
19778WAT      O59575   0.114   1.127   0.923
19778WAT     H159576   0.197   1.094   0.967
19778WAT     H259577   0.038   1.066   0.943
19779WAT      O59578   0.725   9.380   7.466
19779WAT     H159579   0.706   9.315   7.540
19779WAT     H259580   0.813   9.358   7.424
19780WAT      O59581   0.260   2.206   3.874
19780WAT     H159582   0.201   2.128   3.892
19780WAT     H259583   0.287   2.249   3.960
19781WAT      O59584   5.004   2.051   4.208
19781WAT     H159585   5.030   2.112   4.282
19781WAT     H259586   4.941   2.098   4.146
19782WAT      O59587   8.435   3.386   7.848
19782WAT     H159588   8.519   3.335   7.867
19782WAT     H259589   8.417   3.384   7.749
19783WAT      O59590   1.844   9.301   6.684
19783WAT     H159591   1.797   9.373   6.633
19783WAT     H259592   1.871   9.336   6.774
19784WAT      O59593   3.715   6.016   1.317
19784WAT     H159594   3.679   6.077   1.247
19784WAT     H259595   3.793   5.965   1.280
19785WAT      O59596   1.039   9.171   5.443
19785WAT     H159597   1.129   9.130   5.458
19785WAT     H259598   1.051   9.263   5.403
19786WAT      O59599   0.670   4.847   0.384
19786WAT     H159600   0.582   4.805   0.405
19786WAT     H259601   0.668   4.944   0.408
19787WAT      O59602   6.146   7.312   3.786
19787WAT     H159603   6.128   7.401   3.828
19787WAT     H259604   6.060   7.260   3.780
19788WAT      O59605   7.177   6.919   2.952
19788WAT     H159606   7.152   6.897   3.046
19788WAT     H259607   7.276   6.923   2.943
19789WAT      O59608   3.658   4.674   8.145
19789WAT     H159609   3.722   4.657   8.070
19789WAT     H259610   3.682   4.759   8.191
19790WAT      O59611   4.024   8.698   2.171
19790WAT     H159612   3.977   8.721   2.086
19790WAT     H259613   4.114   8.659   2.150
19791WAT      O59614   9.312   5.113   1.404
19791WAT     H159615   9.230   5.156   1.443
19791WAT     H259616   9.332   5.153   1.315
19792WAT      O59617   8.244   7.457   1.895
19792WAT     H159618   8.243   7.502   1.984
19792WAT     H259619   8.324   7.397   1.889
19793WAT      O59620   4.180   0.811   7.399
19793WAT     H159621   4.149   0.902   7.371
19793WAT     H259622   4.116   0.772   7.465
19794WAT      O59623   7.194   6.515   7.045
19794WAT     H159624   7.233   6.422   7.043
19794WAT     H259625   7.199   6.554   6.953
19795WAT      O59626   8.720   4.498   1.929
19795WAT     H159627   8.793   4.437   1.959
19795WAT     H259628   8.718   4.501   1.829
19796WAT      O59629   2.959   5.337   4.531
19796WAT     H159630   2.983   5.264   4.595
19796WAT     H259631   2.913   5.297   4.452
19797WAT      O59632   2.502   7.737   3.680
19797WAT     H159633   2.541   7.811   3.735
19797WAT     H259634   2.496   7.765   3.585
19798WAT      O59635   7.975   0.191   6.397
19798WAT     H159636   8.047   0.162   6.460
19798WAT     H259637   7.900   0.125   6.399
19799WAT      O59638   1.467   6.636   1.714
19799WAT     H159639   1.533   6.579   1.666
19799WAT     H259640   1.382   6.585   1.729
19800WAT      O59641   4.117   8.882   2.774
19800WAT     H159642   4.022   8.892   2.804
19800WAT     H259643   4.178   8.910   2.848
19801WAT      O59644   3.043   7.176   1.121
19801WAT     H159645   3.141   7.194   1.132
19801WAT     H259646   3.017   7.189   1.026
19802WAT      O59647   6.915   2.116   1.669
19802WAT     H159648   6.819   2.137   1.653
19802WAT     H259649   6.935   2.023   1.638
19803WAT      O59650   5.231   1.797   1.846
19803WAT     H159651   5.277   1.821   1.761
19803WAT     H259652   5.283   1.833   1.923
19804WAT      O59653   5.934   4.985   2.277
19804WAT     H159654   6.015   5.042   2.294
19804WAT     H259655   5.853   5.042   2.269
19805WAT      O59656   6.850   1.174   7.663
19805WAT     H159657   6.838   1.222   7.577
19805WAT     H259658   6.896   1.086   7.646
19806WAT      O59659   2.452   2.749   9.027
19806WAT     H159660   2.550   2.756   9.008
19806WAT     H259661   2.401   2.802   8.960
19807WAT      O59662   3.350   2.753   3.478
19807WAT     H159663   3.254   2.731   3.461
19807WAT     H259664   3.362   2.853   3.478
19808WAT      O59665   2.954   9.420   4.196
19808WAT     H159666   2.990   9.368   4.118
19808WAT     H259667   2.879   9.369   4.237
19809WAT      O59668   0.923   3.292   8.458
19809WAT     H159669   0.992   3.364   8.458
19809WAT     H259670   0.850   3.317   8.394
19810WAT      O59671   4.866   2.185   7.020
19810WAT     H159672   4.941   2.228   7.070
19810WAT     H259673   4.800   2.255   6.992
19811WAT      O59674   6.581   4.836   8.342
19811WAT     H159675   6.585   4.928   8.381
19811WAT     H259676   6.486   4.813   8.322
19812WAT      O59677   3.770   2.971   0.713
19812WAT     H159678   3.749   3.060   0.673
19812WAT     H259679   3.863   2.945   0.689
19813WAT      O59680   9.353   5.459   9.697
19813WAT     H159681   9.261   5.497   9.693
19813WAT     H259682   9.420   5.533   9.703
19814WAT      O59683   7.535   4.190   6.308
19814WAT     H159684   7.558   4.283   6.279
19814WAT     H259685   7.491   4.141   6.232
19815WAT      O59686   6.844   2.007   4.489
19815WAT     H159687   6.790   1.923   4.484
19815WAT     H259688   6.917   2.004   4.421
19816WAT      O59689   5.014   6.294   6.482
19816WAT     H159690   5.026   6.244   6.396
19816WAT     H259691   5.102   6.298   6.530
19817WAT      O59692   3.430   7.651   2.308
19817WAT     H159693   3.509   7.677   2.253
19817WAT     H259694   3.443   7.560   2.346
19818WAT      O59695   0.767   8.406   0.142
19818WAT     H159696   0.824   8.325   0.151
19818WAT     H259697   0.790   8.472   0.214
19819WAT      O59698   7.995   3.923   0.494
19819WAT     H159699   8.067   3.924   0.564
19819WAT     H259700   8.001   4.006   0.439
19820WAT      O59701   5.949   7.698   9.756
19820WAT     H159702   5.950   7.766   9.829
19820WAT     H259703   6.017   7.628   9.776
19821WAT      O59704   5.963   7.384   8.651
19821WAT     H159705   6.051   7.412   8.691
19821WAT     H259706   5.949   7.432   8.565
19822WAT      O59707   4.886   8.864   0.259
19822WAT     H159708   4.894   8.958   0.227
19822WAT     H259709   4.793   8.831   0.244
19823WAT      O59710   2.786   6.913   7.860
19823WAT     H159711   2.790   6.956   7.951
19823WAT     H259712   2.698   6.868   7.848
19824WAT      O59713   1.847   5.652   6.929
19824WAT     H159714   1.904   5.721   6.974
19824WAT     H259715   1.764   5.638   6.983
19825WAT      O59716   3.728   8.043   2.071
19825WAT     H159717   3.633   8.074   2.070
19825WAT     H259718   3.731   7.946   2.096
19826WAT      O59719   3.528   5.087   6.832
19826WAT     H159720   3.430   5.077   6.846
19826WAT     H259721   3.573   4.998   6.844
19827WAT      O59722   2.114   2.687   3.749
19827WAT     H159723   2.092   2.779   3.717
19827WAT     H259724   2.043   2.623   3.718
19828WAT      O59725   2.583   5.934   6.593
19828WAT     H159726   2.527   5.997   6.647
19828WAT     H259727   2.524   5.867   6.548
19829WAT      O59728   6.510   4.871   9.663
19829WAT     H159729   6.482   4.779   9.636
19829WAT     H259730   6.597   4.893   9.621
19830WAT      O59731   4.036   1.076   7.371
19830WAT     H159732   3.971   1.135   7.419
19830WAT     H259733   4.097   1.132   7.315
19831WAT      O59734   8.984   4.015   9.328
19831WAT     H159735   8.945   4.097   9.370
19831WAT     H259736   9.075   4.035   9.292
19832WAT      O59737   6.294   4.735   9.359
19832WAT     H159738   6.345   4.650   9.371
19832WAT     H259739   6.293   4.761   9.263
19833WAT      O59740   9.196   5.555   4.328
19833WAT     H159741   9.253   5.496   4.385
19833WAT     H259742   9.250   5.631   4.294
19834WAT      O59743   5.105   2.263   7.158
19834WAT     H159744   5.097   2.330   7.232
19834WAT     H259745   5.191   2.214   7.168
19835WAT      O59746   7.510   6.194   8.244
19835WAT     H159747   7.517   6.280   8.193
19835WAT     H259748   7.530   6.118   8.183
19836WAT      O59749   9.102   9.381   2.131
19836WAT     H159750   9.004   9.361   2.121
19836WAT     H259751   9.143   9.317   2.195
19837WAT      O59752   4.849   9.123   0.375
19837WAT     H159753   4.802   9.054   0.429
19837WAT     H259754   4.946   9.099   0.367
19838WAT      O59755   4.940   7.761   1.489
19838WAT     H159756   5.011   7.831   1.487
19838WAT     H259757   4.981   7.673   1.510
19839WAT      O59758   7.763   3.489   9.671
19839WAT     H159759   7.861   3.481   9.685
19839WAT     H259760   7.736   3.439   9.589
19840WAT      O59761   2.324   5.180   6.794
19840WAT     H159762   2.299   5.140   6.706
19840WAT     H259763   2.321   5.280   6.787
19841WAT      O59764   9.328   9.201   5.392
19841WAT     H159765   9.385   9.274   5.430
19841WAT     H259766   9.353   9.184   5.296
19842WAT      O59767   0.203   3.026   7.685
19842WAT     H159768   0.229   3.044   7.780
19842WAT     H259769   0.274   2.971   7.642
19843WAT      O59770   8.308   9.491   2.030
19843WAT     H159771   8.302   9.585   1.997
19843WAT     H259772   8.269   9.485   2.122
19844WAT      O59773   4.380   8.545   5.716
19844WAT     H159774   4.372   8.489   5.634
19844WAT     H259775   4.324   8.627   5.706
19845WAT      O59776   4.962   9.626   7.288
19845WAT     H159777   4.999   9.562   7.220
19845WAT     H259778   4.923   9.705   7.241
19846WAT      O59779   8.310   6.623   2.842
19846WAT     H159780   8.317   6.661   2.749
19846WAT     H259781   8.298   6.523   2.836
19847WAT      O59782   5.002   3.012   7.278
19847WAT     H159783   5.012   3.042   7.373
19847WAT     H259784   4.946   2.930   7.275
19848WAT      O59785   0.255   2.360   5.319
19848WAT     H159786   0.271   2.458   5.330
19848WAT     H259787   0.289   2.312   5.399
19849WAT      O59788   5.182   0.655   8.155
19849WAT     H159789   5.211   0.666   8.061
19849WAT     H259790   5.153   0.743   8.192
19850WAT      O59791   4.068   7.003   7.000
19850WAT     H159792   4.045   6.929   6.937
19850WAT     H259793   4.157   7.042   6.974
19851WAT      O59794   9.079   9.738   1.795
19851WAT     H159795   9.104   9.685   1.875
19851WAT     H259796   9.159   9.750   1.736
19852WAT      O59797   0.645   5.828   0.930
19852WAT     H159798   0.597   5.816   0.843
19852WAT     H259799   0.588   5.880   0.993
19853WAT      O59800   3.539   3.557   6.241
19853WAT     H159801   3.610   3.588   6.303
19853WAT     H259802   3.494   3.637   6.200
19854WAT      O59803   5.288   6.341   9.688
19854WAT     H159804   5.221   6.351   9.761
19854WAT     H259805   5.380   6.354   9.724
19855WAT      O59806   5.799   3.638   5.554
19855WAT     H159807   5.757   3.553   5.522
19855WAT     H259808   5.779   3.651   5.651
19856WAT      O59809   0.059   8.419   7.094
19856WAT     H159810   0.141   8.404   7.149
19856WAT     H259811  -0.022   8.412   7.152
19857WAT      O59812   1.150   6.946   5.104
19857WAT     H159813   1.150   7.013   5.030
19857WAT     H259814   1.110   6.986   5.186
19858WAT      O59815   9.621   0.396   3.611
19858WAT     H159816   9.619   0.494   3.631
19858WAT     H259817   9.716   0.366   3.601
19859WAT      O59818   0.218   3.761   4.404
19859WAT     H159819   0.197   3.714   4.490
19859WAT     H259820   0.258   3.696   4.340
19860WAT      O59821   0.518   7.663   9.554
19860WAT     H159822   0.551   7.569   9.559
19860WAT     H259823   0.453   7.680   9.628
19861WAT      O59824   3.397   8.288   2.378
19861WAT     H159825   3.466   8.358   2.392
19861WAT     H259826   3.382   8.238   2.463
19862WAT      O59827   4.946   7.814   5.627
19862WAT     H159828   4.858   7.776   5.599
19862WAT     H259829   5.018   7.780   5.566
19863WAT      O59830   0.014   2.227   6.139
19863WAT     H159831  -0.012   2.317   6.103
19863WAT     H259832   0.085   2.239   6.209
19864WAT      O59833   0.745   1.503   3.195
19864WAT     H159834   0.665   1.448   3.218
19864WAT     H259835   0.715   1.594   3.166
19865WAT      O59836   3.866   2.937   4.924
19865WAT     H159837   3.901   2.863   4.867
19865WAT     H259838   3.777   2.967   4.889
19866WAT      O59839   2.376   8.069   4.745
19866WAT     H159840   2.388   7.996   4.679
19866WAT     H259841   2.372   8.031   4.838
19867WAT      O59842   5.644   7.085   8.054
19867WAT     H159843   5.718   7.025   8.083
19867WAT     H259844   5.656   7.176   8.094
19868WAT      O59845   2.335   8.821   5.234
19868WAT     H159846   2.401   8.780   5.172
19868WAT     H259847   2.381   8.853   5.316
19869WAT      O59848   0.318   5.930   1.374
19869WAT     H159849   0.407   5.974   1.391
19869WAT     H259850   0.327   5.869   1.295
19870WAT      O59851   6.561   8.551   6.022
19870WAT     H159852   6.509   8.475   6.060
19870WAT     H259853   6.653   8.521   5.998
19871WAT      O59854   2.547   7.415   0.815
19871WAT     H159855   2.627   7.365   0.780
19871WAT     H259856   2.508   7.470   0.741
19872WAT      O59857   6.995   0.825   3.425
19872WAT     H159858   6.910   0.781   3.455
19872WAT     H259859   7.009   0.809   3.327
19873WAT      O59860   7.880   2.754   2.936
19873WAT     H159861   7.821   2.720   2.862
19873WAT     H259862   7.953   2.809   2.897
19874WAT      O59863   9.430   8.978   1.225
19874WAT     H159864   9.378   8.893   1.220
19874WAT     H259865   9.525   8.962   1.199
19875WAT      O59866   5.667   5.692   6.689
19875WAT     H159867   5.745   5.709   6.628
19875WAT     H259868   5.654   5.593   6.700
19876WAT      O59869   6.473   1.003   4.474
19876WAT     H159870   6.530   0.961   4.544
19876WAT     H259871   6.438   0.931   4.413
19877WAT      O59872   5.644   9.465   7.606
19877WAT     H159873   5.713   9.537   7.608
19877WAT     H259874   5.685   9.378   7.634
19878WAT      O59875   3.028   3.079   6.173
19878WAT     H159876   3.000   3.167   6.134
19878WAT     H259877   2.998   3.074   6.269
19879WAT      O59878   6.394   6.221   8.407
19879WAT     H159879   6.368   6.268   8.323
19879WAT     H259880   6.414   6.125   8.387
19880WAT      O59881   1.217   1.638   0.935
19880WAT     H159882   1.205   1.708   1.006
19880WAT     H259883   1.146   1.648   0.866
19881WAT      O59884   7.953   9.479   7.495
19881WAT     H159885   7.883   9.545   7.524
19881WAT     H259886   8.021   9.526   7.439
19882WAT      O59887   2.248   9.265   9.149
19882WAT     H159888   2.204   9.355   9.156
19882WAT     H259889   2.193   9.197   9.197
19883WAT      O59890   2.761   0.086   6.725
19883WAT     H159891   2.803  -0.003   6.708
19883WAT     H259892   2.733   0.127   6.638
19884WAT      O59893   6.164   9.723   6.783
19884WAT     H159894   6.128   9.631   6.796
19884WAT     H259895   6.264   9.722   6.788
19885WAT      O59896   8.376   4.904   2.355
19885WAT     H159897   8.312   4.981   2.358
19885WAT     H259898   8.390   4.868   2.447
19886WAT      O59899   8.789   1.398   5.045
19886WAT     H159900   8.695   1.419   5.074
19886WAT     H259901   8.789   1.314   4.991
19887WAT      O59902   7.128   4.277   0.650
19887WAT     H159903   7.154   4.349   0.714
19887WAT     H259904   7.112   4.192   0.700
19888WAT      O59905   5.732   2.191   7.484
19888WAT     H159906   5.667   2.115   7.480
19888WAT     H259907   5.801   2.179   7.412
19889WAT      O59908   7.878   9.047   1.480
19889WAT     H159909   7.880   9.089   1.389
19889WAT     H259910   7.787   9.059   1.520
19890WAT      O59911   0.984   6.102   2.112
19890WAT     H159912   0.895   6.079   2.151
19890WAT     H259913   1.056   6.066   2.171
19891WAT      O59914   7.124   9.718   2.059
19891WAT     H159915   7.077   9.776   2.127
19891WAT     H259916   7.222   9.722   2.074
19892WAT      O59917   3.110   6.377   1.867
19892WAT     H159918   3.153   6.310   1.928
19892WAT     H259919   3.180   6.429   1.819
19893WAT      O59920   8.419   9.745   5.038
19893WAT     H159921   8.384   9.836   5.015
19893WAT     H259922   8.380   9.716   5.126
19894WAT      O59923   4.212   2.075   9.832
19894WAT     H159924   4.236   1.989   9.878
19894WAT     H259925   4.161   2.055   9.749
19895WAT      O59926   4.464   7.369   9.293
19895WAT     H159927   4.457   7.377   9.194
19895WAT     H259928   4.512   7.284   9.316
19896WAT      O59929   8.627   6.621   3.112
19896WAT     H159930   8.685   6.540   3.113
19896WAT     H259931   8.657   6.684   3.185
19897WAT      O59932   0.204   7.865   6.923
19897WAT     H159933   0.202   7.965   6.913
19897WAT     H259934   0.219   7.841   7.019
19898WAT      O59935   7.897   0.161   4.642
19898WAT     H159936   7.842   0.077   4.646
19898WAT     H259937   7.843   0.234   4.600
19899WAT      O59938   4.267   6.862   6.030
19899WAT     H159939   4.286   6.896   6.122
19899WAT     H259940   4.241   6.765   6.035
19900WAT      O59941   3.768   3.569   2.434
19900WAT     H159942   3.695   3.615   2.486
19900WAT     H259943   3.791   3.625   2.354
19901WAT      O59944   8.429   5.590   3.001
19901WAT     H159945   8.388   5.503   3.029
19901WAT     H259946   8.427   5.654   3.077
19902WAT      O59947   6.057   9.549   7.932
19902WAT     H159948   6.150   9.517   7.952
19902WAT     H259949   6.036   9.629   7.988
19903WAT      O59950   0.204   7.572   6.204
19903WAT     H159951   0.267   7.500   6.235
19903WAT     H259952   0.119   7.530   6.171
19904WAT      O59953   3.105   3.366   0.952
19904WAT     H159954   3.072   3.409   1.036
19904WAT     H259955   3.057   3.279   0.938
19905WAT      O59956   4.083   0.500   1.514
19905WAT     H159957   4.109   0.596   1.524
19905WAT     H259958   4.026   0.489   1.432
19906WAT      O59959   4.963   7.409   6.641
19906WAT     H159960   4.901   7.487   6.642
19906WAT     H259961   5.047   7.433   6.592
19907WAT      O59962   2.257   5.461   0.142
19907WAT     H159963   2.247   5.371   0.098
19907WAT     H259964   2.276   5.529   0.072
19908WAT      O59965   4.752   5.147   7.466
19908WAT     H159966   4.831   5.171   7.522
19908WAT     H259967   4.734   5.049   7.473
19909WAT      O59968   2.609   9.103   9.392
19909WAT     H159969   2.513   9.125   9.407
19909WAT     H259970   2.636   9.029   9.454
19910WAT      O59971   5.219   5.590   9.199
19910WAT     H159972   5.253   5.602   9.105
19910WAT     H259973   5.180   5.676   9.231
19911WAT      O59974   3.242   8.243   0.380
19911WAT     H159975   3.181   8.260   0.303
19911WAT     H259976   3.188   8.238   0.464
19912WAT      O59977   4.298   8.915   3.984
19912WAT     H159978   4.294   8.975   3.905
19912WAT     H259979   4.394   8.900   4.010
19913WAT      O59980   3.632   7.875   8.057
19913WAT     H159981   3.654   7.777   8.055
19913WAT     H259982   3.535   7.888   8.038
19914WAT      O59983   5.528   8.719   7.059
19914WAT     H159984   5.603   8.757   7.006
19914WAT     H259985   5.474   8.793   7.099
19915WAT      O59986   6.476   5.493   7.924
19915WAT     H159987   6.539   5.546   7.867
19915WAT     H259988   6.385   5.494   7.882
19916WAT      O59989   0.834   8.337   8.062
19916WAT     H159990   0.848   8.297   7.971
19916WAT     H259991   0.863   8.271   8.132
19917WAT      O59992   2.973   1.190   6.350
19917WAT     H159993   3.031   1.168   6.429
19917WAT     H259994   2.974   1.114   6.285
19918WAT      O59995   4.242   1.553   8.759
19918WAT     H159996   4.341   1.540   8.751
19918WAT     H259997   4.217   1.643   8.723
19919WAT      O59998   3.535   7.851   1.685
19919WAT     H159999   3.559   7.943   1.715
19919WAT     H260000   3.510   7.854   1.588
19920WAT      O60001   0.240   7.336   8.529
19920WAT     H160002   0.310   7.360   8.463
19920WAT     H260003   0.277   7.341   8.622
19921WAT      O60004   7.827   7.840   5.188
19921WAT     H160005   7.910   7.861   5.241
19921WAT     H260006   7.823   7.899   5.107
19922WAT      O60007   8.034   3.464   9.709
19922WAT     H160008   8.053   3.381   9.656
19922WAT     H260009   8.086   3.462   9.794
19923WAT      O60010   0.183   1.804   7.792
19923WAT     H160011   0.089   1.839   7.798
19923WAT     H260012   0.226   1.842   7.710
19924WAT      O60013   6.588   9.262   5.690
19924WAT     H160014   6.623   9.190   5.630
19924WAT     H260015   6.645   9.269   5.771
19925WAT      O60016   0.750   1.882   7.600
19925WAT     H160017   0.673   1.822   7.582
19925WAT     H260018   0.835   1.830   7.593
19926WAT      O60019   6.711   3.875   5.444
19926WAT     H160020   6.669   3.909   5.360
19926WAT     H260021   6.800   3.918   5.457
19927WAT      O60022   2.957   6.118   4.484
19927WAT     H160023   2.898   6.143   4.407
19927WAT     H260024   2.918   6.038   4.531
19928WAT      O60025   9.138   6.299   3.765
19928WAT     H160026   9.226   6.336   3.739
19928WAT     H260027   9.125   6.309   3.864
19929WAT      O60028   4.439   7.036   1.198
19929WAT     H160029   4.360   6.977   1.184
19929WAT     H260030   4.500   6.996   1.266
19930WAT      O60031   3.793   1.499   1.291
19930WAT     H160032   3.872   1.443   1.268
19930WAT     H260033   3.735   1.510   1.210
19931WAT      O60034   5.919   7.178   2.156
19931WAT     H160035   5.886   7.254   2.101
19931WAT     H260036   5.884   7.186   2.249
19932WAT      O60037   3.338   2.843   5.161
19932WAT     H160038   3.328   2.940   5.138
19932WAT     H260039   3.399   2.800   5.095
19933WAT      O60040   3.825   8.310   1.451
19933WAT     H160041   3.835   8.214   1.478
19933WAT     H260042   3.807   8.365   1.533
19934WAT      O60043   1.050   8.226   7.116
19934WAT     H160044   0.954   8.215   7.141
19934WAT     H260045   1.099   8.269   7.191
19935WAT      O60046   5.968   3.573   8.784
19935WAT     H160047   5.946   3.670   8.800
19935WAT     H260048   6.041   3.567   8.715
19936WAT      O60049   2.597   7.630   0.282
19936WAT     H160050   2.672   7.631   0.348
19936WAT     H260051   2.511   7.648   0.329
19937WAT      O60052   0.347   4.377   4.471
19937WAT     H160053   0.265   4.408   4.519
19937WAT     H260054   0.321   4.322   4.392
19938WAT      O60055   6.592   8.348   6.346
19938WAT     H160056   6.505   8.364   6.301
19938WAT     H260057   6.578   8.291   6.427
19939WAT      O60058   0.821   5.303   7.809
19939WAT     H160059   0.845   5.212   7.844
19939WAT     H260060   0.737   5.334   7.853
19940WAT      O60061   7.814   3.384   8.788
19940WAT     H160062   7.811   3.404   8.886
19940WAT     H260063   7.832   3.287   8.774
19941WAT      O60064   2.284   6.266   0.495
19941WAT     H160065   2.247   6.184   0.450
19941WAT     H260066   2.250   6.270   0.589
19942WAT      O60067   4.654   1.359   6.832
19942WAT     H160068   4.742   1.350   6.878
19942WAT     H260069   4.657   1.435   6.767
19943WAT      O60070   8.615   1.788   6.630
19943WAT     H160071   8.568   1.875   6.647
19943WAT     H260072   8.583   1.720   6.695
19944WAT      O60073   6.739   7.490   0.993
19944WAT     H160074   6.732   7.556   0.919
19944WAT     H260075   6.765   7.536   1.078
19945WAT      O60076   8.437   8.455   0.677
19945WAT     H160077   8.393   8.540   0.707
19945WAT     H260078   8.396   8.377   0.724
19946WAT      O60079   6.943   2.600   3.327
19946WAT     H160080   6.898   2.594   3.416
19946WAT     H260081   6.932   2.692   3.291
19947WAT      O60082   6.389   5.175   5.189
19947WAT     H160083   6.348   5.219   5.270
19947WAT     H260084   6.409   5.079   5.210
19948WAT      O60085   1.717   1.147   1.019
19948WAT     H160086   1.807   1.148   0.975
19948WAT     H260087   1.652   1.197   0.961
19949WAT      O60088   2.202   3.361   9.575
19949WAT     H160089   2.294   3.362   9.537
19949WAT     H260090   2.136   3.382   9.502
19950WAT      O60091   7.333   7.317   6.240
19950WAT     H160092   7.287   7.368   6.167
19950WAT     H260093   7.432   7.328   6.231
19951WAT      O60094   6.379   3.558   9.331
19951WAT     H160095   6.443   3.490   9.367
19951WAT     H260096   6.287   3.518   9.325
19952WAT      O60097   5.400   7.108   5.318
19952WAT     H160098   5.332   7.176   5.344
19952WAT     H260099   5.491   7.147   5.327
19953WAT      O60100   2.100   3.652   4.924
19953WAT     H160101   2.070   3.727   4.865
19953WAT     H260102   2.091   3.565   4.876
19954WAT      O60103   9.001   1.404   8.708
19954WAT     H160104   8.959   1.353   8.783
19954WAT     H260105   9.094   1.370   8.692
19955WAT      O60106   8.367   0.184   8.140
19955WAT     H160107   8.279   0.151   8.105
19955WAT     H260108   8.434   0.109   8.136
19956WAT      O60109   4.824   3.024   0.856
19956WAT     H160110   4.887   3.001   0.782
19956WAT     H260111   4.736   3.053   0.818
19957WAT      O60112   6.660   4.010   5.853
19957WAT     H160113   6.655   3.938   5.784
19957WAT     H260114   6.570   4.050   5.866
19958WAT      O60115   9.750   7.804   7.646
19958WAT     H160116   9.758   7.807   7.547
19958WAT     H260117   9.719   7.713   7.675
19959WAT      O60118   6.858   1.018   7.306
19959WAT     H160119   6.833   1.111   7.332
19959WAT     H260120   6.905   0.973   7.382
19960WAT      O60121   8.190   1.487   8.961
19960WAT     H160122   8.239   1.437   8.891
19960WAT     H260123   8.249   1.500   9.041
19961WAT      O60124   3.514   6.827   0.489
19961WAT     H160125   3.433   6.869   0.530
19961WAT     H260126   3.586   6.895   0.479
19962WAT      O60127   5.815   8.690   0.755
19962WAT     H160128   5.748   8.764   0.745
19962WAT     H260129   5.892   8.722   0.810
19963WAT      O60130   1.841   1.642   2.329
19963WAT     H160131   1.879   1.721   2.376
19963WAT     H260132   1.904   1.564   2.337
19964WAT      O60133   1.671   6.178   5.544
19964WAT     H160134   1.574   6.202   5.544
19964WAT     H260135   1.683   6.087   5.586
19965WAT      O60136   2.094   7.178   2.267
19965WAT     H160137   2.075   7.095   2.319
19965WAT     H260138   2.158   7.156   2.193
19966WAT      O60139   4.830   5.191   2.221
19966WAT     H160140   4.760   5.122   2.203
19966WAT     H260141   4.918   5.159   2.186
19967WAT      O60142   3.575   2.800   9.725
19967WAT     H160143   3.565   2.877   9.662
19967WAT     H260144   3.493   2.743   9.722
19968WAT      O60145   5.885   3.921   8.266
19968WAT     H160146   5.881   3.840   8.208
19968WAT     H260147   5.942   3.901   8.346
19969WAT      O60148   6.550   5.310   9.792
19969WAT     H160149   6.605   5.282   9.871
19969WAT     H260150   6.554   5.238   9.722
19970WAT      O60151   6.667   2.327   3.245
19970WAT     H160152   6.639   2.365   3.158
19970WAT     H260153   6.752   2.276   3.234
19971WAT      O60154   3.256   6.750   0.361
19971WAT     H160155   3.286   6.655   0.370
19971WAT     H260156   3.307   6.794   0.287
19972WAT      O60157   0.221   2.464   1.383
19972WAT     H160158   0.144   2.452   1.446
19972WAT     H260159   0.273   2.379   1.378
19973WAT      O60160   3.453   8.693   4.729
19973WAT     H160161   3.439   8.757   4.805
19973WAT     H260162   3.477   8.603   4.765
19974WAT      O60163   9.306   8.155   8.072
19974WAT     H160164   9.255   8.184   7.991
19974WAT     H260165   9.399   8.130   8.045
19975WAT      O60166   1.006   0.423   2.564
19975WAT     H160167   0.952   0.458   2.640
19975WAT     H260168   1.036   0.330   2.583
19976WAT      O60169   9.204   6.798   1.603
19976WAT     H160170   9.163   6.875   1.653
19976WAT     H260171   9.291   6.828   1.563
19977WAT      O60172   8.087   9.483   9.416
19977WAT     H160173   8.052   9.397   9.378
19977WAT     H260174   8.073   9.557   9.351
19978WAT      O60175   1.166   9.424   5.719
19978WAT     H160176   1.205   9.496   5.777
19978WAT     H260177   1.200   9.435   5.626
19979WAT      O60178   4.303   3.245   0.152
19979WAT     H160179   4.380   3.183   0.168
19979WAT     H260180   4.219   3.192   0.143
19980WAT      O60181   1.910   6.263   0.172
19980WAT     H160182   1.850   6.241   0.096
19980WAT     H260183   1.924   6.181   0.228
19981WAT      O60184   3.071   5.632   0.886
19981WAT     H160185   2.998   5.687   0.926
19981WAT     H260186   3.042   5.536   0.881
19982WAT      O60187   2.649   8.193   4.982
19982WAT     H160188   2.685   8.155   4.897
19982WAT     H260189   2.621   8.288   4.967
19983WAT      O60190   6.750   7.832   9.621
19983WAT     H160191   6.839   7.856   9.583
19983WAT     H260192   6.760   7.810   9.718
19984WAT      O60193   9.827   7.006   8.851
19984WAT     H160194   9.771   6.941   8.903
19984WAT     H260195   9.916   7.016   8.895
19985WAT      O60196   4.427   9.337   3.562
19985WAT     H160197   4.330   9.354   3.548
19985WAT     H260198   4.446   9.336   3.660
19986WAT      O60199   5.177   6.333   3.873
19986WAT     H160200   5.250   6.313   3.937
19986WAT     H260201   5.183   6.271   3.795
19987WAT      O60202   1.030   4.212   5.534
19987WAT     H160203   1.043   4.310   5.522
19987WAT     H260204   1.064   4.164   5.453
19988WAT      O60205   1.017   4.151   3.157
19988WAT     H160206   0.931   4.201   3.156
19988WAT     H260207   1.026   4.101   3.244
19989WAT      O60208   8.938   7.941   8.059
19989WAT     H160209   8.994   7.859   8.070
19989WAT     H260210   8.847   7.924   8.096
19990WAT      O60211   5.244   0.615   8.952
19990WAT     H160212   5.309   0.633   8.878
19990WAT     H260213   5.196   0.529   8.934
19991WAT      O60214   9.871   3.496   3.335
19991WAT     H160215   9.877   3.480   3.237
19991WAT     H260216   9.779   3.472   3.367
19992WAT      O60217   8.151   6.990   4.608
19992WAT     H160218   8.074   7.053   4.601
19992WAT     H260219   8.117   6.898   4.628
19993WAT      O60220   9.881   7.840   6.390
19993WAT     H160221   9.964   7.796   6.355
19993WAT     H260222   9.819   7.770   6.427
19994WAT      O60223   4.864   9.275   1.047
19994WAT     H160224   4.861   9.267   0.948
19994WAT     H260225   4.862   9.184   1.089
19995WAT      O60226   3.079   3.393   3.683
19995WAT     H160227   3.012   3.468   3.686
19995WAT     H260228   3.122   3.391   3.593
19996WAT      O60229   7.155   5.759   0.747
19996WAT     H160230   7.227   5.702   0.787
19996WAT     H260231   7.091   5.787   0.819
19997WAT      O60232   3.391   3.893   2.641
19997WAT     H160233   3.477   3.886   2.590
19997WAT     H260234   3.360   3.801   2.667
19998WAT      O60235   2.138   0.500   7.070
19998WAT     H160236   2.078   0.527   6.995
19998WAT     H260237   2.174   0.582   7.115
19999WAT      O60238   7.154   5.197   1.126
19999WAT     H160239   7.057   5.174   1.119
19999WAT     H260240   7.183   5.191   1.222
20000WAT      O60241   4.181   8.051   4.310
20000WAT     H160242   4.274   8.079   4.333
20000WAT     H260243   4.184   7.985   4.235
20001WAT      O60244   2.802   3.650   6.494
20001WAT     H160245   2.860   3.620   6.417
20001WAT     H260246   2.789   3.573   6.557
20002WAT      O60247   5.046   0.532   6.842
20002WAT     H160248   5.081   0.445   6.877
20002WAT     H260249   5.120   0.599   6.840
20003WAT      O60250   6.131   3.366   5.231
20003WAT     H160251   6.203   3.409   5.285
20003WAT     H260252   6.049   3.425   5.230
20004WAT      O60253   3.899   5.959   2.188
20004WAT     H160254   3.964   6.020   2.143
20004WAT     H260255   3.908   5.969   2.287
20005WAT      O60256   4.677   1.617   3.849
20005WAT     H160257   4.776   1.613   3.835
20005WAT     H260258   4.634   1.542   3.799
20006WAT      O60259   4.481   9.098   9.491
20006WAT     H160260   4.541   9.067   9.565
20006WAT     H260261   4.434   9.181   9.520
20007WAT      O60262   2.344   5.057   4.896
20007WAT     H160263   2.408   5.097   4.831
20007WAT     H260264   2.268   5.015   4.847
20008WAT      O60265   3.334   1.436   7.894
20008WAT     H160266   3.263   1.375   7.861
20008WAT     H260267   3.307   1.475   7.982
20009WAT      O60268   8.927   0.656   1.181
20009WAT     H160269   8.967   0.576   1.225
20009WAT     H260270   8.830   0.638   1.163
20010WAT      O60271   4.203   0.960   3.248
20010WAT     H160272   4.182   0.925   3.339
20010WAT     H260273   4.132   1.025   3.221
20011WAT      O60274   6.468   1.234   1.102
20011WAT     H160275   6.503   1.195   1.017
20011WAT     H260276   6.466   1.164   1.173
20012WAT      O60277   1.002   7.404   1.426
20012WAT     H160278   1.030   7.347   1.503
20012WAT     H260279   1.084   7.434   1.376
20013WAT      O60280   7.362   5.422   7.275
20013WAT     H160281   7.298   5.485   7.319
20013WAT     H260282   7.315   5.371   7.204
20014WAT      O60283   3.157   8.793   7.010
20014WAT     H160284   3.208   8.874   6.981
20014WAT     H260285   3.130   8.740   6.929
20015WAT      O60286   0.403   4.784   0.450
20015WAT     H160287   0.368   4.717   0.516
20015WAT     H260288   0.328   4.818   0.394
20016WAT      O60289   4.296   3.533   6.046
20016WAT     H160290   4.389   3.563   6.026
20016WAT     H260291   4.298   3.463   6.117
20017WAT      O60292   9.440   3.866   9.670
20017WAT     H160293   9.426   3.954   9.716
20017WAT     H260294   9.380   3.797   9.711
20018WAT      O60295   4.510   2.772   4.687
20018WAT     H160296   4.481   2.864   4.712
20018WAT     H260297   4.443   2.705   4.719
20019WAT      O60298   1.321   6.965   4.656
20019WAT     H160299   1.268   6.884   4.628
20019WAT     H260300   1.326   7.029   4.579
20020WAT      O60301   9.524   4.705   6.925
20020WAT     H160302   9.597   4.772   6.934
20020WAT     H260303   9.480   4.690   7.014
20021WAT      O60304   6.688   1.718   0.141
20021WAT     H160305   6.658   1.708   0.236
20021WAT     H260306   6.775   1.767   0.138
20022WAT      O60307   0.521   4.861   5.038
20022WAT     H160308   0.550   4.902   4.951
20022WAT     H260309   0.428   4.890   5.059
20023WAT      O60310   0.307   6.669   2.115
20023WAT     H160311   0.279   6.663   2.019
20023WAT     H260312   0.375   6.599   2.135
20024WAT      O60313   7.173   4.927   6.861
20024WAT     H160314   7.085   4.968   6.884
20024WAT     H260315   7.197   4.950   6.767
20025WAT      O60316   0.801   1.326   6.845
20025WAT     H160317   0.888   1.283   6.822
20025WAT     H260318   0.763   1.370   6.764
20026WAT      O60319   0.492   3.105   0.642
20026WAT     H160320   0.450   3.049   0.713
20026WAT     H260321   0.559   3.051   0.591
20027WAT      O60322   6.832   8.284   8.026
20027WAT     H160323   6.834   8.185   8.039
20027WAT     H260324   6.778   8.306   7.945
20028WAT      O60325   9.513   2.474   9.206
20028WAT     H160326   9.589   2.525   9.248
20028WAT     H260327   9.441   2.538   9.181
20029WAT      O60328   7.784   2.153   5.822
20029WAT     H160329   7.700   2.145   5.877
20029WAT     H260330   7.797   2.248   5.795
20030WAT      O60331   7.546   7.201   5.959
20030WAT     H160332   7.571   7.286   6.006
20030WAT     H260333   7.611   7.129   5.982
20031WAT      O60334   9.285   5.792   4.175
20031WAT     H160335   9.300   5.821   4.080
20031WAT     H260336   9.350   5.839   4.235
20032WAT      O60337   5.714   7.543   1.192
20032WAT     H160338   5.646   7.616   1.181
20032WAT     H260339   5.706   7.479   1.116
20033WAT      O60340   7.314   6.494   1.411
20033WAT     H160341   7.279   6.472   1.502
20033WAT     H260342   7.319   6.411   1.356
20034WAT      O60343   4.792   8.481   3.978
20034WAT     H160344   4.878   8.435   3.956
20034WAT     H260345   4.796   8.517   4.071
20035WAT      O60346   4.913   8.035   3.149
20035WAT     H160347   4.831   8.012   3.095
20035WAT     H260348   4.975   7.956   3.150
20036WAT      O60349   8.065   4.003   4.730
20036WAT     H160350   8.115   4.079   4.773
20036WAT     H260351   7.980   4.039   4.690
20037WAT      O60352   5.537   8.996   0.448
20037WAT     H160353   5.584   8.951   0.524
20037WAT     H260354   5.552   8.945   0.364
20038WAT      O60355   8.064   1.828   1.851
20038WAT     H160356   8.148   1.860   1.896
20038WAT     H260357   8.039   1.892   1.778
20039WAT      O60358   7.930   5.142   6.062
20039WAT     H160359   7.923   5.187   5.973
20039WAT     H260360   7.840   5.104   6.087
20040WAT      O60361   9.748   1.248   7.764
20040WAT     H160362   9.808   1.173   7.738
20040WAT     H260363   9.716   1.235   7.858
20041WAT      O60364   0.881   1.255   5.111
20041WAT     H160365   0.979   1.270   5.103
20041WAT     H260366   0.846   1.303   5.192
20042WAT      O60367   2.842   7.495   9.678
20042WAT     H160368   2.813   7.544   9.760
20042WAT     H260369   2.929   7.532   9.646
20043WAT      O60370   7.529   3.124   1.025
20043WAT     H160371   7.547   3.115   1.123
20043WAT     H260372   7.592   3.190   0.986
20044WAT      O60373   9.846   6.808   7.116
20044WAT     H160374   9.765   6.788   7.061
20044WAT     H260375   9.918   6.845   7.057
20045WAT      O60376   9.843   7.868   8.216
20045WAT     H160377   9.862   7.771   8.201
20045WAT     H260378   9.840   7.915   8.128
20046WAT      O60379   0.951   7.641   7.127
20046WAT     H160380   0.936   7.625   7.029
20046WAT     H260381   1.046   7.621   7.150
20047WAT      O60382   1.397   3.769   7.402
20047WAT     H160383   1.406   3.810   7.492
20047WAT     H260384   1.353   3.834   7.339
20048WAT      O60385   8.504   4.177   7.029
20048WAT     H160386   8.411   4.195   7.058
20048WAT     H260387   8.505   4.155   6.931
20049WAT      O60388   9.587   4.842   5.838
20049WAT     H160389   9.519   4.880   5.900
20049WAT     H260390   9.541   4.794   5.763
20050WAT      O60391   3.955   0.515   8.962
20050WAT     H160392   4.016   0.436   8.949
20050WAT     H260393   3.861   0.488   8.943
20051WAT      O60394   7.087   7.843   8.899
20051WAT     H160395   7.108   7.782   8.975
20051WAT     H260396   7.011   7.903   8.924
20052WAT      O60397   7.356   6.200   6.631
20052WAT     H160398   7.300   6.263   6.577
20052WAT     H260399   7.443   6.243   6.653
20053WAT      O60400   1.208   4.255   5.088
20053WAT     H160401   1.124   4.210   5.056
20053WAT     H260402   1.186   4.347   5.121
20054WAT      O60403   9.324   7.954   9.006
20054WAT     H160404   9.320   7.948   8.906
20054WAT     H260405   9.350   8.046   9.033
20055WAT      O60406   2.250   6.784   4.566
20055WAT     H160407   2.183   6.711   4.577
20055WAT     H260408   2.211   6.870   4.601
20056WAT      O60409   1.060   0.105   7.936
20056WAT     H160410   1.104   0.023   7.971
20056WAT     H260411   0.967   0.112   7.973
20057WAT      O60412   2.143   1.663   3.055
20057WAT     H160413   2.142   1.744   3.115
20057WAT     H260414   2.229   1.661   3.004
20058WAT      O60415   9.453   4.252   1.339
20058WAT     H160416   9.404   4.270   1.424
20058WAT     H260417   9.549   4.280   1.348
20059WAT      O60418   9.493   9.690   4.414
20059WAT     H160419   9.429   9.685   4.491
20059WAT     H260420   9.554   9.769   4.427
20060WAT      O60421   0.169   6.731   2.610
20060WAT     H160422   0.120   6.750   2.525
20060WAT     H260423   0.266   6.751   2.598
20061WAT      O60424   5.899   3.486   4.595
20061WAT     H160425   5.987   3.475   4.549
20061WAT     H260426   5.909   3.466   4.692
20062WAT      O60427   3.430   9.174   1.028
20062WAT     H160428   3.401   9.196   0.935
20062WAT     H260429   3.349   9.167   1.087
20063WAT      O60430   5.202   5.359   1.734
20063WAT     H160431   5.113   5.404   1.731
20063WAT     H260432   5.225   5.325   1.643
20064WAT      O60433   2.112   3.672   7.531
20064WAT     H160434   2.184   3.635   7.590
20064WAT     H260435   2.110   3.771   7.540
20065WAT      O60436   6.547   2.616   3.789
20065WAT     H160437   6.612   2.665   3.731
20065WAT     H260438   6.521   2.530   3.746
20066WAT      O60439   6.305   1.684   9.158
20066WAT     H160440   6.249   1.748   9.210
20066WAT     H260441   6.384   1.656   9.212
20067WAT      O60442   9.088   6.376   7.055
20067WAT     H160443   9.002   6.385   7.105
20067WAT     H260444   9.126   6.467   7.037
20068WAT      O60445   4.521   3.364   3.217
20068WAT     H160446   4.482   3.376   3.309
20068WAT     H260447   4.447   3.358   3.151
20069WAT      O60448   8.024   6.914   8.342
20069WAT     H160449   8.040   7.000   8.390
20069WAT     H260450   7.953   6.862   8.390
20070WAT      O60451   7.658   4.692   4.542
20070WAT     H160452   7.560   4.680   4.557
20070WAT     H260453   7.710   4.630   4.601
20071WAT      O60454   3.002   8.515   2.253
20071WAT     H160455   3.067   8.582   2.218
20071WAT     H260456   3.048   8.427   2.263
20072WAT      O60457   4.275   6.084   2.644
20072WAT     H160458   4.309   6.170   2.683
20072WAT     H260459   4.279   6.089   2.544
20073WAT      O60460   0.257   5.699   0.852
20073WAT     H160461   0.231   5.607   0.880
20073WAT     H260462   0.288   5.751   0.932
20074WAT      O60463   2.178   0.937   2.198
20074WAT     H160464   2.225   1.023   2.217
20074WAT     H260465   2.081   0.954   2.182
20075WAT      O60466   6.917   3.406   6.701
20075WAT     H160467   6.839   3.351   6.669
20075WAT     H260468   6.998   3.383   6.647
20076WAT      O60469   3.091   7.317   3.689
20076WAT     H160470   3.019   7.260   3.651
20076WAT     H260471   3.180   7.285   3.658
20077WAT      O60472   5.493   2.606   1.373
20077WAT     H160473   5.532   2.628   1.283
20077WAT     H260474   5.492   2.689   1.429
20078WAT      O60475   8.308   9.443   4.397
20078WAT     H160476   8.346   9.366   4.449
20078WAT     H260477   8.210   9.450   4.414
20079WAT      O60478   4.231   7.658   3.504
20079WAT     H160479   4.174   7.668   3.423
20079WAT     H260480   4.236   7.745   3.552
20080WAT      O60481   2.340   5.833   1.861
20080WAT     H160482   2.407   5.758   1.854
20080WAT     H260483   2.382   5.910   1.910
20081WAT      O60484   9.412   1.038   4.608
20081WAT     H160485   9.421   1.084   4.520
20081WAT     H260486   9.426   1.105   4.682
20082WAT      O60487   1.534   0.075   1.158
20082WAT     H160488   1.544   0.094   1.255
20082WAT     H260489   1.592  -0.003   1.133
20083WAT      O60490   5.650   3.046   6.118
20083WAT     H160491   5.671   3.053   6.216
20083WAT     H260492   5.597   3.126   6.090
20084WAT      O60493   1.451   6.004   9.723
20084WAT     H160494   1.358   5.995   9.759
20084WAT     H260495   1.484   5.914   9.694
20085WAT      O60496   7.862   1.412   8.578
20085WAT     H160497   7.788   1.373   8.634
20085WAT     H260498   7.852   1.512   8.576
20086WAT      O60499   1.134   6.581   1.375
20086WAT     H160500   1.116   6.621   1.286
20086WAT     H260501   1.086   6.494   1.384
20087WAT      O60502   8.016   7.811   7.528
20087WAT     H160503   7.998   7.808   7.430
20087WAT     H260504   7.929   7.816   7.577
20088WAT      O60505   9.033   6.084   4.792
20088WAT     H160506   8.980   6.162   4.824
20088WAT     H260507   9.131   6.105   4.799
20089WAT      O60508   0.676   6.793   7.719
20089WAT     H160509   0.626   6.724   7.772
20089WAT     H260510   0.615   6.833   7.650
20090WAT      O60511   8.006   6.058   6.842
20090WAT     H160512   7.977   5.964   6.824
20090WAT     H260513   8.103   6.060   6.863
20091WAT      O60514   9.561   8.118   2.158
20091WAT     H160515   9.530   8.065   2.079
20091WAT     H260516   9.610   8.058   2.221
20092WAT      O60517   6.129   8.549   6.367
20092WAT     H160518   6.095   8.615   6.299
20092WAT     H260519   6.196   8.595   6.426
20093WAT      O60520   9.427   7.878   8.458
20093WAT     H160521   9.496   7.854   8.526
20093WAT     H260522   9.463   7.946   8.396
20094WAT      O60523   5.759   0.846   8.411
20094WAT     H160524   5.845   0.885   8.445
20094WAT     H260525   5.725   0.778   8.476
20095WAT      O60526   0.243   0.560   5.556
20095WAT     H160527   0.184   0.569   5.637
20095WAT     H260528   0.274   0.466   5.548
20096WAT      O60529   2.223   0.249   3.348
20096WAT     H160530   2.197   0.180   3.281
20096WAT     H260531   2.157   0.324   3.347
20097WAT      O60532   8.261   7.258   0.496
20097WAT     H160533   8.340   7.257   0.434
20097WAT     H260534   8.288   7.224   0.585
20098WAT      O60535   8.725   3.378   0.121
20098WAT     H160536   8.696   3.343   0.210
20098WAT     H260537   8.760   3.471   0.132
20099WAT      O60538   5.137   9.732   3.251
20099WAT     H160539   5.193   9.650   3.263
20099WAT     H260540   5.073   9.716   3.175
20100WAT      O60541   1.697   8.384   8.308
20100WAT     H160542   1.665   8.295   8.342
20100WAT     H260543   1.755   8.370   8.228
20101WAT      O60544   9.314   0.688   7.763
20101WAT     H160545   9.284   0.596   7.740
20101WAT     H260546   9.336   0.694   7.860
20102WAT      O60547   3.959   7.889   3.579
20102WAT     H160548   4.059   7.884   3.578
20102WAT     H260549   3.924   7.852   3.665
20103WAT      O60550   8.136   3.785   9.706
20103WAT     H160551   8.126   3.688   9.685
20103WAT     H260552   8.153   3.796   9.804
20104WAT      O60553   7.133   9.536   4.861
20104WAT     H160554   7.065   9.568   4.928
20104WAT     H260555   7.208   9.490   4.910
20105WAT      O60556   1.484   5.723   8.340
20105WAT     H160557   1.507   5.661   8.265
20105WAT     H260558   1.554   5.794   8.348
20106WAT      O60559   4.447   9.725   7.046
20106WAT     H160560   4.347   9.724   7.057
20106WAT     H260561   4.472   9.671   6.966
20107WAT      O60562   8.264   4.981   5.272
20107WAT     H160563   8.291   4.998   5.367
20107WAT     H260564   8.183   5.036   5.250
20108WAT      O60565   3.094   5.391   9.609
20108WAT     H160566   3.174   5.412   9.554
20108WAT     H260567   3.076   5.466   9.672
20109WAT      O60568   2.284   7.198   8.373
20109WAT     H160569   2.315   7.118   8.322
20109WAT     H260570   2.347   7.274   8.357
20110WAT      O60571   5.342   5.277   9.716
20110WAT     H160572   5.423   5.308   9.666
20110WAT     H260573   5.274   5.351   9.718
20111WAT      O60574   1.049   5.371   3.027
20111WAT     H160575   0.956   5.378   2.990
20111WAT     H260576   1.051   5.406   3.120
20112WAT      O60577   7.130   6.914   4.469
20112WAT     H160578   7.039   6.894   4.505
20112WAT     H260579   7.199   6.865   4.522
20113WAT      O60580   2.103   2.084   0.356
20113WAT     H160581   2.081   2.117   0.448
20113WAT     H260582   2.201   2.064   0.350
20114WAT      O60583   9.387   3.511   5.490
20114WAT     H160584   9.442   3.587   5.525
20114WAT     H260585   9.429   3.475   5.407
20115WAT      O60586   7.916   4.648   3.687
20115WAT     H160587   7.924   4.586   3.609
20115WAT     H260588   7.888   4.596   3.768
20116WAT      O60589   0.349   6.819   5.590
20116WAT     H160590   0.259   6.862   5.597
20116WAT     H260591   0.391   6.845   5.503
20117WAT      O60592   8.388   5.450   9.086
20117WAT     H160593   8.339   5.538   9.093
20117WAT     H260594   8.322   5.375   9.087
20118WAT      O60595   5.895   8.464   1.591
20118WAT     H160596   5.894   8.423   1.682
20118WAT     H260597   5.983   8.444   1.547
20119WAT      O60598   1.160   3.551   2.152
20119WAT     H160599   1.199   3.488   2.085
20119WAT     H260600   1.163   3.509   2.243
20120WAT      O60601   7.630   8.878   5.679
20120WAT     H160602   7.707   8.865   5.616
20120WAT     H260603   7.646   8.960   5.735
20121WAT      O60604   4.831   6.571   7.426
20121WAT     H160605   4.801   6.488   7.380
20121WAT     H260606   4.931   6.575   7.426
20122WAT      O60607   8.420   6.270   5.620
20122WAT     H160608   8.354   6.335   5.583
20122WAT     H260609   8.483   6.318   5.681
20123WAT      O60610   9.417   9.707   3.215
20123WAT     H160611   9.356   9.631   3.237
20123WAT     H260612   9.459   9.691   3.126
20124WAT      O60613   5.727   3.885   4.634
20124WAT     H160614   5.690   3.807   4.685
20124WAT     H260615   5.656   3.923   4.574
20125WAT      O60616   1.349   4.397   2.827
20125WAT     H160617   1.444   4.402   2.857
20125WAT     H260618   1.290   4.386   2.907
20126WAT      O60619   9.660   2.688   7.501
20126WAT     H160620   9.646   2.772   7.554
20126WAT     H260621   9.713   2.623   7.556
20127WAT      O60622   1.289   2.460   9.708
20127WAT     H160623   1.298   2.461   9.608
20127WAT     H260624   1.373   2.495   9.750
20128WAT      O60625   1.346   1.270   7.291
20128WAT     H160626   1.430   1.299   7.244
20128WAT     H260627   1.308   1.348   7.340
20129WAT      O60628   2.946   2.008   4.795
20129WAT     H160629   2.956   1.971   4.703
20129WAT     H260630   2.862   1.975   4.836
20130WAT      O60631   4.884   3.983   3.650
20130WAT     H160632   4.984   3.977   3.646
20130WAT     H260633   4.857   4.078   3.666
20131WAT      O60634   4.735   9.213   5.702
20131WAT     H160635   4.709   9.260   5.786
20131WAT     H260636   4.783   9.277   5.642
20132WAT      O60637   0.588   2.770   7.435
20132WAT     H160638   0.584   2.755   7.534
20132WAT     H260639   0.619   2.686   7.390
20133WAT      O60640   0.179   8.829   1.139
20133WAT     H160641   0.208   8.898   1.206
20133WAT     H260642   0.170   8.740   1.184
20134WAT      O60643   4.896   9.749   2.744
20134WAT     H160644   4.994   9.769   2.755
20134WAT     H260645   4.877   9.723   2.649
20135WAT      O60646   8.437   6.365   5.964
20135WAT     H160647   8.526   6.353   5.921
20135WAT     H260648   8.385   6.280   5.956
20136WAT      O60649   6.482   2.639   6.223
20136WAT     H160650   6.558   2.650   6.287
20136WAT     H260651   6.395   2.654   6.270
20137WAT      O60652   7.634   3.731   1.733
20137WAT     H160653   7.549   3.741   1.784
20137WAT     H260654   7.698   3.674   1.784
20138WAT      O60655   2.184   9.530   4.792
20138WAT     H160656   2.129   9.472   4.851
20138WAT     H260657   2.210   9.613   4.841
20139WAT      O60658   1.018   4.220   9.311
20139WAT     H160659   0.965   4.264   9.238
20139WAT     H260660   1.021   4.280   9.391
20140WAT      O60661   8.233   3.844   0.051
20140WAT     H160662   8.294   3.778   0.095
20140WAT     H260663   8.260   3.937   0.078
20141WAT      O60664   6.052   1.067   3.701
20141WAT     H160665   6.150   1.049   3.709
20141WAT     H260666   6.032   1.158   3.738
20142WAT      O60667   1.059   9.314   6.083
20142WAT     H160668   1.148   9.294   6.043
20142WAT     H260669   1.059   9.406   6.123
20143WAT      O60670   6.766   7.481   1.772
20143WAT     H160671   6.780   7.550   1.701
20143WAT     H260672   6.817   7.398   1.750
20144WAT      O60673   7.967   9.154   9.565
20144WAT     H160674   7.927   9.243   9.541
20144WAT     H260675   8.066   9.163   9.571
20145WAT      O60676   9.357   1.765   5.213
20145WAT     H160677   9.347   1.854   5.257
20145WAT     H260678   9.428   1.713   5.260
20146WAT      O60679   6.556   0.293   8.168
20146WAT     H160680   6.652   0.264   8.166
20146WAT     H260681   6.548   0.383   8.125
20147WAT      O60682   8.420   4.545   8.239
20147WAT     H160683   8.419   4.521   8.142
20147WAT     H260684   8.392   4.640   8.250
20148WAT      O60685   9.890   1.732   8.614
20148WAT     H160686   9.907   1.795   8.538
20148WAT     H260687   9.801   1.753   8.654
20149WAT      O60688   3.617   5.200   0.734
20149WAT     H160689   3.529   5.173   0.695
20149WAT     H260690   3.630   5.298   0.722
20150WAT      O60691   6.266   1.418   6.620
20150WAT     H160692   6.200   1.344   6.633
20150WAT     H260693   6.317   1.402   6.536
20151WAT      O60694   3.097   1.750   5.287
20151WAT     H160695   3.064   1.843   5.273
20151WAT     H260696   3.050   1.687   5.226
20152WAT      O60697   1.944   4.975   8.676
20152WAT     H160698   1.953   4.895   8.617
20152WAT     H260699   2.034   5.014   8.695
20153WAT      O60700   7.752   1.291   9.321
20153WAT     H160701   7.680   1.299   9.252
20153WAT     H260702   7.841   1.288   9.276
20154WAT      O60703   4.673   1.009   5.323
20154WAT     H160704   4.733   0.933   5.346
20154WAT     H260705   4.721   1.095   5.336
20155WAT      O60706   4.398   2.149   5.387
20155WAT     H160707   4.401   2.115   5.293
20155WAT     H260708   4.305   2.180   5.408
20156WAT      O60709   6.773   5.300   4.923
20156WAT     H160710   6.869   5.324   4.938
20156WAT     H260711   6.736   5.354   4.848
20157WAT      O60712   4.703   1.723   9.799
20157WAT     H160713   4.750   1.723   9.711
20157WAT     H260714   4.661   1.812   9.815
20158WAT      O60715   5.986   3.000   7.312
20158WAT     H160716   5.889   2.989   7.332
20158WAT     H260717   6.034   3.031   7.395
20159WAT      O60718   9.826   9.129   6.824
20159WAT     H160719   9.874   9.207   6.864
20159WAT     H260720   9.871   9.104   6.738
20160WAT      O60721   8.106   0.231   3.639
20160WAT     H160722   8.147   0.160   3.581
20160WAT     H260723   8.173   0.302   3.658
20161WAT      O60724   8.034   1.225   5.836
20161WAT     H160725   7.941   1.259   5.849
20161WAT     H260726   8.051   1.214   5.738
20162WAT      O60727   8.438   2.780   0.098
20162WAT     H160728   8.365   2.712   0.087
20162WAT     H260729   8.427   2.852   0.029
20163WAT      O60730   1.118   9.317   9.386
20163WAT     H160731   1.029   9.282   9.357
20163WAT     H260732   1.173   9.241   9.422
20164WAT      O60733   9.363   4.503   6.500
20164WAT     H160734   9.265   4.511   6.482
20164WAT     H260735   9.381   4.417   6.549
20165WAT      O60736   4.691   3.675   0.929
20165WAT     H160737   4.650   3.587   0.907
20165WAT     H260738   4.715   3.677   1.027
20166WAT      O60739   8.748   0.826   6.043
20166WAT     H160740   8.762   0.728   6.030
20166WAT     H260741   8.775   0.851   6.136
20167WAT      O60742   3.197   0.635   1.931
20167WAT     H160743   3.115   0.589   1.965
20167WAT     H260744   3.238   0.580   1.858
20168WAT      O60745   3.684   6.430   1.628
20168WAT     H160746   3.782   6.440   1.612
20168WAT     H260747   3.633   6.477   1.556
20169WAT      O60748   2.047   3.154   4.252
20169WAT     H160749   2.138   3.192   4.270
20169WAT     H260750   1.997   3.145   4.338
20170WAT      O60751   6.821   6.890   6.334
20170WAT     H160752   6.815   6.970   6.394
20170WAT     H260753   6.888   6.908   6.262
20171WAT      O60754   6.299   4.545   2.574
20171WAT     H160755   6.207   4.511   2.592
20171WAT     H260756   6.365   4.489   2.624
20172WAT      O60757   9.099   9.000   7.927
20172WAT     H160758   9.017   8.943   7.933
20172WAT     H260759   9.078   9.092   7.962
20173WAT      O60760   2.690   3.120   7.856
20173WAT     H160761   2.708   3.022   7.866
20173WAT     H260762   2.755   3.172   7.910
20174WAT      O60763   6.213   9.015   9.011
20174WAT     H160764   6.284   8.961   8.965
20174WAT     H260765   6.183   9.089   8.951
20175WAT      O60766   3.279   1.034   2.116
20175WAT     H160767   3.235   1.073   2.035
20175WAT     H260768   3.346   0.966   2.088
20176WAT      O60769   1.498   6.268   9.719
20176WAT     H160770   1.411   6.316   9.731
20176WAT     H260771   1.484   6.170   9.727
20177WAT      O60772   3.516   8.706   5.355
20177WAT     H160773   3.580   8.782   5.370
20177WAT     H260774   3.525   8.673   5.262
20178WAT      O60775   1.563   3.840   5.627
20178WAT     H160776   1.526   3.876   5.713
20178WAT     H260777   1.646   3.788   5.646
20179WAT      O60778   1.862   7.979   0.864
20179WAT     H160779   1.770   7.973   0.902
20179WAT     H260780   1.925   8.014   0.933
20180WAT      O60781   3.481   2.049   4.601
20180WAT     H160782   3.425   2.130   4.586
20180WAT     H260783   3.478   2.023   4.697
20181WAT      O60784   4.888   7.175   8.612
20181WAT     H160785   4.919   7.217   8.527
20181WAT     H260786   4.926   7.225   8.690
20182WAT      O60787   3.266   3.428   3.451
20182WAT     H160788   3.201   3.500   3.426
20182WAT     H260789   3.359   3.465   3.446
20183WAT      O60790   9.006   7.483   5.008
20183WAT     H160791   8.932   7.423   5.036
20183WAT     H260792   9.019   7.555   5.077
20184WAT      O60793   4.729   0.955   9.439
20184WAT     H160794   4.715   0.993   9.530
20184WAT     H260795   4.685   0.865   9.433
20185WAT      O60796   1.116   2.773   2.335
20185WAT     H160797   1.089   2.683   2.301
20185WAT     H260798   1.054   2.842   2.298
20186WAT      O60799   2.053   3.924   9.134
20186WAT     H160800   2.087   3.929   9.228
20186WAT     H260801   1.953   3.931   9.135
20187WAT      O60802   6.109   4.376   4.543
20187WAT     H160803   6.105   4.474   4.524
20187WAT     H260804   6.203   4.351   4.568
20188WAT      O60805   7.496   2.922   3.955
20188WAT     H160806   7.512   3.011   3.998
20188WAT     H260807   7.398   2.908   3.943
20189WAT      O60808   7.843   5.441   6.043
20189WAT     H160809   7.746   5.460   6.058
20189WAT     H260810   7.852   5.372   5.972
20190WAT      O60811   1.529   0.093   1.713
20190WAT     H160812   1.622   0.058   1.725
20190WAT     H260813   1.479   0.086   1.799
20191WAT      O60814   5.066   6.932   8.934
20191WAT     H160815   5.088   6.837   8.912
20191WAT     H260816   4.970   6.939   8.962
20192WAT      O60817   9.455   8.120   5.395
20192WAT     H160818   9.442   8.103   5.298
20192WAT     H260819   9.392   8.192   5.426
20193WAT      O60820   4.128   8.037   6.893
20193WAT     H160821   4.090   8.107   6.953
20193WAT     H260822   4.168   7.964   6.947
20194WAT      O60823   1.384   3.589   1.926
20194WAT     H160824   1.353   3.498   1.954
20194WAT     H260825   1.458   3.581   1.860
20195WAT      O60826   6.706   5.133   4.273
20195WAT     H160827   6.652   5.150   4.355
20195WAT     H260828   6.646   5.134   4.193
20196WAT      O60829   0.013   4.010   9.444
20196WAT     H160830   0.062   3.985   9.360
20196WAT     H260831   0.068   3.982   9.523
20197WAT      O60832   7.074   4.992   3.400
20197WAT     H160833   6.980   4.973   3.374
20197WAT     H260834   7.087   5.091   3.408
20198WAT      O60835   7.781   0.450   8.222
20198WAT     H160836   7.744   0.360   8.247
20198WAT     H260837   7.860   0.470   8.280
20199WAT      O60838   7.762   5.529   4.724
20199WAT     H160839   7.795   5.484   4.807
20199WAT     H260840   7.752   5.461   4.652
20200WAT      O60841   1.811   6.127   1.094
20200WAT     H160842   1.798   6.054   1.160
20200WAT     H260843   1.750   6.112   1.015
20201WAT      O60844   5.440   0.869   8.397
20201WAT     H160845   5.386   0.791   8.430
20201WAT     H260846   5.537   0.851   8.411
20202WAT      O60847   8.979   5.923   9.445
20202WAT     H160848   8.957   5.851   9.379
20202WAT     H260849   9.017   6.002   9.396
20203WAT      O60850   0.414   7.828   7.569
20203WAT     H160851   0.451   7.907   7.619
20203WAT     H260852   0.457   7.822   7.479
20204WAT      O60853   5.944   4.448   8.658
20204WAT     H160854   5.848   4.423   8.650
20204WAT     H260855   6.000   4.365   8.652
20205WAT      O60856   5.059   6.065   9.848
20205WAT     H160857   5.094   5.983   9.893
20205WAT     H260858   5.008   6.039   9.766
20206WAT      O60859   0.435   4.528   2.704
20206WAT     H160860   0.470   4.506   2.795
20206WAT     H260861   0.508   4.520   2.636
20207WAT      O60862   2.941   0.656   0.598
20207WAT     H160863   2.951   0.726   0.527
20207WAT     H260864   2.879   0.585   0.567
20208WAT      O60865   0.042   8.588   4.953
20208WAT     H160866   0.065   8.626   5.042
20208WAT     H260867   0.100   8.508   4.935
20209WAT      O60868   7.207   7.959   4.362
20209WAT     H160869   7.188   8.005   4.275
20209WAT     H260870   7.239   7.866   4.344
20210WAT      O60871   4.837   9.811   1.385
20210WAT     H160872   4.745   9.843   1.407
20210WAT     H260873   4.840   9.779   1.291
20211WAT      O60874   4.237   3.772   6.222
20211WAT     H160875   4.153   3.756   6.273
20211WAT     H260876   4.237   3.715   6.139
20212WAT      O60877   4.239   4.935   5.121
20212WAT     H160878   4.282   5.015   5.078
20212WAT     H260879   4.245   4.943   5.221
20213WAT      O60880   7.953   0.976   8.688
20213WAT     H160881   7.936   1.023   8.775
20213WAT     H260882   8.027   1.022   8.639
20214WAT      O60883   9.768   1.724   0.320
20214WAT     H160884   9.864   1.709   0.297
20214WAT     H260885   9.737   1.809   0.278
20215WAT      O60886   8.248   7.125   4.843
20215WAT     H160887   8.278   7.050   4.784
20215WAT     H260888   8.216   7.201   4.787
20216WAT      O60889   2.373   0.841   0.591
20216WAT     H160890   2.320   0.885   0.664
20216WAT     H260891   2.377   0.901   0.512
20217WAT      O60892   2.148   0.393   6.462
20217WAT     H160893   2.138   0.318   6.528
20217WAT     H260894   2.230   0.378   6.407
20218WAT      O60895   1.424   6.882   3.824
20218WAT     H160896   1.474   6.799   3.846
20218WAT     H260897   1.381   6.919   3.906
20219WAT      O60898   2.923   3.025   0.038
20219WAT     H160899   2.983   3.097   0.072
20219WAT     H260900   2.861   2.995   0.111
20220WAT      O60901   4.577   6.037   7.428
20220WAT     H160902   4.613   5.986   7.507
20220WAT     H260903   4.646   6.039   7.356
20221WAT      O60904   8.813   9.189   4.101
20221WAT     H160905   8.765   9.219   4.183
20221WAT     H260906   8.795   9.091   4.085
20222WAT      O60907   8.344   2.875   1.721
20222WAT     H160908   8.414   2.944   1.743
20222WAT     H260909   8.297   2.901   1.637
20223WAT      O60910   4.482   0.692   5.480
20223WAT     H160911   4.486   0.748   5.398
20223WAT     H260912   4.542   0.731   5.550
20224WAT      O60913   0.492   7.818   5.617
20224WAT     H160914   0.457   7.742   5.562
20224WAT     H260915   0.434   7.830   5.697
20225WAT      O60916   3.129   0.841   3.063
20225WAT     H160917   3.227   0.862   3.072
20225WAT     H260918   3.078   0.926   3.053
20226WAT      O60919   2.217   1.297   3.837
20226WAT     H160920   2.231   1.265   3.931
20226WAT     H260921   2.262   1.235   3.773
20227WAT      O60922   5.139   5.777   7.494
20227WAT     H160923   5.121   5.873   7.472
20227WAT     H260924   5.072   5.718   7.448
20228WAT      O60925   0.881   4.819   6.284
20228WAT     H160926   0.849   4.800   6.192
20228WAT     H260927   0.961   4.879   6.280
20229WAT      O60928   7.548   8.795   9.223
20229WAT     H160929   7.602   8.867   9.267
20229WAT     H260930   7.451   8.819   9.227
20230WAT      O60931   1.694   0.219   2.766
20230WAT     H160932   1.739   0.307   2.786
20230WAT     H260933   1.713   0.193   2.672
20231WAT      O60934   3.333   4.107   3.097
20231WAT     H160935   3.386   4.090   3.015
20231WAT     H260936   3.267   4.180   3.080
20232WAT      O60937   0.649   8.075   9.016
20232WAT     H160938   0.628   8.156   9.071
20232WAT     H260939   0.617   7.994   9.064
20233WAT      O60940   6.136   4.520   5.084
20233WAT     H160941   6.227   4.477   5.082
20233WAT     H260942   6.105   4.534   4.990
20234WAT      O60943   6.130   5.408   4.505
20234WAT     H160944   6.069   5.399   4.426
20234WAT     H260945   6.161   5.502   4.513
20235WAT      O60946   4.371   7.790   3.047
20235WAT     H160947   4.440   7.728   3.084
20235WAT     H260948   4.336   7.849   3.120
20236WAT      O60949   2.320   5.429   1.779
20236WAT     H160950   2.386   5.475   1.837
20236WAT     H260951   2.334   5.456   1.683
20237WAT      O60952   5.767   4.989   0.873
20237WAT     H160953   5.761   4.891   0.853
20237WAT     H260954   5.687   5.017   0.926
20238WAT      O60955   7.457   8.317   8.697
20238WAT     H160956   7.389   8.322   8.624
20238WAT     H260957   7.439   8.388   8.765
20239WAT      O60958   4.231   0.740   3.042
20239WAT     H160959   4.154   0.677   3.043
20239WAT     H260960   4.220   0.807   3.116
20240WAT      O60961   9.776   1.063   6.578
20240WAT     H160962   9.794   1.159   6.596
20240WAT     H260963   9.698   1.055   6.515
20241WAT      O60964   5.404   8.380   7.530
20241WAT     H160965   5.349   8.441   7.588
20241WAT     H260966   5.407   8.417   7.437
20242WAT      O60967   0.359   1.869   6.137
20242WAT     H160968   0.370   1.841   6.233
20242WAT     H260969   0.366   1.968   6.131
20243WAT      O60970   7.880   2.466   7.415
20243WAT     H160971   7.919   2.375   7.429
20243WAT     H260972   7.828   2.493   7.496
20244WAT      O60973   7.007   1.763   4.350
20244WAT     H160974   6.987   1.852   4.311
20244WAT     H260975   7.105   1.742   4.338
20245WAT      O60976   4.836   3.020   5.464
20245WAT     H160977   4.912   3.085   5.479
20245WAT     H260978   4.824   3.006   5.366
20246WAT      O60979   1.648   1.762   1.463
20246WAT     H160980   1.675   1.688   1.524
20246WAT     H260981   1.654   1.849   1.512
20247WAT      O60982   6.156   5.325   8.916
20247WAT     H160983   6.065   5.286   8.902
20247WAT     H260984   6.198   5.344   8.827
20248WAT      O60985   2.175   9.644   9.667
20248WAT     H160986   2.166   9.684   9.758
20248WAT     H260987   2.118   9.697   9.603
20249WAT      O60988   9.431   0.742   2.190
20249WAT     H160989   9.483   0.734   2.275
20249WAT     H260990   9.479   0.694   2.117
20250WAT      O60991   6.135   8.978   2.804
20250WAT     H160992   6.146   8.909   2.876
20250WAT     H260993   6.146   9.069   2.843
20251WAT      O60994   2.454   0.265   0.428
20251WAT     H160995   2.503   0.265   0.516
20251WAT     H260996   2.363   0.303   0.441
20252WAT      O60997   6.643   0.326   9.025
20252WAT     H160998   6.688   0.241   9.051
20252WAT     H260999   6.639   0.387   9.104
20253WAT      O61000   9.175   9.142   2.860
20253WAT     H161001   9.236   9.076   2.904
20253WAT     H261002   9.080   9.112   2.871
20254WAT      O61003   7.034   9.149   5.565
20254WAT     H161004   7.043   9.145   5.664
20254WAT     H261005   7.102   9.212   5.528
20255WAT      O61006   0.039   8.193   7.508
20255WAT     H161007   0.037   8.293   7.506
20255WAT     H261008   0.070   8.158   7.420
20256WAT      O61009   6.180   9.293   2.185
20256WAT     H161010   6.134   9.257   2.267
20256WAT     H261011   6.193   9.391   2.195
20257WAT      O61012   5.277   7.809   7.426
20257WAT     H161013   5.197   7.869   7.436
20257WAT     H261014   5.284   7.750   7.506
20258WAT      O61015   9.645   0.317   4.865
20258WAT     H161016   9.573   0.360   4.920
20258WAT     H261017   9.652   0.220   4.889
20259WAT      O61018   0.890   8.254   6.638
20259WAT     H161019   0.803   8.249   6.589
20259WAT     H261020   0.953   8.314   6.588
20260WAT      O61021   3.106   8.287   0.614
20260WAT     H161022   3.089   8.261   0.710
20260WAT     H261023   3.054   8.369   0.592
20261WAT      O61024   7.693   4.388   1.365
20261WAT     H161025   7.743   4.324   1.424
20261WAT     H261026   7.747   4.471   1.353
20262WAT      O61027   4.825   4.088   3.010
20262WAT     H161028   4.762   4.155   2.973
20262WAT     H261029   4.918   4.110   2.980
20263WAT      O61030   9.373   9.008   0.346
20263WAT     H161031   9.301   9.077   0.335
20263WAT     H261032   9.362   8.937   0.277
20264WAT      O61033   8.707   4.926   7.723
20264WAT     H161034   8.648   4.935   7.643
20264WAT     H261035   8.700   4.834   7.760
20265WAT      O61036   5.691   1.868   8.496
20265WAT     H161037   5.694   1.811   8.578
20265WAT     H261038   5.771   1.928   8.494
20266WAT      O61039   6.065   9.155   2.394
20266WAT     H161040   5.971   9.136   2.423
20266WAT     H261041   6.123   9.077   2.417
20267WAT      O61042  -0.002   3.014   3.100
20267WAT     H161043   0.087   3.049   3.071
20267WAT     H261044  -0.013   3.027   3.198
20268WAT      O61045   2.205   4.537   7.246
20268WAT     H161046   2.192   4.552   7.148
20268WAT     H261047   2.121   4.500   7.286
20269WAT      O61048   0.092   2.750   3.093
20269WAT     H161049   0.124   2.737   3.187
20269WAT     H261050   0.037   2.834   3.089
20270WAT      O61051   4.798   4.839   0.353
20270WAT     H161052   4.824   4.763   0.412
20270WAT     H261053   4.728   4.810   0.289
20271WAT      O61054   7.358   7.682   2.758
20271WAT     H161055   7.437   7.743   2.758
20271WAT     H261056   7.277   7.733   2.788
20272WAT      O61057   0.967   5.367   4.898
20272WAT     H161058   0.992   5.271   4.902
20272WAT     H261059   0.870   5.375   4.874
20273WAT      O61060   5.313   8.829   5.635
20273WAT     H161061   5.373   8.781   5.571
20273WAT     H261062   5.352   8.823   5.727
20274WAT      O61063   4.511   4.689   1.964
20274WAT     H161064   4.585   4.754   1.943
20274WAT     H261065   4.544   4.596   1.955
20275WAT      O61066   3.833   7.627   1.590
20275WAT     H161067   3.815   7.685   1.510
20275WAT     H261068   3.816   7.679   1.674
20276WAT      O61069   8.411   4.695   7.764
20276WAT     H161070   8.445   4.706   7.671
20276WAT     H261071   8.418   4.782   7.813
20277WAT      O61072   9.287   5.901   5.343
20277WAT     H161073   9.301   5.988   5.391
20277WAT     H261074   9.341   5.830   5.387
20278WAT      O61075   2.503   7.750   8.429
20278WAT     H161076   2.453   7.714   8.350
20278WAT     H261077   2.589   7.701   8.440
20279WAT      O61078   0.066   3.689   0.939
20279WAT     H161079   0.073   3.624   0.863
20279WAT     H261080  -0.004   3.757   0.918
20280WAT      O61081   4.935   2.391   6.759
20280WAT     H161082   5.029   2.388   6.792
20280WAT     H261083   4.873   2.396   6.837
20281WAT      O61084   8.758   3.674   0.126
20281WAT     H161085   8.695   3.654   0.051
20281WAT     H261086   8.715   3.651   0.213
20282WAT      O61087   2.139   5.169   3.331
20282WAT     H161088   2.236   5.180   3.310
20282WAT     H261089   2.114   5.232   3.404
20283WAT      O61090   8.715   6.499   7.034
20283WAT     H161091   8.631   6.551   7.025
20283WAT     H261092   8.792   6.562   7.049
20284WAT      O61093   6.852   0.276   2.158
20284WAT     H161094   6.853   0.269   2.257
20284WAT     H261095   6.771   0.326   2.129
20285WAT      O61096   7.889   6.558   4.034
20285WAT     H161097   7.868   6.468   4.071
20285WAT     H261098   7.916   6.549   3.938
20286WAT      O61099   2.767   4.007   6.152
20286WAT     H161100   2.716   4.089   6.176
20286WAT     H261101   2.735   3.973   6.063
20287WAT      O61102   3.902   8.151   4.660
20287WAT     H161103   3.851   8.076   4.619
20287WAT     H261104   3.999   8.143   4.637
20288WAT      O61105   7.578   0.898   8.768
20288WAT     H161106   7.513   0.851   8.827
20288WAT     H261107   7.530   0.967   8.714
20289WAT      O61108   0.038   7.148   1.008
20289WAT     H161109  -0.031   7.145   0.935
20289WAT     H261110   0.004   7.097   1.087
20290WAT      O61111   4.850   4.960   3.266
20290WAT     H161112   4.779   4.895   3.295
20290WAT     H261113   4.835   4.985   3.171
20291WAT      O61114   4.395   3.746   0.285
20291WAT     H161115   4.422   3.766   0.191
20291WAT     H261116   4.476   3.746   0.344
20292WAT      O61117   8.303   5.622   3.988
20292WAT     H161118   8.260   5.549   3.936
20292WAT     H261119   8.346   5.687   3.925
20293WAT      O61120   9.791   8.503   6.361
20293WAT     H161121   9.705   8.468   6.398
20293WAT     H261122   9.791   8.603   6.368
20294WAT      O61123   7.510   6.659   1.095
20294WAT     H161124   7.514   6.643   1.193
20294WAT     H261125   7.487   6.754   1.077
20295WAT      O61126   9.097   1.204   7.551
20295WAT     H161127   9.159   1.125   7.553
20295WAT     H261128   9.011   1.179   7.594
20296WAT      O61129   0.398   8.621   0.618
20296WAT     H161130   0.341   8.606   0.538
20296WAT     H261131   0.456   8.701   0.603
20297WAT      O61132   6.951   6.370   9.821
20297WAT     H161133   6.859   6.339   9.800
20297WAT     H261134   6.966   6.461   9.784
20298WAT      O61135   1.789   4.812   9.388
20298WAT     H161136   1.843   4.738   9.348
20298WAT     H261137   1.849   4.869   9.444
20299WAT      O61138   5.268   0.104   4.285
20299WAT     H161139   5.336   0.152   4.228
20299WAT     H261140   5.252   0.013   4.248
20300WAT      O61141   1.737   1.257   5.258
20300WAT     H161142   1.698   1.342   5.292
20300WAT     H261143   1.673   1.214   5.194
20301WAT      O61144   8.421   5.316   7.681
20301WAT     H161145   8.465   5.277   7.600
20301WAT     H261146   8.373   5.400   7.656
20302WAT      O61147   9.703   4.126   3.624
20302WAT     H161148   9.649   4.208   3.608
20302WAT     H261149   9.644   4.053   3.658
20303WAT      O61150   5.953   5.137   9.206
20303WAT     H161151   5.911   5.053   9.239
20303WAT     H261152   5.881   5.202   9.180
20304WAT      O61153   9.303   4.271   7.923
20304WAT     H161154   9.354   4.198   7.878
20304WAT     H261155   9.348   4.295   8.009
20305WAT      O61156   1.063   7.524   3.119
20305WAT     H161157   1.023   7.496   3.032
20305WAT     H261158   1.026   7.466   3.192
20306WAT      O61159   4.351   5.068   6.954
20306WAT     H161160   4.319   4.996   7.015
20306WAT     H261161   4.277   5.132   6.935
20307WAT      O61162   8.927   5.393   3.074
20307WAT     H161163   8.895   5.320   3.014
20307WAT     H261164   8.852   5.459   3.089
20308WAT      O61165   0.391   0.627   8.154
20308WAT     H161166   0.477   0.585   8.183
20308WAT     H261167   0.409   0.691   8.080
20309WAT      O61168   7.976   1.395   3.001
20309WAT     H161169   7.879   1.373   3.009
20309WAT     H261170   7.987   1.476   2.943
20310WAT      O61171   6.620   7.416   9.079
20310WAT     H161172   6.622   7.507   9.038
20310WAT     H261173   6.672   7.417   9.165
20311WAT      O61174   9.442   7.894   9.651
20311WAT     H161175   9.359   7.948   9.663
20311WAT     H261176   9.476   7.905   9.558
20312WAT      O61177   8.194   6.329   3.807
20312WAT     H161178   8.292   6.314   3.822
20312WAT     H261179   8.166   6.413   3.852
20313WAT      O61180   6.416   0.050   8.039
20313WAT     H161181   6.460   0.133   8.072
20313WAT     H261182   6.415  -0.019   8.111
20314WAT      O61183   8.906   8.830   7.935
20314WAT     H161184   8.937   8.815   7.841
20314WAT     H261185   8.870   8.744   7.972
20315WAT      O61186   0.967   2.810   6.180
20315WAT     H161187   0.894   2.742   6.173
20315WAT     H261188   1.051   2.766   6.210
20316WAT      O61189   8.722   7.934   9.512
20316WAT     H161190   8.779   8.016   9.517
20316WAT     H261191   8.771   7.862   9.462
20317WAT      O61192   9.538   5.077   9.498
20317WAT     H161193   9.533   5.172   9.467
20317WAT     H261194   9.634   5.053   9.514
20318WAT      O61195   7.903   2.383   1.401
20318WAT     H161196   7.944   2.467   1.366
20318WAT     H261197   7.803   2.394   1.406
20319WAT      O61198   6.268   4.787   2.461
20319WAT     H161199   6.183   4.835   2.479
20319WAT     H261200   6.279   4.713   2.527
20320WAT      O61201   1.005   7.770   5.111
20320WAT     H161202   0.955   7.740   5.192
20320WAT     H261203   1.102   7.748   5.121
20321WAT      O61204   3.229   9.546   1.772
20321WAT     H161205   3.276   9.627   1.808
20321WAT     H261206   3.230   9.548   1.672
20322WAT      O61207   1.432   0.329   5.832
20322WAT     H161208   1.435   0.397   5.759
20322WAT     H261209   1.451   0.239   5.793
20323WAT      O61210   5.479   0.439   2.503
20323WAT     H161211   5.570   0.424   2.542
20323WAT     H261212   5.488   0.474   2.410
20324WAT      O61213   8.772   2.339   4.816
20324WAT     H161214   8.695   2.385   4.858
20324WAT     H261215   8.837   2.406   4.782
20325WAT      O61216   6.668   8.042   6.530
20325WAT     H161217   6.637   8.027   6.437
20325WAT     H261218   6.593   8.078   6.585
20326WAT      O61219   4.038   5.522   7.649
20326WAT     H161220   4.021   5.600   7.590
20326WAT     H261221   4.134   5.495   7.642
20327WAT      O61222   4.173   2.241   4.239
20327WAT     H161223   4.142   2.323   4.286
20327WAT     H261224   4.095   2.179   4.225
20328WAT      O61225   6.217   6.262   9.859
20328WAT     H161226   6.193   6.268   9.956
20328WAT     H261227   6.308   6.221   9.849
20329WAT      O61228   5.331   4.563   9.352
20329WAT     H161229   5.332   4.533   9.447
20329WAT     H261230   5.248   4.530   9.307
20330WAT      O61231   3.474   0.870   2.047
20330WAT     H161232   3.537   0.938   2.087
20330WAT     H261233   3.507   0.778   2.067
20331WAT      O61234   4.895   8.399   3.225
20331WAT     H161235   4.816   8.423   3.168
20331WAT     H261236   4.874   8.317   3.279
20332WAT      O61237   1.176   4.139   6.004
20332WAT     H161238   1.232   4.059   5.983
20332WAT     H261239   1.121   4.163   5.924
20333WAT      O61240   1.609   3.120   1.197
20333WAT     H161241   1.699   3.083   1.216
20333WAT     H261242   1.614   3.183   1.119
20334WAT      O61243   7.267   2.217   2.760
20334WAT     H161244   7.342   2.191   2.700
20334WAT     H261245   7.273   2.315   2.780
20335WAT      O61246   5.794   1.568   3.949
20335WAT     H161247   5.847   1.515   4.015
20335WAT     H261248   5.697   1.562   3.971
20336WAT      O61249   2.691   6.000   5.891
20336WAT     H161250   2.593   5.984   5.899
20336WAT     H261251   2.738   5.913   5.873
20337WAT      O61252   9.319   1.482   6.943
20337WAT     H161253   9.275   1.419   7.007
20337WAT     H261254   9.407   1.511   6.980
20338WAT      O61255   3.877   6.894   8.200
20338WAT     H161256   3.805   6.907   8.268
20338WAT     H261257   3.941   6.824   8.232
20339WAT      O61258   0.059   7.891   9.486
20339WAT     H161259   0.142   7.933   9.448
20339WAT     H261260   0.083   7.808   9.536
20340WAT      O61261   9.454   3.498   0.875
20340WAT     H161262   9.463   3.579   0.933
20340WAT     H261263   9.376   3.443   0.907
20341WAT      O61264   8.421   2.469   8.065
20341WAT     H161265   8.502   2.450   8.121
20341WAT     H261266   8.369   2.384   8.053
20342WAT      O61267   1.303   4.996   0.490
20342WAT     H161268   1.392   4.964   0.523
20342WAT     H261269   1.242   5.013   0.568
20343WAT      O61270   4.842   7.411   0.115
20343WAT     H161271   4.755   7.399   0.068
20343WAT     H261272   4.868   7.326   0.160
20344WAT      O61273   5.039   1.402   9.131
20344WAT     H161274   5.101   1.425   9.056
20344WAT     H261275   4.999   1.487   9.167
20345WAT      O61276   0.375   4.603   8.814
20345WAT     H161277   0.374   4.589   8.715
20345WAT     H261278   0.461   4.568   8.852
20346WAT      O61279   5.572   6.593   3.526
20346WAT     H161280   5.627   6.677   3.519
20346WAT     H261281   5.476   6.616   3.512
20347WAT      O61282   5.018   4.642   6.488
20347WAT     H161283   4.998   4.551   6.452
20347WAT     H261284   5.010   4.710   6.414
20348WAT      O61285   9.623   6.389   4.491
20348WAT     H161286   9.655   6.428   4.577
20348WAT     H261287   9.609   6.290   4.502
20349WAT      O61288   6.048   7.533   2.574
20349WAT     H161289   6.013   7.451   2.620
20349WAT     H261290   6.024   7.529   2.477
20350WAT      O61291   3.310   9.198   8.510
20350WAT     H161292   3.349   9.129   8.572
20350WAT     H261293   3.384   9.255   8.473
20351WAT      O61294   5.383   3.697   5.537
20351WAT     H161295   5.403   3.746   5.622
20351WAT     H261296   5.425   3.745   5.460
20352WAT      O61297   8.741   1.197   9.774
20352WAT     H161298   8.833   1.177   9.740
20352WAT     H261299   8.673   1.150   9.718
20353WAT      O61300   2.060   5.469   6.835
20353WAT     H161301   1.993   5.419   6.780
20353WAT     H261302   2.016   5.508   6.915
20354WAT      O61303   8.911   3.468   8.197
20354WAT     H161304   8.828   3.524   8.197
20354WAT     H261305   8.991   3.526   8.183
20355WAT      O61306   8.431   5.406   8.140
20355WAT     H161307   8.517   5.367   8.173
20355WAT     H261308   8.449   5.495   8.098
20356WAT      O61309   4.094   6.442   5.856
20356WAT     H161310   4.051   6.474   5.771
20356WAT     H261311   4.100   6.519   5.921
20357WAT      O61312   8.843   5.168   0.458
20357WAT     H161313   8.908   5.230   0.501
20357WAT     H261314   8.777   5.220   0.404
20358WAT      O61315   0.208   5.162   3.157
20358WAT     H161316   0.168   5.179   3.067
20358WAT     H261317   0.141   5.115   3.215
20359WAT      O61318   7.234   2.092   0.074
20359WAT     H161319   7.209   2.001   0.107
20359WAT     H261320   7.156   2.153   0.083
20360WAT      O61321   3.435   5.534   8.052
20360WAT     H161322   3.509   5.531   8.120
20360WAT     H261323   3.453   5.608   7.987
20361WAT      O61324   4.740   3.420   9.237
20361WAT     H161325   4.685   3.434   9.155
20361WAT     H261326   4.797   3.339   9.225
20362WAT      O61327   7.656   4.939   4.681
20362WAT     H161328   7.572   4.991   4.697
20362WAT     H261329   7.635   4.857   4.626
20363WAT      O61330   3.004   9.216   6.854
20363WAT     H161331   3.052   9.140   6.810
20363WAT     H261332   2.936   9.254   6.791
20364WAT      O61333   3.591   9.702   4.030
20364WAT     H161334   3.535   9.771   3.984
20364WAT     H261335   3.678   9.692   3.982
20365WAT      O61336   7.309   2.359   1.908
20365WAT     H161337   7.349   2.281   1.956
20365WAT     H261338   7.361   2.377   1.825
20366WAT      O61339   0.820   0.121   2.399
20366WAT     H161340   0.786   0.188   2.465
20366WAT     H261341   0.918   0.133   2.387
20367WAT      O61342   3.842   2.257   1.432
20367WAT     H161343   3.808   2.351   1.436
20367WAT     H261344   3.770   2.198   1.395
20368WAT      O61345   5.633   9.432   9.419
20368WAT     H161346   5.548   9.458   9.465
20368WAT     H261347   5.614   9.363   9.349
20369WAT      O61348   3.677   0.856   4.232
20369WAT     H161349   3.734   0.848   4.313
20369WAT     H261350   3.581   0.843   4.257
20370WAT      O61351   4.112   2.504   3.142
20370WAT     H161352   4.162   2.573   3.195
20370WAT     H261353   4.027   2.482   3.188
20371WAT      O61354   0.724   4.440   9.492
20371WAT     H161355   0.631   4.475   9.499
20371WAT     H261356   0.785   4.513   9.461
20372WAT      O61357   5.301   8.903   3.148
20372WAT     H161358   5.277   8.816   3.105
20372WAT     H261359   5.226   8.968   3.137
20373WAT      O61360   4.783   3.814   2.952
20373WAT     H161361   4.794   3.903   2.996
20373WAT     H261362   4.786   3.825   2.852
20374WAT      O61363   8.592   9.057   2.015
20374WAT     H161364   8.562   9.104   1.932
20374WAT     H261365   8.611   8.961   1.995
20375WAT      O61366   8.697   8.725   9.740
20375WAT     H161367   8.664   8.736   9.833
20375WAT     H261368   8.639   8.659   9.691
20376WAT      O61369   2.165   2.794   6.238
20376WAT     H161370   2.259   2.763   6.254
20376WAT     H261371   2.102   2.723   6.269
20377WAT      O61372   2.369   7.559   9.527
20377WAT     H161373   2.277   7.532   9.555
20377WAT     H261374   2.437   7.514   9.586
20378WAT      O61375   9.682   9.252   2.714
20378WAT     H161376   9.726   9.269   2.626
20378WAT     H261377   9.751   9.259   2.787
20379WAT      O61378   0.127   5.659   2.606
20379WAT     H161379   0.101   5.754   2.585
20379WAT     H261380   0.053   5.615   2.657
20380WAT      O61381   7.234   9.649   5.138
20380WAT     H161382   7.256   9.703   5.057
20380WAT     H261383   7.136   9.631   5.141
20381WAT      O61384   6.075   2.921   6.010
20381WAT     H161385   6.106   2.906   6.103
20381WAT     H261386   5.975   2.927   6.009
20382WAT      O61387   1.535   0.832   7.477
20382WAT     H161388   1.601   0.887   7.527
20382WAT     H261389   1.485   0.889   7.412
20383WAT      O61390   8.711   9.005   8.004
20383WAT     H161391   8.794   8.954   7.982
20383WAT     H261392   8.669   9.038   7.919
20384WAT      O61393   0.710   5.385   6.907
20384WAT     H161394   0.670   5.428   6.826
20384WAT     H261395   0.748   5.296   6.881
20385WAT      O61396   4.111   1.366   2.709
20385WAT     H161397   4.076   1.273   2.721
20385WAT     H261398   4.056   1.415   2.641
20386WAT      O61399   3.967   1.456   3.574
20386WAT     H161400   3.888   1.427   3.628
20386WAT     H261401   4.034   1.382   3.571
20387WAT      O61402   7.024   4.928   2.180
20387WAT     H161403   7.060   5.008   2.228
20387WAT     H261404   6.989   4.862   2.247
20388WAT      O61405   4.924   3.834   0.944
20388WAT     H161406   4.863   3.763   0.911
20388WAT     H261407   4.922   3.836   1.044
20389WAT      O61408   2.307   0.440   8.734
20389WAT     H161409   2.269   0.462   8.824
20389WAT     H261410   2.405   0.460   8.733
20390WAT      O61411   9.794   4.959   4.274
20390WAT     H161412   9.803   5.055   4.300
20390WAT     H261413   9.787   4.952   4.174
20391WAT      O61414   5.938   5.193   4.730
20391WAT     H161415   5.970   5.121   4.669
20391WAT     H261416   5.869   5.249   4.683
20392WAT      O61417   0.954   4.955   2.092
20392WAT     H161418   0.885   5.027   2.100
20392WAT     H261419   0.921   4.872   2.138
20393WAT      O61420   9.814   8.893   1.575
20393WAT     H161421   9.809   8.821   1.506
20393WAT     H261422   9.765   8.974   1.543
20394WAT      O61423   5.453   8.968   1.374
20394WAT     H161424   5.501   8.882   1.358
20394WAT     H261425   5.490   9.012   1.456
20395WAT      O61426   1.303   6.159   2.500
20395WAT     H161427   1.234   6.163   2.573
20395WAT     H261428   1.349   6.070   2.503
20396WAT      O61429   9.860   8.609   7.867
20396WAT     H161430   9.786   8.616   7.800
20396WAT     H261431   9.828   8.644   7.956
20397WAT      O61432   6.353   9.593   6.480
20397WAT     H161433   6.283   9.531   6.516
20397WAT     H261434   6.335   9.611   6.384
20398WAT      O61435   1.516   8.988   1.243
20398WAT     H161436   1.529   9.073   1.192
20398WAT     H261437   1.532   8.910   1.182
20399WAT      O61438   2.600   7.747   1.266
20399WAT     H161439   2.626   7.675   1.201
20399WAT     H261440   2.531   7.806   1.224
20400WAT      O61441   0.269   2.247   3.285
20400WAT     H161442   0.182   2.225   3.242
20400WAT     H261443   0.332   2.284   3.217
20401WAT      O61444   8.524   4.534   3.521
20401WAT     H161445   8.589   4.493   3.457
20401WAT     H261446   8.502   4.627   3.492
20402WAT      O61447   9.365   7.944   2.382
20402WAT     H161448   9.334   8.030   2.342
20402WAT     H261449   9.402   7.961   2.473
20403WAT      O61450   2.724   7.724   9.487
20403WAT     H161451   2.786   7.695   9.560
20403WAT     H261452   2.632   7.737   9.525
20404WAT      O61453   0.885   5.073   2.550
20404WAT     H161454   0.826   5.072   2.469
20404WAT     H261455   0.898   5.167   2.580
20405WAT      O61456   9.306   1.919   7.517
20405WAT     H161457   9.260   1.989   7.463
20405WAT     H261458   9.380   1.878   7.463
20406WAT      O61459   2.064   5.602   3.153
20406WAT     H161460   2.142   5.630   3.097
20406WAT     H261461   1.983   5.654   3.126
20407WAT      O61462   5.989   4.584   1.600
20407WAT     H161463   5.929   4.526   1.655
20407WAT     H261464   6.007   4.670   1.649
20408WAT      O61465   1.553   8.009   3.968
20408WAT     H161466   1.628   8.058   3.923
20408WAT     H261467   1.577   7.913   3.978
20409WAT      O61468   1.814   1.631   4.551
20409WAT     H161469   1.729   1.598   4.593
20409WAT     H261470   1.885   1.637   4.621
20410WAT      O61471   1.977   7.822   7.930
20410WAT     H161472   2.071   7.857   7.937
20410WAT     H261473   1.937   7.816   8.021
20411WAT      O61474   5.068   0.197   8.666
20411WAT     H161475   5.148   0.142   8.640
20411WAT     H261476   5.092   0.294   8.664
20412WAT      O61477   6.897   9.063   0.579
20412WAT     H161478   6.966   9.128   0.609
20412WAT     H261479   6.938   8.971   0.575
20413WAT      O61480   6.289   2.652   8.191
20413WAT     H161481   6.198   2.613   8.204
20413WAT     H261482   6.357   2.595   8.237
20414WAT      O61483   5.891   9.315   4.234
20414WAT     H161484   5.879   9.260   4.317
20414WAT     H261485   5.863   9.261   4.154
20415WAT      O61486   0.464   7.079   9.221
20415WAT     H161487   0.372   7.044   9.240
20415WAT     H261488   0.494   7.045   9.132
20416WAT      O61489   8.986   8.147   4.941
20416WAT     H161490   9.067   8.123   4.887
20416WAT     H261491   8.908   8.159   4.880
20417WAT      O61492   0.219   5.378   9.498
20417WAT     H161493   0.281   5.406   9.572
20417WAT     H261494   0.162   5.456   9.471
20418WAT      O61495   3.090   0.059   8.211
20418WAT     H161496   3.101  -0.040   8.219
20418WAT     H261497   3.057   0.095   8.298
20419WAT      O61498   7.975   5.184   7.964
20419WAT     H161499   7.934   5.177   7.873
20419WAT     H261500   8.073   5.199   7.955
20420WAT      O61501   6.521   9.477   9.649
20420WAT     H161502   6.571   9.559   9.620
20420WAT     H261503   6.427   9.502   9.671
20421WAT      O61504   5.981   7.022   7.284
20421WAT     H161505   5.899   7.057   7.330
20421WAT     H261506   5.961   6.933   7.242
20422WAT      O61507   6.956   7.325   1.617
20422WAT     H161508   6.965   7.368   1.527
20422WAT     H261509   7.034   7.351   1.674
20423WAT      O61510   7.614   6.262   2.781
20423WAT     H161511   7.625   6.169   2.747
20423WAT     H261512   7.569   6.318   2.711
20424WAT      O61513   0.641   7.577   4.064
20424WAT     H161514   0.589   7.612   4.142
20424WAT     H261515   0.587   7.587   3.981
20425WAT      O61516   5.785   0.210   0.468
20425WAT     H161517   5.782   0.238   0.564
20425WAT     H261518   5.693   0.187   0.437
20426WAT      O61519   0.886   2.969   0.435
20426WAT     H161520   0.970   3.019   0.412
20426WAT     H261521   0.821   2.976   0.359
20427WAT      O61522   5.288   7.971   5.112
20427WAT     H161523   5.243   7.884   5.130
20427WAT     H261524   5.225   8.046   5.131
20428WAT      O61525   7.147   8.022   9.684
20428WAT     H161526   7.115   8.117   9.690
20428WAT     H261527   7.086   7.972   9.623
20429WAT      O61528   0.860   0.008   8.238
20429WAT     H161529   0.797  -0.014   8.313
20429WAT     H261530   0.951   0.028   8.276
20430WAT      O61531   0.590   1.169   2.946
20430WAT     H161532   0.495   1.146   2.922
20430WAT     H261533   0.629   1.227   2.875
20431WAT      O61534   8.947   4.317   1.957
20431WAT     H161535   8.976   4.298   1.863
20431WAT     H261536   8.892   4.241   1.991
20432WAT      O61537   5.176   5.591   8.641
20432WAT     H161538   5.113   5.518   8.669
20432WAT     H261539   5.133   5.648   8.572
20433WAT      O61540   0.681   6.258   2.259
20433WAT     H161541   0.777   6.268   2.287
20433WAT     H261542   0.676   6.242   2.160
20434WAT      O61543   6.063   4.352   7.816
20434WAT     H161544   6.086   4.356   7.718
20434WAT     H261545   6.037   4.259   7.840
20435WAT      O61546   1.338   1.432   4.704
20435WAT     H161547   1.366   1.365   4.773
20435WAT     H261548   1.301   1.513   4.750
20436WAT      O61549   1.447   8.026   4.681
20436WAT     H161550   1.537   8.019   4.639
20436WAT     H261551   1.402   8.110   4.651
20437WAT      O61552   6.852   6.683   5.091
20437WAT     H161553   6.823   6.762   5.038
20437WAT     H261554   6.797   6.675   5.174
20438WAT      O61555   0.652   4.235   0.517
20438WAT     H161556   0.613   4.286   0.593
20438WAT     H261557   0.682   4.145   0.548
20439WAT      O61558   5.935   2.302   0.983
20439WAT     H161559   5.954   2.364   1.059
20439WAT     H261560   5.877   2.349   0.916
20440WAT      O61561   2.285   4.841   0.900
20440WAT     H161562   2.188   4.856   0.921
20440WAT     H261563   2.341   4.892   0.965
20441WAT      O61564   3.371   0.780   5.516
20441WAT     H161565   3.448   0.816   5.567
20441WAT     H261566   3.340   0.848   5.449
20442WAT      O61567   2.548   3.710   4.584
20442WAT     H161568   2.647   3.697   4.591
20442WAT     H261569   2.513   3.747   4.671
20443WAT      O61570   3.442   9.205   9.184
20443WAT     H161571   3.361   9.160   9.223
20443WAT     H261572   3.430   9.213   9.085
20444WAT      O61573   3.472   0.941   0.203
20444WAT     H161574   3.562   0.955   0.245
20444WAT     H261575   3.451   0.843   0.200
20445WAT      O61576   0.791   4.579   9.145
20445WAT     H161577   0.819   4.600   9.239
20445WAT     H261578   0.870   4.545   9.094
20446WAT      O61579   6.802   0.245   7.309
20446WAT     H161580   6.896   0.214   7.300
20446WAT     H261581   6.800   0.345   7.316
20447WAT      O61582   7.817   4.650   5.273
20447WAT     H161583   7.771   4.635   5.360
20447WAT     H261584   7.889   4.582   5.260
20448WAT      O61585   2.346   3.513   6.522
20448WAT     H161586   2.434   3.528   6.568
20448WAT     H261587   2.313   3.421   6.543
20449WAT      O61588   4.552   3.574   4.065
20449WAT     H161589   4.575   3.596   4.160
20449WAT     H261590   4.492   3.645   4.029
20450WAT      O61591   2.208   8.260   4.644
20450WAT     H161592   2.149   8.311   4.707
20450WAT     H261593   2.260   8.192   4.696
20451WAT      O61594   8.581   8.048   1.158
20451WAT     H161595   8.546   8.086   1.072
20451WAT     H261596   8.647   8.112   1.198
20452WAT      O61597   0.821   0.093   3.666
20452WAT     H161598   0.874   0.016   3.631
20452WAT     H261599   0.873   0.140   3.737
20453WAT      O61600   7.099   2.125   0.440
20453WAT     H161601   7.191   2.099   0.468
20453WAT     H261602   7.064   2.059   0.374
20454WAT      O61603   3.675   5.942   0.395
20454WAT     H161604   3.615   6.005   0.344
20454WAT     H261605   3.696   5.863   0.337
20455WAT      O61606   7.244   3.034   6.214
20455WAT     H161607   7.235   3.134   6.222
20455WAT     H261608   7.307   3.013   6.139
20456WAT      O61609   8.709   9.178   3.615
20456WAT     H161610   8.803   9.213   3.613
20456WAT     H261611   8.674   9.181   3.709
20457WAT      O61612   3.480   7.189   9.121
20457WAT     H161613   3.578   7.199   9.101
20457WAT     H261614   3.468   7.128   9.199
20458WAT      O61615   9.389   0.103   6.635
20458WAT     H161616   9.395   0.051   6.721
20458WAT     H261617   9.480   0.114   6.597
20459WAT      O61618   5.343   2.153   7.925
20459WAT     H161619   5.313   2.065   7.891
20459WAT     H261620   5.264   2.206   7.956
20460WAT      O61621   7.753   6.289   7.998
20460WAT     H161622   7.831   6.343   8.030
20460WAT     H261623   7.778   6.241   7.914
20461WAT      O61624   3.544   8.712   2.268
20461WAT     H161625   3.546   8.633   2.330
20461WAT     H261626   3.526   8.680   2.175
20462WAT      O61627   0.941   1.217   0.161
20462WAT     H161628   1.024   1.213   0.217
20462WAT     H261629   0.862   1.192   0.217
20463WAT      O61630   7.907   4.283   6.719
20463WAT     H161631   7.960   4.233   6.651
20463WAT     H261632   7.969   4.338   6.776
20464WAT      O61633   0.135   0.447   6.847
20464WAT     H161634   0.175   0.494   6.926
20464WAT     H261635   0.165   0.351   6.847
20465WAT      O61636   3.247   5.941   6.703
20465WAT     H161637   3.205   6.030   6.724
20465WAT     H261638   3.233   5.920   6.606
20466WAT      O61639   0.302   9.207   7.365
20466WAT     H161640   0.388   9.165   7.335
20466WAT     H261641   0.319   9.302   7.390
20467WAT      O61642   2.077   7.219   6.481
20467WAT     H161643   2.101   7.187   6.573
20467WAT     H261644   1.979   7.207   6.466
20468WAT      O61645   3.049   8.020   6.313
20468WAT     H161646   2.964   7.975   6.286
20468WAT     H261647   3.066   8.003   6.411
20469WAT      O61648   5.337   3.340   3.859
20469WAT     H161649   5.274   3.345   3.781
20469WAT     H261650   5.430   3.363   3.827
20470WAT      O61651   5.411   3.183   6.303
20470WAT     H161652   5.341   3.116   6.281
20470WAT     H261653   5.402   3.212   6.398
20471WAT      O61654   2.994   4.360   6.325
20471WAT     H161655   2.992   4.446   6.274
20471WAT     H261656   2.940   4.369   6.409
20472WAT      O61657   6.321   1.865   8.665
20472WAT     H161658   6.416   1.846   8.686
20472WAT     H261659   6.262   1.800   8.712
20473WAT      O61660   4.137   1.613   0.014
20473WAT     H161661   4.123   1.517   0.036
20473WAT     H261662   4.199   1.621  -0.064
20474WAT      O61663   7.323   0.904   2.293
20474WAT     H161664   7.266   0.846   2.352
20474WAT     H261665   7.312   1.000   2.318
20475WAT      O61666   0.085   0.552   1.984
20475WAT     H161667   0.184   0.544   1.980
20475WAT     H261668   0.043   0.462   1.973
20476WAT      O61669   9.682   3.080   1.054
20476WAT     H161670   9.689   3.110   0.959
20476WAT     H261671   9.766   3.032   1.080
20477WAT      O61672   4.969   0.616   1.660
20477WAT     H161673   4.870   0.612   1.677
20477WAT     H261674   4.996   0.540   1.601
20478WAT      O61675   7.858   2.408   0.434
20478WAT     H161676   7.947   2.435   0.472
20478WAT     H261677   7.867   2.319   0.389
20479WAT      O61678   4.794   7.164   2.532
20479WAT     H161679   4.832   7.072   2.525
20479WAT     H261680   4.743   7.173   2.618
20480WAT      O61681   1.874   4.484   3.222
20480WAT     H161682   1.883   4.545   3.301
20480WAT     H261683   1.778   4.464   3.206
20481WAT      O61684   5.062   2.900   7.801
20481WAT     H161685   5.093   2.891   7.896
20481WAT     H261686   5.085   2.817   7.751
20482WAT      O61687   9.510   4.936   2.595
20482WAT     H161688   9.465   4.868   2.537
20482WAT     H261689   9.472   5.027   2.576
20483WAT      O61690   5.083   5.828   9.285
20483WAT     H161691   5.095   5.874   9.373
20483WAT     H261692   5.032   5.888   9.223
20484WAT      O61693   4.336   6.904   9.154
20484WAT     H161694   4.410   6.969   9.166
20484WAT     H261695   4.340   6.866   9.061
20485WAT      O61696   4.870   5.906   4.799
20485WAT     H161697   4.934   5.857   4.858
20485WAT     H261698   4.799   5.948   4.856
20486WAT      O61699   5.022   1.246   8.161
20486WAT     H161700   4.998   1.199   8.246
20486WAT     H261701   5.111   1.214   8.128
20487WAT      O61702   0.234   3.659   5.634
20487WAT     H161703   0.208   3.680   5.728
20487WAT     H261704   0.272   3.567   5.629
20488WAT      O61705   8.017   2.384   2.672
20488WAT     H161706   7.977   2.368   2.762
20488WAT     H261707   8.073   2.467   2.674
20489WAT      O61708   0.368   2.358   5.635
20489WAT     H161709   0.296   2.422   5.662
20489WAT     H261710   0.377   2.287   5.705
20490WAT      O61711   3.976   8.831   5.630
20490WAT     H161712   3.973   8.906   5.564
20490WAT     H261713   3.894   8.834   5.688
20491WAT      O61714   7.371   2.635   8.295
20491WAT     H161715   7.333   2.727   8.306
20491WAT     H261716   7.378   2.591   8.384
20492WAT      O61717   4.968   7.296   8.373
20492WAT     H161718   5.033   7.234   8.329
20492WAT     H261719   4.885   7.301   8.319
20493WAT      O61720   5.529   8.335   6.982
20493WAT     H161721   5.542   8.242   6.946
20493WAT     H261722   5.589   8.348   7.061
20494WAT      O61723   5.909   7.846   8.055
20494WAT     H161724   5.871   7.937   8.070
20494WAT     H261725   6.003   7.842   8.090
20495WAT      O61726   7.144   8.047   9.174
20495WAT     H161727   7.080   7.972   9.182
20495WAT     H261728   7.178   8.053   9.080
20496WAT      O61729   4.135   8.043   0.723
20496WAT     H161730   4.099   8.002   0.807
20496WAT     H261731   4.118   8.142   0.724
20497WAT      O61732   1.338   9.014   0.788
20497WAT     H161733   1.265   9.074   0.755
20497WAT     H261734   1.302   8.921   0.799
20498WAT      O61735   0.128   3.837   3.173
20498WAT     H161736   0.121   3.936   3.185
20498WAT     H261737   0.036   3.798   3.161
20499WAT      O61738   6.142   6.828   0.373
20499WAT     H161739   6.060   6.775   0.352
20499WAT     H261740   6.116   6.918   0.409
20500WAT      O61741  -0.002   1.594   1.918
20500WAT     H161742   0.032   1.674   1.967
20500WAT     H261743   0.075   1.531   1.900
20501WAT      O61744   0.004   3.341   6.527
20501WAT     H161745   0.065   3.339   6.606
20501WAT     H261746   0.024   3.263   6.467
20502WAT      O61747   6.189   4.005   5.854
20502WAT     H161748   6.242   4.068   5.797
20502WAT     H261749   6.120   4.056   5.905
20503WAT      O61750   8.176   3.866   6.864
20503WAT     H161751   8.180   3.873   6.964
20503WAT     H261752   8.105   3.801   6.838
20504WAT      O61753   6.902   1.997   9.552
20504WAT     H161754   6.816   2.017   9.597
20504WAT     H261755   6.977   2.005   9.618
20505WAT      O61756   4.815   4.087   6.721
20505WAT     H161757   4.765   4.001   6.727
20505WAT     H261758   4.751   4.164   6.722
20506WAT      O61759   5.438   1.766   7.232
20506WAT     H161760   5.512   1.814   7.280
20506WAT     H261761   5.437   1.670   7.260
20507WAT      O61762   6.105   9.433   7.553
20507WAT     H161763   6.198   9.469   7.557
20507WAT     H261764   6.095   9.358   7.618
20508WAT      O61765   5.652   2.694   0.391
20508WAT     H161766   5.668   2.718   0.487
20508WAT     H261767   5.582   2.623   0.386
20509WAT      O61768   1.905   9.136   1.246
20509WAT     H161769   2.004   9.139   1.234
20509WAT     H261770   1.867   9.061   1.191
20510WAT      O61771   1.288   4.072   6.385
20510WAT     H161772   1.336   4.158   6.396
20510WAT     H261773   1.349   4.004   6.344
20511WAT      O61774   1.576   5.305   0.934
20511WAT     H161775   1.623   5.358   0.864
20511WAT     H261776   1.642   5.265   0.997
20512WAT      O61777   3.077   7.015   8.125
20512WAT     H161778   3.049   7.092   8.068
20512WAT     H261779   3.003   6.992   8.188
20513WAT      O61780   6.569   2.354   8.181
20513WAT     H161781   6.563   2.257   8.203
20513WAT     H261782   6.502   2.405   8.235
20514WAT      O61783   5.865   0.821   5.282
20514WAT     H161784   5.864   0.783   5.189
20514WAT     H261785   5.783   0.876   5.296
20515WAT      O61786   5.460   5.420   3.070
20515WAT     H161787   5.535   5.466   3.117
20515WAT     H261788   5.388   5.397   3.136
20516WAT      O61789   0.536   3.914   4.943
20516WAT     H161790   0.450   3.865   4.958
20516WAT     H261791   0.590   3.866   4.873
20517WAT      O61792   1.636   7.297   7.451
20517WAT     H161793   1.548   7.277   7.408
20517WAT     H261794   1.631   7.275   7.549
20518WAT      O61795   6.181   2.236   7.514
20518WAT     H161796   6.171   2.179   7.433
20518WAT     H261797   6.278   2.248   7.534
20519WAT      O61798   6.908   7.176   3.555
20519WAT     H161799   6.813   7.204   3.544
20519WAT     H261800   6.968   7.236   3.502
20520WAT      O61801   6.284   8.291   4.486
20520WAT     H161802   6.319   8.199   4.505
20520WAT     H261803   6.298   8.313   4.390
20521WAT      O61804   7.097   8.643   5.258
20521WAT     H161805   7.140   8.703   5.191
20521WAT     H261806   7.111   8.548   5.233
20522WAT      O61807   6.093   1.642   1.832
20522WAT     H161808   6.123   1.663   1.925
20522WAT     H261809   6.071   1.727   1.785
20523WAT      O61810   3.654   1.119   3.804
20523WAT     H161811   3.626   1.147   3.896
20523WAT     H261812   3.609   1.033   3.781
20524WAT      O61813   2.363   1.929   9.122
20524WAT     H161814   2.336   1.929   9.026
20524WAT     H261815   2.288   1.965   9.177
20525WAT      O61816   5.414   5.760   4.149
20525WAT     H161817   5.486   5.692   4.138
20525WAT     H261818   5.344   5.725   4.212
20526WAT      O61819   5.427   7.856   8.984
20526WAT     H161820   5.449   7.791   8.911
20526WAT     H261821   5.508   7.871   9.041
20527WAT      O61822   2.796   1.125   1.060
20527WAT     H161823   2.885   1.086   1.081
20527WAT     H261824   2.727   1.052   1.056
20528WAT      O61825   6.773   5.208   6.971
20528WAT     H161826   6.760   5.231   6.875
20528WAT     H261827   6.844   5.139   6.980
20529WAT      O61828   7.091   4.781   4.217
20529WAT     H161829   7.103   4.687   4.184
20529WAT     H261830   7.068   4.841   4.140
20530WAT      O61831   2.034   9.527   3.715
20530WAT     H161832   2.130   9.506   3.733
20530WAT     H261833   2.027   9.619   3.675
20531WAT      O61834   2.258   4.732   8.324
20531WAT     H161835   2.166   4.698   8.304
20531WAT     H261836   2.322   4.656   8.322
20532WAT      O61837   4.383   3.675   4.695
20532WAT     H161838   4.306   3.727   4.657
20532WAT     H261839   4.349   3.616   4.769
20533WAT      O61840   6.024   6.150   7.404
20533WAT     H161841   6.100   6.097   7.367
20533WAT     H261842   6.058   6.238   7.437
20534WAT      O61843   1.989   3.212   5.107
20534WAT     H161844   2.084   3.224   5.078
20534WAT     H261845   1.979   3.240   5.203
20535WAT      O61846   9.738   2.131   9.334
20535WAT     H161847   9.797   2.118   9.255
20535WAT     H261848   9.694   2.044   9.357
20536WAT      O61849   1.475   1.857   9.250
20536WAT     H161850   1.531   1.789   9.297
20536WAT     H261851   1.386   1.863   9.296
20537WAT      O61852   1.619   5.148   4.134
20537WAT     H161853   1.535   5.161   4.185
20537WAT     H261854   1.627   5.219   4.064
20538WAT      O61855   7.337   0.789   0.651
20538WAT     H161856   7.376   0.802   0.560
20538WAT     H261857   7.241   0.762   0.643
20539WAT      O61858   1.441   7.019   2.750
20539WAT     H161859   1.510   7.088   2.730
20539WAT     H261860   1.486   6.932   2.772
20540WAT      O61861   8.212   2.847   0.449
20540WAT     H161862   8.170   2.910   0.514
20540WAT     H261863   8.190   2.876   0.355
20541WAT      O61864   2.970   6.188   7.367
20541WAT     H161865   2.966   6.227   7.459
20541WAT     H261866   2.964   6.088   7.372
20542WAT      O61867   0.220   8.610   3.319
20542WAT     H161868   0.210   8.572   3.227
20542WAT     H261869   0.238   8.536   3.384
20543WAT      O61870   4.824   6.808   8.322
20543WAT     H161871   4.802   6.788   8.417
20543WAT     H261872   4.923   6.815   8.311
20544WAT      O61873   3.361   0.939   4.836
20544WAT     H161874   3.286   0.897   4.888
20544WAT     H261875   3.341   1.036   4.821
20545WAT      O61876   5.569   4.651   9.678
20545WAT     H161877   5.655   4.657   9.628
20545WAT     H261878   5.579   4.586   9.754
20546WAT      O61879   2.261   1.106   7.563
20546WAT     H161880   2.205   1.187   7.543
20546WAT     H261881   2.292   1.066   7.477
20547WAT      O61882   3.843   4.903   0.116
20547WAT     H161883   3.747   4.933   0.117
20547WAT     H261884   3.903   4.983   0.118
20548WAT      O61885   9.369   0.416   4.894
20548WAT     H161886   9.349   0.318   4.889
20548WAT     H261887   9.310   0.459   4.963
20549WAT      O61888   4.261   0.594   5.643
20549WAT     H161889   4.318   0.577   5.723
20549WAT     H261890   4.317   0.587   5.560
20550WAT      O61891   9.227   8.225   3.559
20550WAT     H161892   9.139   8.193   3.525
20550WAT     H261893   9.223   8.323   3.577
20551WAT      O61894   5.433   2.198   7.313
20551WAT     H161895   5.492   2.278   7.301
20551WAT     H261896   5.393   2.200   7.405
20552WAT      O61897   8.284   6.288   2.066
20552WAT     H161898   8.332   6.249   1.988
20552WAT     H261899   8.276   6.387   2.053
20553WAT      O61900   1.100   4.192   4.181
20553WAT     H161901   1.130   4.097   4.184
20553WAT     H261902   1.094   4.223   4.086
20554WAT      O61903   9.456   8.614   7.233
20554WAT     H161904   9.388   8.549   7.200
20554WAT     H261905   9.490   8.669   7.157
20555WAT      O61906   3.128   3.823   8.657
20555WAT     H161907   3.085   3.801   8.569
20555WAT     H261908   3.216   3.867   8.641
20556WAT      O61909   1.288   8.765   0.902
20556WAT     H161910   1.254   8.672   0.886
20556WAT     H261911   1.254   8.798   0.990
20557WAT      O61912   8.754   4.844   3.576
20557WAT     H161913   8.723   4.932   3.611
20557WAT     H261914   8.835   4.814   3.626
20558WAT      O61915   1.040   2.457   0.924
20558WAT     H161916   0.994   2.370   0.942
20558WAT     H261917   0.973   2.526   0.899
20559WAT      O61918   0.088   1.555   7.745
20559WAT     H161919   0.170   1.517   7.703
20559WAT     H261920   0.091   1.655   7.741
20560WAT      O61921   3.599   3.640   5.860
20560WAT     H161922   3.543   3.566   5.898
20560WAT     H261923   3.659   3.603   5.788
20561WAT      O61924   3.208   5.545   6.193
20561WAT     H161925   3.241   5.451   6.184
20561WAT     H261926   3.254   5.603   6.125
20562WAT      O61927   7.826   3.471   7.175
20562WAT     H161928   7.746   3.473   7.235
20562WAT     H261929   7.797   3.478   7.080
20563WAT      O61930   1.033   3.107   3.228
20563WAT     H161931   1.076   3.192   3.261
20563WAT     H261932   0.976   3.127   3.149
20564WAT      O61933   8.519   7.502   5.597
20564WAT     H161934   8.484   7.586   5.557
20564WAT     H261935   8.607   7.478   5.554
20565WAT      O61936   9.310   1.779   8.122
20565WAT     H161937   9.404   1.809   8.140
20565WAT     H261938   9.310   1.684   8.091
20566WAT      O61939   9.651   0.079   2.789
20566WAT     H161940   9.726   0.110   2.730
20566WAT     H261941   9.688   0.017   2.859
20567WAT      O61942   5.146   1.188   4.884
20567WAT     H161943   5.059   1.227   4.912
20567WAT     H261944   5.221   1.235   4.931
20568WAT      O61945   2.233   7.097   5.415
20568WAT     H161946   2.274   7.071   5.502
20568WAT     H261947   2.164   7.030   5.388
20569WAT      O61948   7.347   7.576   1.002
20569WAT     H161949   7.426   7.619   1.045
20569WAT     H261950   7.377   7.496   0.950
20570WAT      O61951   1.013   0.692   8.415
20570WAT     H161952   1.029   0.659   8.508
20570WAT     H261953   0.969   0.620   8.361
20571WAT      O61954   6.661   8.287   4.514
20571WAT     H161955   6.596   8.272   4.439
20571WAT     H261956   6.752   8.304   4.476
20572WAT      O61957   7.957   4.912   4.040
20572WAT     H161958   8.028   4.983   4.045
20572WAT     H261959   7.911   4.905   4.129
20573WAT      O61960   8.074   5.847   4.280
20573WAT     H161961   8.032   5.808   4.199
20573WAT     H261962   8.108   5.939   4.259
20574WAT      O61963   7.809   5.339   5.373
20574WAT     H161964   7.794   5.298   5.284
20574WAT     H261965   7.878   5.287   5.423
20575WAT      O61966   7.267   7.712   6.510
20575WAT     H161967   7.211   7.712   6.593
20575WAT     H261968   7.327   7.632   6.511
20576WAT      O61969   3.686   4.920   2.423
20576WAT     H161970   3.762   4.976   2.458
20576WAT     H261971   3.688   4.921   2.323
20577WAT      O61972   1.813   7.758   3.383
20577WAT     H161973   1.850   7.850   3.388
20577WAT     H261974   1.741   7.754   3.314
20578WAT      O61975   6.732   7.343   2.293
20578WAT     H161976   6.809   7.280   2.300
20578WAT     H261977   6.673   7.314   2.217
20579WAT      O61978   8.051   8.239   1.703
20579WAT     H161979   8.041   8.144   1.731
20579WAT     H261980   8.108   8.244   1.621
20580WAT      O61981   2.101   5.231   0.119
20580WAT     H161982   2.173   5.212   0.052
20580WAT     H261983   2.091   5.153   0.180
20581WAT      O61984   6.158   9.329   0.138
20581WAT     H161985   6.071   9.331   0.187
20581WAT     H261986   6.141   9.333   0.039
20582WAT      O61987   7.443   4.746   0.042
20582WAT     H161988   7.377   4.816   0.017
20582WAT     H261989   7.396   4.672   0.090
20583WAT      O61990   3.395   5.536   5.563
20583WAT     H161991   3.353   5.579   5.643
20583WAT     H261992   3.479   5.489   5.591
20584WAT      O61993   3.673   9.722   4.888
20584WAT     H161994   3.739   9.795   4.873
20584WAT     H261995   3.672   9.698   4.986
20585WAT      O61996   1.756   9.390   8.192
20585WAT     H161997   1.788   9.416   8.284
20585WAT     H261998   1.742   9.292   8.188
20586WAT      O61999   0.382   2.501   8.850
20586WAT     H162000   0.318   2.461   8.917
20586WAT     H262001   0.330   2.549   8.779
20587WAT      O62002   1.688   6.280   9.445
20587WAT     H162003   1.610   6.241   9.493
20587WAT     H262004   1.764   6.215   9.445
20588WAT      O62005   0.773   3.460   2.253
20588WAT     H162006   0.757   3.556   2.275
20588WAT     H262007   0.726   3.437   2.168
20589WAT      O62008   1.440   2.604   1.199
20589WAT     H162009   1.369   2.631   1.133
20589WAT     H262010   1.421   2.511   1.232
20590WAT      O62011   8.527   7.889   4.386
20590WAT     H162012   8.564   7.823   4.452
20590WAT     H262013   8.522   7.846   4.295
20591WAT      O62014   3.836   5.533   5.110
20591WAT     H162015   3.818   5.542   5.208
20591WAT     H262016   3.769   5.586   5.060
20592WAT      O62017   8.197   0.248   1.245
20592WAT     H162018   8.126   0.184   1.275
20592WAT     H262019   8.162   0.342   1.250
20593WAT      O62020   7.281   7.192   5.725
20593WAT     H162021   7.254   7.269   5.783
20593WAT     H262022   7.379   7.195   5.709
20594WAT      O62023   5.807   1.264   7.870
20594WAT     H162024   5.757   1.194   7.818
20594WAT     H262025   5.883   1.298   7.815
20595WAT      O62026   0.880   3.888   4.425
20595WAT     H162027   0.969   3.871   4.468
20595WAT     H262028   0.812   3.824   4.462
20596WAT      O62029   5.478   8.871   5.085
20596WAT     H162030   5.525   8.870   4.996
20596WAT     H262031   5.546   8.876   5.158
20597WAT      O62032   2.010   7.648   7.745
20597WAT     H162033   1.984   7.715   7.814
20597WAT     H262034   2.103   7.617   7.761
20598WAT      O62035   6.436   9.590   3.741
20598WAT     H162036   6.468   9.543   3.823
20598WAT     H262037   6.425   9.687   3.760
20599WAT      O62038   7.539   8.301   0.612
20599WAT     H162039   7.553   8.209   0.649
20599WAT     H262040   7.479   8.352   0.674
20600WAT      O62041   7.491   1.989   9.602
20600WAT     H162042   7.567   2.009   9.664
20600WAT     H262043   7.409   2.039   9.633
20601WAT      O62044   1.010   4.185   8.806
20601WAT     H162045   1.092   4.202   8.751
20601WAT     H262046   1.018   4.097   8.852
20602WAT      O62047   6.879   7.224   4.572
20602WAT     H162048   6.907   7.231   4.476
20602WAT     H262049   6.921   7.144   4.614
20603WAT      O62050   0.304   8.562   9.115
20603WAT     H162051   0.281   8.624   9.040
20603WAT     H262052   0.355   8.611   9.185
20604WAT      O62053   4.351   8.941   8.147
20604WAT     H162054   4.392   8.976   8.231
20604WAT     H262055   4.422   8.899   8.091
20605WAT      O62056   8.699   3.471   4.072
20605WAT     H162057   8.614   3.522   4.088
20605WAT     H262058   8.765   3.531   4.028
20606WAT      O62059   3.544   5.736   9.235
20606WAT     H162060   3.594   5.728   9.149
20606WAT     H262061   3.493   5.653   9.253
20607WAT      O62062   4.235   2.198   0.551
20607WAT     H162063   4.303   2.270   0.546
20607WAT     H262064   4.165   2.213   0.481
20608WAT      O62065   9.414   5.807   9.525
20608WAT     H162066   9.332   5.835   9.575
20608WAT     H262067   9.443   5.882   9.466
20609WAT      O62068   2.596   0.528   8.026
20609WAT     H162069   2.520   0.494   7.971
20609WAT     H262070   2.647   0.451   8.064
20610WAT      O62071   9.494   3.493   4.225
20610WAT     H162072   9.509   3.394   4.232
20610WAT     H262073   9.512   3.536   4.313
20611WAT      O62074   6.273   3.104   9.361
20611WAT     H162075   6.300   3.017   9.400
20611WAT     H262076   6.202   3.146   9.419
20612WAT      O62077   9.732   4.464   4.697
20612WAT     H162078   9.657   4.407   4.665
20612WAT     H262079   9.697   4.533   4.761
20613WAT      O62080   8.264   5.374   1.332
20613WAT     H162081   8.211   5.329   1.260
20613WAT     H262082   8.261   5.473   1.318
20614WAT      O62083   0.902   2.675   0.818
20614WAT     H162084   0.880   2.770   0.842
20614WAT     H262085   0.992   2.672   0.776
20615WAT      O62086   2.428   6.649   2.825
20615WAT     H162087   2.501   6.580   2.815
20615WAT     H262088   2.359   6.634   2.755
20616WAT      O62089   0.550   8.264   0.141
20616WAT     H162090   0.631   8.322   0.135
20616WAT     H262091   0.498   8.271   0.056
20617WAT      O62092   6.989   2.370   6.060
20617WAT     H162093   7.016   2.334   5.971
20617WAT     H262094   7.055   2.440   6.089
20618WAT      O62095   4.405   2.135   4.384
20618WAT     H162096   4.399   2.137   4.484
20618WAT     H262097   4.330   2.189   4.346
20619WAT      O62098   3.592   5.542   3.636
20619WAT     H162099   3.556   5.477   3.703
20619WAT     H262100   3.568   5.510   3.544
20620WAT      O62101   7.454   2.053   8.660
20620WAT     H162102   7.382   2.114   8.626
20620WAT     H262103   7.464   2.064   8.759
20621WAT      O62104   9.787   2.581   8.095
20621WAT     H162105   9.805   2.641   8.017
20621WAT     H262106   9.873   2.559   8.141
20622WAT      O62107   8.352   6.303   4.692
20622WAT     H162108   8.368   6.390   4.740
20622WAT     H262109   8.436   6.273   4.647
20623WAT      O62110   1.123   8.797   4.415
20623WAT     H162111   1.106   8.865   4.486
20623WAT     H262112   1.196   8.736   4.445
20624WAT      O62113   6.476   2.310   2.547
20624WAT     H162114   6.395   2.365   2.568
20624WAT     H262115   6.467   2.272   2.455
20625WAT      O62116   0.526   0.394   1.101
20625WAT     H162117   0.607   0.446   1.074
20625WAT     H262118   0.456   0.457   1.135
20626WAT      O62119   0.069   4.607   8.547
20626WAT     H162120   0.168   4.592   8.543
20626WAT     H262121   0.043   4.675   8.479
20627WAT      O62122   3.298   8.628   7.830
20627WAT     H162123   3.253   8.677   7.755
20627WAT     H262124   3.229   8.603   7.898
20628WAT      O62125   9.192   0.865   4.608
20628WAT     H162126   9.262   0.935   4.601
20628WAT     H262127   9.123   0.880   4.537
20629WAT      O62128   4.983   4.721   9.187
20629WAT     H162129   5.039   4.639   9.193
20629WAT     H262130   4.989   4.773   9.272
20630WAT      O62131   3.877   0.470   4.712
20630WAT     H162132   3.941   0.470   4.635
20630WAT     H262133   3.796   0.416   4.688
20631WAT      O62134   6.387   3.108   1.342
20631WAT     H162135   6.304   3.133   1.291
20631WAT     H262136   6.467   3.150   1.299
20632WAT      O62137   2.452   6.051   1.989
20632WAT     H162138   2.547   6.064   1.961
20632WAT     H262139   2.396   6.126   1.953
20633WAT      O62140   2.242   0.521   2.858
20633WAT     H162141   2.259   0.466   2.777
20633WAT     H262142   2.311   0.593   2.865
20634WAT      O62143   3.290   4.210   5.436
20634WAT     H162144   3.202   4.252   5.416
20634WAT     H262145   3.282   4.110   5.428
20635WAT      O62146   4.731   1.587   4.791
20635WAT     H162147   4.657   1.632   4.741
20635WAT     H262148   4.794   1.544   4.726
20636WAT      O62149   9.422   1.037   5.369
20636WAT     H162150   9.367   1.120   5.369
20636WAT     H262151   9.487   1.040   5.445
20637WAT      O62152   8.756   9.551   2.536
20637WAT     H162153   8.767   9.480   2.467
20637WAT     H262154   8.821   9.536   2.610
20638WAT      O62155   0.119   7.671   7.888
20638WAT     H162156   0.082   7.758   7.919
20638WAT     H262157   0.188   7.689   7.817
20639WAT      O62158   2.049   6.544   3.208
20639WAT     H162159   2.135   6.504   3.241
20639WAT     H262160   2.053   6.553   3.108
20640WAT      O62161   2.137   3.160   0.934
20640WAT     H162162   2.157   3.152   0.836
20640WAT     H262163   2.216   3.198   0.981
20641WAT      O62164   3.922   5.344   7.818
20641WAT     H162165   3.823   5.339   7.800
20641WAT     H262166   3.963   5.413   7.759
20642WAT      O62167   2.366   5.610   9.418
20642WAT     H162168   2.294   5.611   9.487
20642WAT     H262169   2.453   5.586   9.461
20643WAT      O62170   4.936   1.515   3.730
20643WAT     H162171   4.966   1.550   3.641
20643WAT     H262172   4.913   1.419   3.722
20644WAT      O62173   8.409   6.416   6.776
20644WAT     H162174   8.503   6.392   6.802
20644WAT     H262175   8.368   6.340   6.726
20645WAT      O62176   9.559   8.447   3.474
20645WAT     H162177   9.623   8.471   3.401
20645WAT     H262178   9.548   8.526   3.535
20646WAT      O62179   4.212   2.021   2.600
20646WAT     H162180   4.234   2.028   2.503
20646WAT     H262181   4.180   1.929   2.620
20647WAT      O62182   4.748   5.251   0.134
20647WAT     H162183   4.739   5.189   0.057
20647WAT     H262184   4.789   5.337   0.103
20648WAT      O62185   8.333   5.406   8.733
20648WAT     H162186   8.349   5.404   8.832
20648WAT     H262187   8.236   5.389   8.714
20649WAT      O62188   6.770   1.313   4.046
20649WAT     H162189   6.793   1.292   3.951
20649WAT     H262190   6.849   1.357   4.089
20650WAT      O62191   6.188   9.667   2.511
20650WAT     H162192   6.195   9.750   2.456
20650WAT     H262193   6.267   9.608   2.493
20651WAT      O62194   8.163   1.610   2.241
20651WAT     H162195   8.257   1.626   2.211
20651WAT     H262196   8.120   1.697   2.265
20652WAT      O62197   8.714   8.940   4.088
20652WAT     H162198   8.640   8.924   4.022
20652WAT     H262199   8.674   8.968   4.175
20653WAT      O62200   1.414   6.909   0.088
20653WAT     H162201   1.324   6.953   0.091
20653WAT     H262202   1.403   6.813   0.062
20654WAT      O62203   6.952   8.834   8.653
20654WAT     H162204   6.983   8.917   8.699
20654WAT     H262205   6.868   8.853   8.602
20655WAT      O62206   5.865   7.095   1.162
20655WAT     H162207   5.922   7.158   1.216
20655WAT     H262208   5.904   7.086   1.070
20656WAT      O62209   8.106   3.735   2.487
20656WAT     H162210   8.058   3.650   2.503
20656WAT     H262211   8.205   3.718   2.483
20657WAT      O62212   5.801   5.709   2.993
20657WAT     H162213   5.721   5.699   2.933
20657WAT     H262214   5.852   5.791   2.967
20658WAT      O62215   5.784   3.040   3.057
20658WAT     H162216   5.828   2.952   3.036
20658WAT     H262217   5.854   3.110   3.069
20659WAT      O62218   2.152   2.491   7.628
20659WAT     H162219   2.217   2.567   7.635
20659WAT     H262220   2.071   2.511   7.682
20660WAT      O62221   8.340   1.910   3.509
20660WAT     H162222   8.398   1.990   3.516
20660WAT     H262223   8.328   1.886   3.413
20661WAT      O62224   0.804   3.208   5.379
20661WAT     H162225   0.882   3.260   5.344
20661WAT     H262226   0.771   3.145   5.310
20662WAT      O62227   4.118   9.166   3.558
20662WAT     H162228   4.036   9.158   3.615
20662WAT     H262229   4.128   9.260   3.526
20663WAT      O62230   4.451   8.877   8.574
20663WAT     H162231   4.503   8.819   8.637
20663WAT     H262232   4.433   8.966   8.617
20664WAT      O62233   2.064   4.380   4.564
20664WAT     H162234   2.084   4.341   4.654
20664WAT     H262235   2.133   4.449   4.542
20665WAT      O62236   9.125   6.364   2.143
20665WAT     H162237   9.043   6.346   2.197
20665WAT     H262238   9.190   6.289   2.156
20666WAT      O62239   3.443   4.431   4.784
20666WAT     H162240   3.505   4.478   4.847
20666WAT     H262241   3.404   4.497   4.720
20667WAT      O62242   3.015   8.539   1.579
20667WAT     H162243   2.943   8.473   1.598
20667WAT     H262244   3.043   8.533   1.483
20668WAT      O62245   0.173   0.315   1.542
20668WAT     H162246   0.114   0.385   1.582
20668WAT     H262247   0.171   0.233   1.598
20669WAT      O62248   4.404   5.367   5.399
20669WAT     H162249   4.375   5.335   5.489
20669WAT     H262250   4.502   5.356   5.389
20670WAT      O62251   9.253   0.568   6.651
20670WAT     H162252   9.258   0.483   6.600
20670WAT     H262253   9.336   0.580   6.705
20671WAT      O62254   3.458   3.685   1.621
20671WAT     H162255   3.440   3.684   1.523
20671WAT     H262256   3.550   3.721   1.637
20672WAT      O62257   5.180   2.011   0.776
20672WAT     H162258   5.133   1.991   0.690
20672WAT     H262259   5.177   1.930   0.834
20673WAT      O62260   7.641   3.613   4.587
20673WAT     H162261   7.588   3.530   4.571
20673WAT     H262262   7.581   3.684   4.623
20674WAT      O62263   5.343   3.632   6.576
20674WAT     H162264   5.367   3.687   6.656
20674WAT     H262265   5.425   3.609   6.525
20675WAT      O62266   7.660   5.451   9.563
20675WAT     H162267   7.637   5.453   9.466
20675WAT     H262268   7.732   5.517   9.582
20676WAT      O62269   6.783   9.394   6.339
20676WAT     H162270   6.705   9.332   6.337
20676WAT     H262271   6.779   9.449   6.423
20677WAT      O62272   8.531   3.925   7.238
20677WAT     H162273   8.482   3.845   7.204
20677WAT     H262274   8.512   4.003   7.179
20678WAT      O62275   7.194   2.515   4.863
20678WAT     H162276   7.232   2.425   4.844
20678WAT     H262277   7.112   2.529   4.807
20679WAT      O62278   5.103   2.857   7.048
20679WAT     H162279   5.079   2.922   7.121
20679WAT     H262280   5.201   2.861   7.030
20680WAT      O62281   6.088   5.641   2.819
20680WAT     H162282   6.134   5.729   2.813
20680WAT     H262283   6.091   5.607   2.913
20681WAT      O62284   7.036   9.740   0.420
20681WAT     H162285   7.066   9.816   0.362
20681WAT     H262286   7.105   9.723   0.491
20682WAT      O62287   4.923   9.801   1.121
20682WAT     H162288   4.878   9.774   1.036
20682WAT     H262289   5.020   9.820   1.103
20683WAT      O62290   3.592   2.653   8.422
20683WAT     H162291   3.567   2.658   8.325
20683WAT     H262292   3.514   2.678   8.478
20684WAT      O62293   0.750   2.302   5.884
20684WAT     H162294   0.786   2.388   5.847
20684WAT     H262295   0.732   2.239   5.808
20685WAT      O62296   2.571   8.438   0.406
20685WAT     H162297   2.588   8.526   0.363
20685WAT     H262298   2.499   8.447   0.475
20686WAT      O62299   7.898   0.758   8.264
20686WAT     H162300   7.811   0.743   8.218
20686WAT     H262301   7.956   0.677   8.251
20687WAT      O62302   0.068   9.156   2.073
20687WAT     H162303   0.130   9.179   1.998
20687WAT     H262304   0.109   9.083   2.128
20688WAT      O62305   2.184   2.715   4.797
20688WAT     H162306   2.259   2.768   4.837
20688WAT     H262307   2.203   2.617   4.809
20689WAT      O62308   7.619   0.460   4.905
20689WAT     H162309   7.588   0.514   4.984
20689WAT     H262310   7.680   0.515   4.849
20690WAT      O62311   8.292   7.917   9.891
20690WAT     H162312   8.295   7.911   9.791
20690WAT     H262313   8.271   7.827   9.929
20691WAT      O62314   3.270   1.197   4.812
20691WAT     H162315   3.238   1.229   4.901
20691WAT     H262316   3.202   1.219   4.742
20692WAT      O62317   6.002   1.575   0.186
20692WAT     H162318   5.922   1.518   0.206
20692WAT     H262319   5.976   1.672   0.191
20693WAT      O62320   1.876   0.287   1.941
20693WAT     H162321   1.975   0.281   1.950
20693WAT     H262322   1.851   0.379   1.911
20694WAT      O62323   4.043   6.258   1.922
20694WAT     H162324   3.947   6.283   1.916
20694WAT     H262325   4.060   6.177   1.865
20695WAT      O62326   6.187   2.899   1.652
20695WAT     H162327   6.160   2.905   1.748
20695WAT     H262328   6.287   2.889   1.646
20696WAT      O62329   7.130   9.802   7.788
20696WAT     H162330   7.222   9.775   7.817
20696WAT     H262331   7.086   9.853   7.861
20697WAT      O62332   3.018   6.082   5.577
20697WAT     H162333   2.918   6.073   5.581
20697WAT     H262334   3.052   6.037   5.495
20698WAT      O62335   0.955   0.032   4.406
20698WAT     H162336   0.969   0.075   4.495
20698WAT     H262337   0.934   0.103   4.338
20699WAT      O62338   4.606   6.813   8.086
20699WAT     H162339   4.600   6.714   8.077
20699WAT     H262340   4.602   6.838   8.183
20700WAT      O62341   6.420   2.371   5.316
20700WAT     H162342   6.520   2.364   5.314
20700WAT     H262343   6.386   2.338   5.404
20701WAT      O62344   7.866   6.820   7.828
20701WAT     H162345   7.858   6.806   7.729
20701WAT     H262346   7.843   6.914   7.851
20702WAT      O62347   5.003   1.486   8.312
20702WAT     H162348   5.011   1.388   8.294
20702WAT     H262349   5.019   1.503   8.410
20703WAT      O62350   2.122   6.065   6.567
20703WAT     H162351   2.127   5.970   6.597
20703WAT     H262352   2.183   6.079   6.489
20704WAT      O62353   5.366   1.857   4.135
20704WAT     H162354   5.372   1.764   4.098
20704WAT     H262355   5.298   1.909   4.083
20705WAT      O62356   8.304   2.649   3.897
20705WAT     H162357   8.342   2.741   3.893
20705WAT     H262358   8.242   2.635   3.820
20706WAT      O62359   3.366   0.282   2.734
20706WAT     H162360   3.451   0.322   2.768
20706WAT     H262361   3.349   0.314   2.641
20707WAT      O62362   6.987   1.060   1.108
20707WAT     H162363   6.916   1.080   1.176
20707WAT     H262364   7.063   1.012   1.153
20708WAT      O62365   2.044   8.051   1.068
20708WAT     H162366   2.040   8.018   1.163
20708WAT     H262367   2.106   7.993   1.015
20709WAT      O62368   8.125   2.276   9.079
20709WAT     H162369   8.095   2.370   9.061
20709WAT     H262370   8.138   2.264   9.177
20710WAT      O62371   9.373   5.815   5.074
20710WAT     H162372   9.328   5.740   5.025
20710WAT     H262373   9.314   5.844   5.150
20711WAT      O62374   7.792   0.756   8.688
20711WAT     H162375   7.702   0.794   8.709
20711WAT     H262376   7.860   0.829   8.685
20712WAT      O62377   2.442   8.779   9.321
20712WAT     H162378   2.496   8.802   9.401
20712WAT     H262379   2.473   8.833   9.243
20713WAT      O62380   6.796   7.924   3.914
20713WAT     H162381   6.803   7.904   4.012
20713WAT     H262382   6.879   7.969   3.883
20714WAT      O62383   3.292   1.213   1.889
20714WAT     H162384   3.390   1.196   1.897
20714WAT     H262385   3.272   1.247   1.797
20715WAT      O62386   8.199   3.208   0.764
20715WAT     H162387   8.173   3.116   0.734
20715WAT     H262388   8.126   3.272   0.740
20716WAT      O62389   7.765   7.201   6.421
20716WAT     H162390   7.785   7.137   6.347
20716WAT     H262391   7.682   7.171   6.469
20717WAT      O62392   8.153   9.242   6.861
20717WAT     H162393   8.161   9.241   6.761
20717WAT     H262394   8.069   9.195   6.888
20718WAT      O62395   2.667   9.318   3.934
20718WAT     H162396   2.744   9.264   3.967
20718WAT     H262397   2.601   9.330   4.008
20719WAT      O62398   6.213   0.243   2.786
20719WAT     H162399   6.266   0.326   2.769
20719WAT     H262400   6.266   0.163   2.758
20720WAT      O62401   6.868   7.620   8.930
20720WAT     H162402   6.964   7.617   8.959
20720WAT     H262403   6.851   7.547   8.864
20721WAT      O62404   0.659   4.501   3.518
20721WAT     H162405   0.719   4.477   3.442
20721WAT     H262406   0.631   4.596   3.510
20722WAT      O62407   9.345   1.094   4.127
20722WAT     H162408   9.257   1.134   4.101
20722WAT     H262409   9.335   0.995   4.134
20723WAT      O62410   0.729   4.650   1.141
20723WAT     H162411   0.769   4.692   1.060
20723WAT     H262412   0.743   4.709   1.221
20724WAT      O62413   2.931   9.442   6.450
20724WAT     H162414   2.964   9.534   6.431
20724WAT     H262415   2.874   9.442   6.532
20725WAT      O62416   1.409   4.143   1.958
20725WAT     H162417   1.418   4.169   2.054
20725WAT     H262418   1.425   4.045   1.949
20726WAT      O62419   7.040   2.508   2.826
20726WAT     H162420   6.987   2.425   2.808
20726WAT     H262421   7.033   2.532   2.922
20727WAT      O62422   4.965   8.286   1.371
20727WAT     H162423   5.002   8.378   1.385
20727WAT     H262424   5.030   8.232   1.318
20728WAT      O62425   0.794   8.600   5.603
20728WAT     H162426   0.768   8.565   5.693
20728WAT     H262427   0.713   8.609   5.546
20729WAT      O62428   7.692   6.880   4.444
20729WAT     H162429   7.779   6.879   4.493
20729WAT     H262430   7.662   6.786   4.428
20730WAT      O62431   9.677   1.063   6.977
20730WAT     H162432   9.635   1.151   6.999
20730WAT     H262433   9.774   1.077   6.957
20731WAT      O62434   5.028   1.027   4.314
20731WAT     H162435   5.106   1.074   4.357
20731WAT     H262436   5.002   1.076   4.231
20732WAT      O62437   7.647   0.320   9.431
20732WAT     H162438   7.693   0.401   9.396
20732WAT     H262439   7.644   0.250   9.359
20733WAT      O62440   3.994   7.143   4.322
20733WAT     H162441   3.929   7.097   4.382
20733WAT     H262442   4.087   7.131   4.359
20734WAT      O62443   0.893   4.250   9.070
20734WAT     H162444   0.795   4.263   9.081
20734WAT     H262445   0.926   4.304   8.993
20735WAT      O62446   0.675   6.903   8.434
20735WAT     H162447   0.600   6.874   8.493
20735WAT     H262448   0.664   6.863   8.343
20736WAT      O62449   0.237   1.752   6.658
20736WAT     H162450   0.219   1.835   6.710
20736WAT     H262451   0.175   1.747   6.579
20737WAT      O62452   6.724   5.425   1.264
20737WAT     H162453   6.822   5.443   1.274
20737WAT     H262454   6.701   5.424   1.166
20738WAT      O62455   4.597   8.391   0.573
20738WAT     H162456   4.691   8.357   0.582
20738WAT     H262457   4.535   8.331   0.622
20739WAT      O62458   0.468   5.497   8.842
20739WAT     H162459   0.485   5.562   8.916
20739WAT     H262460   0.502   5.407   8.868
20740WAT      O62461   4.400   5.878   5.601
20740WAT     H162462   4.379   5.797   5.655
20740WAT     H262463   4.390   5.857   5.504
20741WAT      O62464   3.792   4.770   0.558
20741WAT     H162465   3.883   4.748   0.591
20741WAT     H262466   3.725   4.708   0.598
20742WAT      O62467   6.062   7.548   0.137
20742WAT     H162468   5.964   7.540   0.120
20742WAT     H262469   6.112   7.491   0.071
20743WAT      O62470   5.502   5.034   1.637
20743WAT     H162471   5.473   5.086   1.717
20743WAT     H262472   5.602   5.028   1.635
20744WAT      O62473   9.781   6.274   1.463
20744WAT     H162474   9.814   6.303   1.553
20744WAT     H262475   9.681   6.266   1.466
20745WAT      O62476   1.385   9.405   9.361
20745WAT     H162477   1.291   9.383   9.335
20745WAT     H262478   1.399   9.503   9.354
20746WAT      O62479   0.155   6.912   0.138
20746WAT     H162480   0.088   6.876   0.074
20746WAT     H262481   0.108   6.957   0.214
20747WAT      O62482   8.858   5.909   7.513
20747WAT     H162483   8.955   5.886   7.509
20747WAT     H262484   8.834   5.965   7.432
20748WAT      O62485   9.250   1.887   3.209
20748WAT     H162486   9.158   1.852   3.194
20748WAT     H262487   9.282   1.859   3.300
20749WAT      O62488   1.864   5.900   1.841
20749WAT     H162489   1.946   5.854   1.875
20749WAT     H262490   1.794   5.832   1.821
20750WAT      O62491   3.621   0.346   5.408
20750WAT     H162492   3.579   0.403   5.479
20750WAT     H262493   3.562   0.267   5.391
20751WAT      O62494   8.252   5.479   3.292
20751WAT     H162495   8.165   5.517   3.258
20751WAT     H262496   8.241   5.451   3.387
20752WAT      O62497   3.798   8.152   5.477
20752WAT     H162498   3.747   8.139   5.392
20752WAT     H262499   3.740   8.200   5.543
20753WAT      O62500   3.282   3.244   0.126
20753WAT     H162501   3.258   3.226   0.031
20753WAT     H262502   3.351   3.317   0.130
20754WAT      O62503   2.958   9.516   1.711
20754WAT     H162504   3.057   9.531   1.721
20754WAT     H262505   2.939   9.418   1.719
20755WAT      O62506   0.891   9.071   4.919
20755WAT     H162507   0.929   9.143   4.977
20755WAT     H262508   0.955   8.994   4.914
20756WAT      O62509   1.237   8.301   2.310
20756WAT     H162510   1.316   8.361   2.324
20756WAT     H262511   1.169   8.348   2.254
20757WAT      O62512   4.415   0.765   0.973
20757WAT     H162513   4.349   0.828   0.932
20757WAT     H262514   4.431   0.689   0.910
20758WAT      O62515   4.761   5.685   7.474
20758WAT     H162516   4.777   5.591   7.506
20758WAT     H262517   4.842   5.718   7.425
20759WAT      O62518   2.872   4.985   9.072
20759WAT     H162519   2.936   4.958   9.143
20759WAT     H262520   2.817   5.063   9.103
20760WAT      O62521   3.562   7.154   5.629
20760WAT     H162522   3.635   7.207   5.673
20760WAT     H262523   3.552   7.066   5.675
20761WAT      O62524   0.443   1.325   2.524
20761WAT     H162525   0.356   1.349   2.568
20761WAT     H262526   0.483   1.406   2.482
20762WAT      O62527   3.554   6.565   1.436
20762WAT     H162528   3.541   6.545   1.339
20762WAT     H262529   3.568   6.663   1.448
20763WAT      O62530   8.606   4.029   4.773
20763WAT     H162531   8.682   4.087   4.742
20763WAT     H262532   8.638   3.970   4.847
20764WAT      O62533   0.353   2.829   7.532
20764WAT     H162534   0.273   2.827   7.471
20764WAT     H262535   0.433   2.797   7.483
20765WAT      O62536   9.421   1.628   2.458
20765WAT     H162537   9.409   1.528   2.454
20765WAT     H262538   9.486   1.651   2.530
20766WAT      O62539   7.694   7.463   9.048
20766WAT     H162540   7.662   7.549   9.088
20766WAT     H262541   7.674   7.387   9.111
20767WAT      O62542   5.422   4.740   3.048
20767WAT     H162543   5.415   4.718   2.951
20767WAT     H262544   5.506   4.794   3.064
20768WAT      O62545   0.309   1.895   7.568
20768WAT     H162546   0.279   1.959   7.497
20768WAT     H262547   0.409   1.896   7.574
20769WAT      O62548   1.573   8.445   8.896
20769WAT     H162549   1.653   8.411   8.946
20769WAT     H262550   1.588   8.432   8.798
20770WAT      O62551   2.233   6.240   4.566
20770WAT     H162552   2.168   6.313   4.584
20770WAT     H262553   2.192   6.172   4.505
20771WAT      O62554   0.296   6.085   0.030
20771WAT     H162555   0.248   6.017   0.085
20771WAT     H262556   0.259   6.084  -0.063
20772WAT      O62557   2.472   2.726   3.900
20772WAT     H162558   2.523   2.641   3.914
20772WAT     H262559   2.506   2.772   3.817
20773WAT      O62560   6.538   6.934   9.044
20773WAT     H162561   6.468   6.967   8.979
20773WAT     H262562   6.574   7.012   9.096
20774WAT      O62563   7.394   4.840   0.925
20774WAT     H162564   7.297   4.852   0.904
20774WAT     H262565   7.446   4.917   0.888
20775WAT      O62566   7.127   3.421   8.082
20775WAT     H162567   7.088   3.357   8.016
20775WAT     H262568   7.103   3.515   8.056
20776WAT      O62569   2.606   0.804   8.501
20776WAT     H162570   2.581   0.800   8.598
20776WAT     H262571   2.574   0.721   8.455
20777WAT      O62572   3.805   5.700   0.204
20777WAT     H162573   3.896   5.727   0.175
20777WAT     H262574   3.812   5.642   0.285
20778WAT      O62575   1.169   3.386   8.838
20778WAT     H162576   1.207   3.456   8.898
20778WAT     H262577   1.086   3.348   8.878
20779WAT      O62578   1.208   7.717   0.609
20779WAT     H162579   1.121   7.744   0.648
20779WAT     H262580   1.270   7.687   0.682
20780WAT      O62581   2.166   6.277   0.741
20780WAT     H162582   2.161   6.335   0.823
20780WAT     H262583   2.118   6.191   0.758
20781WAT      O62584   9.302   2.801   1.176
20781WAT     H162585   9.242   2.767   1.104
20781WAT     H262586   9.397   2.795   1.145
20782WAT      O62587   4.126   2.590   8.444
20782WAT     H162588   4.159   2.642   8.523
20782WAT     H262589   4.098   2.499   8.473
20783WAT      O62590   9.030   6.434   6.730
20783WAT     H162591   9.070   6.428   6.822
20783WAT     H262592   8.977   6.518   6.722
20784WAT      O62593   5.476   3.520   4.459
20784WAT     H162594   5.560   3.497   4.409
20784WAT     H262595   5.420   3.437   4.469
20785WAT      O62596   6.392   0.943   9.137
20785WAT     H162597   6.326   0.975   9.204
20785WAT     H262598   6.355   0.864   9.088
20786WAT      O62599   5.217   8.479   8.709
20786WAT     H162600   5.178   8.532   8.634
20786WAT     H262601   5.148   8.416   8.744
20787WAT      O62602   1.430   7.918   3.111
20787WAT     H162603   1.382   8.005   3.100
20787WAT     H262604   1.480   7.917   3.198
20788WAT      O62605   6.903   6.313   4.068
20788WAT     H162606   6.813   6.355   4.057
20788WAT     H262607   6.944   6.297   3.978
20789WAT      O62608   0.610   1.881   7.062
20789WAT     H162609   0.568   1.883   7.153
20789WAT     H262610   0.675   1.805   7.057
20790WAT      O62611   9.358   8.119   6.407
20790WAT     H162612   9.278   8.059   6.400
20790WAT     H262613   9.430   8.073   6.459
20791WAT      O62614   4.517   5.827   0.162
20791WAT     H162615   4.448   5.812   0.232
20791WAT     H262616   4.474   5.860   0.078
20792WAT      O62617   0.129   0.986   5.489
20792WAT     H162618   0.160   1.076   5.457
20792WAT     H262619   0.044   0.996   5.540
20793WAT      O62620   7.746   6.406   0.630
20793WAT     H162621   7.657   6.451   0.633
20793WAT     H262622   7.773   6.381   0.723
20794WAT      O62623   5.612   8.362   6.563
20794WAT     H162624   5.620   8.363   6.463
20794WAT     H262625   5.523   8.324   6.589
20795WAT      O62626   0.386   0.642   0.531
20795WAT     H162627   0.398   0.557   0.583
20795WAT     H262628   0.469   0.697   0.537
20796WAT      O62629   4.024   0.586   5.274
20796WAT     H162630   4.064   0.629   5.193
20796WAT     H262631   4.096   0.555   5.335
20797WAT      O62632   0.278   2.820   8.882
20797WAT     H162633   0.334   2.881   8.826
20797WAT     H262634   0.329   2.792   8.963
20798WAT      O62635   3.249   2.819   0.349
20798WAT     H162636   3.326   2.774   0.303
20798WAT     H262637   3.263   2.918   0.349
20799WAT      O62638   6.265   4.835   0.639
20799WAT     H162639   6.236   4.891   0.717
20799WAT     H262640   6.348   4.784   0.663
20800WAT      O62641   4.393   7.707   9.046
20800WAT     H162642   4.421   7.677   8.956
20800WAT     H262643   4.453   7.781   9.077
20801WAT      O62644   7.899   1.953   0.470
20801WAT     H162645   7.801   1.932   0.463
20801WAT     H262646   7.928   2.005   0.390
20802WAT      O62647   4.854   7.352   4.291
20802WAT     H162648   4.800   7.268   4.299
20802WAT     H262649   4.870   7.390   4.382
20803WAT      O62650   5.971   6.318   1.331
20803WAT     H162651   5.904   6.278   1.268
20803WAT     H262652   6.013   6.245   1.385
20804WAT      O62653   1.225   5.667   2.289
20804WAT     H162654   1.141   5.720   2.298
20804WAT     H262655   1.241   5.614   2.372
20805WAT      O62656   2.961   6.984   9.144
20805WAT     H162657   2.910   6.968   9.059
20805WAT     H262658   3.027   7.058   9.129
20806WAT      O62659   1.620   9.612   9.872
20806WAT     H162660   1.573   9.699   9.856
20806WAT     H262661   1.655   9.610   9.965
20807WAT      O62662   8.863   1.231   0.235
20807WAT     H162663   8.883   1.190   0.324
20807WAT     H262664   8.783   1.290   0.242
20808WAT      O62665   4.673   8.435   6.118
20808WAT     H162666   4.621   8.490   6.054
20808WAT     H262667   4.665   8.474   6.210
20809WAT      O62668   5.878   4.728   2.379
20809WAT     H162669   5.921   4.712   2.469
20809WAT     H262670   5.920   4.808   2.336
20810WAT      O62671   3.472   1.101   6.852
20810WAT     H162672   3.431   1.017   6.887
20810WAT     H262673   3.570   1.088   6.840
20811WAT      O62674   8.266   8.349   7.102
20811WAT     H162675   8.315   8.348   7.189
20811WAT     H262676   8.289   8.267   7.050
20812WAT      O62677   4.050   7.724   7.365
20812WAT     H162678   3.995   7.798   7.405
20812WAT     H262679   4.030   7.717   7.268
20813WAT      O62680   7.648   9.821   7.815
20813WAT     H162681   7.703   9.902   7.793
20813WAT     H262682   7.552   9.848   7.824
20814WAT      O62683   3.684   1.261   7.694
20814WAT     H162684   3.657   1.309   7.778
20814WAT     H262685   3.613   1.273   7.625
20815WAT      O62686   2.254   2.373   3.153
20815WAT     H162687   2.268   2.342   3.247
20815WAT     H262688   2.323   2.330   3.094
20816WAT      O62689   5.596   9.381   9.008
20816WAT     H162690   5.665   9.311   8.990
20816WAT     H262691   5.640   9.466   9.036
20817WAT      O62692   8.724   6.993   8.722
20817WAT     H162693   8.814   6.993   8.766
20817WAT     H262694   8.661   6.938   8.775
20818WAT      O62695   5.895   7.965   1.502
20818WAT     H162696   5.876   8.005   1.592
20818WAT     H262697   5.883   7.866   1.507
20819WAT      O62698   5.632   7.922   9.150
20819WAT     H162699   5.614   7.853   9.220
20819WAT     H262700   5.641   8.012   9.193
20820WAT      O62701   7.195   9.120   3.262
20820WAT     H162702   7.132   9.197   3.276
20820WAT     H262703   7.151   9.052   3.203
20821WAT      O62704   2.864   7.426   5.177
20821WAT     H162705   2.897   7.399   5.267
20821WAT     H262706   2.919   7.501   5.141
20822WAT      O62707   2.690   8.570   6.084
20822WAT     H162708   2.616   8.637   6.075
20822WAT     H262709   2.714   8.534   5.993
20823WAT      O62710   5.750   7.418   2.360
20823WAT     H162711   5.680   7.422   2.288
20823WAT     H262712   5.706   7.403   2.448
20824WAT      O62713   5.055   3.735   8.000
20824WAT     H162714   5.120   3.706   7.929
20824WAT     H262715   5.082   3.825   8.035
20825WAT      O62716   0.130   1.705   9.007
20825WAT     H162717   0.108   1.611   9.034
20825WAT     H262718   0.152   1.707   8.910
20826WAT      O62719   4.683   5.730   6.619
20826WAT     H162720   4.598   5.714   6.570
20826WAT     H262721   4.754   5.669   6.583
20827WAT      O62722   0.969   3.981   1.661
20827WAT     H162723   1.011   3.984   1.752
20827WAT     H262724   0.890   3.919   1.663
20828WAT      O62725   7.886   5.998   7.873
20828WAT     H162726   7.856   6.075   7.816
20828WAT     H262727   7.910   5.921   7.815
20829WAT      O62728   0.656   8.730   4.153
20829WAT     H162729   0.733   8.732   4.217
20829WAT     H262730   0.658   8.813   4.097
20830WAT      O62731   8.140   4.855   5.938
20830WAT     H162732   8.060   4.914   5.933
20830WAT     H262733   8.127   4.787   6.011
20831WAT      O62734   9.495   9.005   7.305
20831WAT     H162735   9.588   9.000   7.340
20831WAT     H262736   9.495   9.043   7.213
20832WAT      O62737   6.074   8.856   7.315
20832WAT     H162738   6.055   8.838   7.411
20832WAT     H262739   6.012   8.803   7.258
20833WAT      O62740   6.798   6.853   4.278
20833WAT     H162741   6.813   6.761   4.243
20833WAT     H262742   6.864   6.873   4.350
20834WAT      O62743   1.704   3.361   7.611
20834WAT     H162744   1.767   3.421   7.659
20834WAT     H262745   1.634   3.416   7.565
20835WAT      O62746   9.211   7.119   9.311
20835WAT     H162747   9.136   7.182   9.292
20835WAT     H262748   9.175   7.036   9.353
20836WAT      O62749   6.285   8.989   3.951
20836WAT     H162750   6.260   9.083   3.926
20836WAT     H262751   6.253   8.926   3.880
20837WAT      O62752   9.799   3.763   3.471
20837WAT     H162753   9.824   3.733   3.379
20837WAT     H262754   9.707   3.730   3.492
20838WAT      O62755   4.065   1.062   9.536
20838WAT     H162756   4.042   1.083   9.442
20838WAT     H262757   4.102   0.969   9.541
20839WAT      O62758   6.644   0.492   9.238
20839WAT     H162759   6.629   0.412   9.295
20839WAT     H262760   6.731   0.535   9.262
20840WAT      O62761   6.089   7.198   0.137
20840WAT     H162762   6.037   7.236   0.061
20840WAT     H262763   6.026   7.163   0.206
20841WAT      O62764   6.553   4.953   2.738
20841WAT     H162765   6.538   5.018   2.663
20841WAT     H262766   6.496   4.977   2.816
20842WAT      O62767   4.228   7.084   8.637
20842WAT     H162768   4.311   7.136   8.617
20842WAT     H262769   4.251   7.008   8.698
20843WAT      O62770   5.782   2.803   9.240
20843WAT     H162771   5.820   2.715   9.211
20843WAT     H262772   5.852   2.857   9.285
20844WAT      O62773   5.905   1.242   5.646
20844WAT     H162774   5.904   1.153   5.692
20844WAT     H262775   6.000   1.271   5.631
20845WAT      O62776   1.961   2.859   4.888
20845WAT     H162777   2.030   2.796   4.853
20845WAT     H262778   1.954   2.849   4.987
20846WAT      O62779   3.753   4.250   6.794
20846WAT     H162780   3.827   4.252   6.861
20846WAT     H262781   3.791   4.258   6.702
20847WAT      O62782   5.908   3.769   4.462
20847WAT     H162783   5.858   3.832   4.521
20847WAT     H262784   5.873   3.676   4.476
20848WAT      O62785   2.901   9.043   5.311
20848WAT     H162786   2.972   8.975   5.294
20848WAT     H262787   2.897   9.064   5.409
20849WAT      O62788   0.499   5.389   2.188
20849WAT     H162789   0.506   5.383   2.288
20849WAT     H262790   0.528   5.480   2.158
20850WAT      O62791   4.935   3.912   5.381
20850WAT     H162792   4.997   3.903   5.458
20850WAT     H262793   4.988   3.928   5.297
20851WAT      O62794   1.677   4.409   8.947
20851WAT     H162795   1.660   4.421   8.849
20851WAT     H262796   1.664   4.497   8.994
20852WAT      O62797   3.797   6.334   4.444
20852WAT     H162798   3.790   6.426   4.405
20852WAT     H262799   3.742   6.271   4.390
20853WAT      O62800   2.328   9.481   3.730
20853WAT     H162801   2.368   9.555   3.676
20853WAT     H262802   2.394   9.408   3.741
20854WAT      O62803   4.038   9.757   6.611
20854WAT     H162804   3.990   9.843   6.595
20854WAT     H262805   4.137   9.774   6.614
20855WAT      O62806   3.005   7.287   2.558
20855WAT     H162807   3.092   7.285   2.607
20855WAT     H262808   2.965   7.379   2.564
20856WAT      O62809   1.398   0.637   2.971
20856WAT     H162810   1.331   0.578   2.925
20856WAT     H262811   1.418   0.715   2.912
20857WAT      O62812   5.674   7.531   8.569
20857WAT     H162813   5.718   7.533   8.658
20857WAT     H262814   5.575   7.525   8.580
20858WAT      O62815   3.556   5.570   4.628
20858WAT     H162816   3.509   5.500   4.682
20858WAT     H262817   3.624   5.616   4.685
20859WAT      O62818   5.659   9.357   2.788
20859WAT     H162819   5.694   9.281   2.843
20859WAT     H262820   5.562   9.369   2.806
20860WAT      O62821   8.020   7.299   6.421
20860WAT     H162822   7.922   7.280   6.427
20860WAT     H262823   8.053   7.332   6.509
20861WAT      O62824   2.481   0.995   7.739
20861WAT     H162825   2.400   0.947   7.774
20861WAT     H262826   2.458   1.044   7.656
20862WAT      O62827   5.854   2.399   5.618
20862WAT     H162828   5.902   2.343   5.686
20862WAT     H262829   5.911   2.406   5.536
20863WAT      O62830   1.768   9.683   4.515
20863WAT     H162831   1.696   9.618   4.537
20863WAT     H262832   1.731   9.776   4.522
20864WAT      O62833   2.628   1.641   4.078
20864WAT     H162834   2.566   1.704   4.125
20864WAT     H262835   2.577   1.589   4.010
20865WAT      O62836   5.226   4.883   2.765
20865WAT     H162837   5.165   4.841   2.697
20865WAT     H262838   5.308   4.828   2.774
20866WAT      O62839   3.411   3.496   8.754
20866WAT     H162840   3.455   3.584   8.772
20866WAT     H262841   3.352   3.472   8.831
20867WAT      O62842   8.007   6.680   5.952
20867WAT     H162843   8.038   6.753   5.891
20867WAT     H262844   7.912   6.657   5.933
20868WAT      O62845   2.476   2.245   8.177
20868WAT     H162846   2.389   2.273   8.217
20868WAT     H262847   2.489   2.147   8.191
20869WAT      O62848   3.078   7.581   9.559
20869WAT     H162849   3.123   7.574   9.648
20869WAT     H262850   3.112   7.508   9.499
20870WAT      O62851   9.186   3.156   8.650
20870WAT     H162852   9.228   3.067   8.668
20870WAT     H262853   9.096   3.159   8.694
20871WAT      O62854   0.448   8.466   2.769
20871WAT     H162855   0.399   8.393   2.817
20871WAT     H262856   0.541   8.436   2.749
20872WAT      O62857   9.116   4.596   0.167
20872WAT     H162858   9.179   4.636   0.100
20872WAT     H262859   9.157   4.514   0.206
20873WAT      O62860   3.168   5.589   3.042
20873WAT     H162861   3.257   5.572   3.086
20873WAT     H262862   3.098   5.596   3.113
20874WAT      O62863   6.473   7.525   0.841
20874WAT     H162864   6.534   7.464   0.789
20874WAT     H262865   6.421   7.581   0.777
20875WAT      O62866   9.439   7.936   5.910
20875WAT     H162867   9.363   7.957   5.849
20875WAT     H262868   9.404   7.892   5.993
20876WAT      O62869   8.539   0.706   9.537
20876WAT     H162870   8.624   0.757   9.549
20876WAT     H262871   8.461   0.768   9.549
20877WAT      O62872   5.627   0.637   0.447
20877WAT     H162873   5.675   0.550   0.459
20877WAT     H262874   5.645   0.697   0.524
20878WAT      O62875   7.203   7.775   7.228
20878WAT     H162876   7.255   7.721   7.295
20878WAT     H262877   7.106   7.760   7.242
20879WAT      O62878   1.727   3.570   0.800
20879WAT     H162879   1.672   3.508   0.745
20879WAT     H262880   1.723   3.662   0.761
20880WAT      O62881   7.367   3.724   4.609
20880WAT     H162882   7.343   3.680   4.522
20880WAT     H262883   7.371   3.655   4.681
20881WAT      O62884   8.911   7.474   8.388
20881WAT     H162885   8.909   7.572   8.367
20881WAT     H262886   9.004   7.446   8.411
20882WAT      O62887   3.558   2.775   4.994
20882WAT     H162888   3.634   2.777   5.060
20882WAT     H262889   3.588   2.728   4.911
20883WAT      O62890   8.475   1.872   5.157
20883WAT     H162891   8.564   1.869   5.203
20883WAT     H262892   8.457   1.966   5.126
20884WAT      O62893   4.877   9.033   9.297
20884WAT     H162894   4.960   9.020   9.351
20884WAT     H262895   4.824   9.108   9.336
20885WAT      O62896   8.795   1.754   2.624
20885WAT     H162897   8.801   1.828   2.557
20885WAT     H262898   8.726   1.688   2.595
20886WAT      O62899   0.773   8.329   0.775
20886WAT     H162900   0.692   8.273   0.790
20886WAT     H262901   0.748   8.409   0.720
20887WAT      O62902   3.913   9.100   3.713
20887WAT     H162903   3.904   9.054   3.801
20887WAT     H262904   3.866   9.046   3.642
20888WAT      O62905   9.561   7.359   1.771
20888WAT     H162906   9.599   7.267   1.765
20888WAT     H262907   9.620   7.416   1.827
20889WAT      O62908   6.338   8.357   0.455
20889WAT     H162909   6.257   8.413   0.471
20889WAT     H262910   6.313   8.260   0.462
20890WAT      O62911   7.768   0.911   9.250
20890WAT     H162912   7.719   0.977   9.194
20890WAT     H262913   7.797   0.954   9.335
20891WAT      O62914   7.718   8.101   7.743
20891WAT     H162915   7.660   8.072   7.819
20891WAT     H262916   7.662   8.116   7.662
20892WAT      O62917   0.262   6.062   7.787
20892WAT     H162918   0.293   6.076   7.693
20892WAT     H262919   0.162   6.049   7.787
20893WAT      O62920   5.722   8.469   6.770
20893WAT     H162921   5.658   8.466   6.847
20893WAT     H262922   5.677   8.435   6.687
20894WAT      O62923   7.130   7.673   3.166
20894WAT     H162924   7.090   7.667   3.258
20894WAT     H262925   7.212   7.730   3.169
20895WAT      O62926   3.208   2.360   2.701
20895WAT     H162927   3.295   2.388   2.741
20895WAT     H262928   3.187   2.266   2.729
20896WAT      O62929   7.516   2.726   0.264
20896WAT     H162930   7.457   2.769   0.333
20896WAT     H262931   7.459   2.682   0.194
20897WAT      O62932   8.530   4.182   2.883
20897WAT     H162933   8.466   4.105   2.881
20897WAT     H262934   8.623   4.148   2.871
20898WAT      O62935   8.734   8.203   7.371
20898WAT     H162936   8.727   8.265   7.450
20898WAT     H262937   8.692   8.246   7.291
20899WAT      O62938   2.371   7.505   3.690
20899WAT     H162939   2.394   7.602   3.678
20899WAT     H262940   2.453   7.455   3.718
20900WAT      O62941   2.906   8.959   2.535
20900WAT     H162942   2.956   9.010   2.606
20900WAT     H262943   2.900   9.015   2.453
20901WAT      O62944   9.426   7.898   0.682
20901WAT     H162945   9.449   7.994   0.663
20901WAT     H262946   9.328   7.884   0.666
20902WAT      O62947   1.705   7.077   0.956
20902WAT     H162948   1.652   6.994   0.936
20902WAT     H262949   1.649   7.139   1.011
20903WAT      O62950   1.822   7.824   8.693
20903WAT     H162951   1.765   7.754   8.736
20903WAT     H262952   1.858   7.886   8.763
20904WAT      O62953   2.923   3.852   2.496
20904WAT     H162954   2.988   3.913   2.541
20904WAT     H262955   2.830   3.880   2.518
20905WAT      O62956   7.916   4.643   8.998
20905WAT     H162957   7.984   4.663   8.927
20905WAT     H262958   7.940   4.559   9.045
20906WAT      O62959   1.830   9.415   1.228
20906WAT     H162960   1.863   9.330   1.269
20906WAT     H262961   1.739   9.435   1.264
20907WAT      O62962   2.589   8.647   1.166
20907WAT     H162963   2.634   8.657   1.255
20907WAT     H262964   2.544   8.733   1.142
20908WAT      O62965   7.780   6.548   2.823
20908WAT     H162966   7.714   6.614   2.787
20908WAT     H262967   7.817   6.493   2.749
20909WAT      O62968   8.969   9.346   0.581
20909WAT     H162969   8.974   9.442   0.607
20909WAT     H262970   8.946   9.339   0.484
20910WAT      O62971   2.208   5.184   2.983
20910WAT     H162972   2.249   5.099   2.950
20910WAT     H262973   2.179   5.171   3.078
20911WAT      O62974   5.620   4.674   1.728
20911WAT     H162975   5.671   4.755   1.755
20911WAT     H262976   5.584   4.628   1.809
20912WAT      O62977   3.026   6.723   4.509
20912WAT     H162978   3.012   6.645   4.571
20912WAT     H262979   3.004   6.695   4.416
20913WAT      O62980   7.221   9.194   2.214
20913WAT     H162981   7.138   9.143   2.190
20913WAT     H262982   7.265   9.227   2.130
20914WAT      O62983   2.356   6.195   1.423
20914WAT     H162984   2.355   6.292   1.446
20914WAT     H262985   2.345   6.141   1.507
20915WAT      O62986   7.327   4.773   9.094
20915WAT     H162987   7.269   4.853   9.110
20915WAT     H262988   7.296   4.697   9.151
20916WAT      O62989   1.681   9.446   7.450
20916WAT     H162990   1.716   9.354   7.435
20916WAT     H262991   1.615   9.468   7.378
20917WAT      O62992   8.042   9.264   7.926
20917WAT     H162993   7.981   9.326   7.974
20917WAT     H262994   7.990   9.187   7.890
20918WAT      O62995   8.195   3.575   6.586
20918WAT     H162996   8.212   3.486   6.545
20918WAT     H262997   8.276   3.604   6.637
20919WAT      O62998   9.063   5.346   8.387
20919WAT     H162999   9.005   5.267   8.364
20919WAT     H263000   9.044   5.421   8.324
20920WAT      O63001   5.718   2.201   4.540
20920WAT     H163002   5.778   2.129   4.505
20920WAT     H263003   5.694   2.181   4.635
20921WAT      O63004   5.882   1.853   8.096
20921WAT     H163005   5.847   1.787   8.162
20921WAT     H263006   5.948   1.808   8.036
20922WAT      O63007   2.441   4.666   7.657
20922WAT     H163008   2.358   4.621   7.625
20922WAT     H263009   2.507   4.596   7.687
20923WAT      O63010   5.686   7.237   8.551
20923WAT     H163011   5.715   7.332   8.561
20923WAT     H263012   5.766   7.179   8.538
20924WAT      O63013   4.930   7.101   4.546
20924WAT     H163014   4.914   7.008   4.513
20924WAT     H263015   4.887   7.166   4.484
20925WAT      O63016   7.783   4.823   2.851
20925WAT     H163017   7.779   4.750   2.919
20925WAT     H263018   7.745   4.907   2.889
20926WAT      O63019   7.749   7.094   9.578
20926WAT     H163020   7.806   7.033   9.633
20926WAT     H263021   7.659   7.053   9.566
20927WAT      O63022   7.701   4.351   0.138
20927WAT     H163023   7.639   4.274   0.123
20927WAT     H263024   7.710   4.404   0.054
20928WAT      O63025   5.945   5.729   5.281
20928WAT     H163026   5.853   5.704   5.251
20928WAT     H263027   6.005   5.650   5.271
20929WAT      O63028   5.275   8.214   3.358
20929WAT     H163029   5.243   8.124   3.389
20929WAT     H263030   5.204   8.258   3.303
20930WAT      O63031   6.011   4.689   8.564
20930WAT     H163032   6.009   4.673   8.465
20930WAT     H263033   5.981   4.606   8.611
20931WAT      O63034   0.105   1.990   4.605
20931WAT     H163035   0.010   2.017   4.621
20931WAT     H263036   0.157   2.069   4.571
20932WAT      O63037   4.688   2.364   5.156
20932WAT     H163038   4.754   2.293   5.129
20932WAT     H263039   4.717   2.405   5.242
20933WAT      O63040   5.954   3.950   1.854
20933WAT     H163041   5.907   3.961   1.766
20933WAT     H263042   5.892   3.974   1.928
20934WAT      O63043   4.063   2.980   4.218
20934WAT     H163044   4.082   3.045   4.145
20934WAT     H263045   4.026   3.028   4.297
20935WAT      O63046   1.892   7.198   7.432
20935WAT     H163047   1.904   7.112   7.482
20935WAT     H263048   1.796   7.224   7.432
20936WAT      O63049   4.200   9.457   6.381
20936WAT     H163050   4.132   9.471   6.453
20936WAT     H263051   4.267   9.390   6.412
20937WAT      O63052   2.888   2.423   7.338
20937WAT     H163053   2.797   2.416   7.378
20937WAT     H263054   2.943   2.489   7.390
20938WAT      O63055   2.774   7.561   0.030
20938WAT     H163056   2.839   7.626   0.069
20938WAT     H263057   2.684   7.603   0.026
20939WAT      O63058   5.150   8.378   4.438
20939WAT     H163059   5.112   8.440   4.507
20939WAT     H263060   5.139   8.418   4.347
20940WAT      O63061   1.925   0.123   0.682
20940WAT     H163062   2.018   0.134   0.717
20940WAT     H263063   1.928   0.111   0.582
20941WAT      O63064   0.832   2.157   8.640
20941WAT     H163065   0.848   2.154   8.542
20941WAT     H263066   0.805   2.067   8.673
20942WAT      O63067   2.628   9.349   5.822
20942WAT     H163068   2.707   9.297   5.855
20942WAT     H263069   2.635   9.444   5.853
20943WAT      O63070   6.131   6.277   5.624
20943WAT     H163071   6.118   6.367   5.666
20943WAT     H263072   6.107   6.283   5.527
20944WAT      O63073   5.925   0.171   4.720
20944WAT     H163074   5.870   0.189   4.801
20944WAT     H263075   5.872   0.120   4.653
20945WAT      O63076   4.282   1.918   4.607
20945WAT     H163077   4.303   1.830   4.563
20945WAT     H263078   4.358   1.943   4.667
20946WAT      O63079   3.185   5.670   0.636
20946WAT     H163080   3.279   5.657   0.605
20946WAT     H263081   3.181   5.661   0.736
20947WAT      O63082   3.261   1.438   9.687
20947WAT     H163083   3.254   1.402   9.594
20947WAT     H263084   3.331   1.508   9.691
20948WAT      O63085   9.070   5.976   3.737
20948WAT     H163086   9.059   5.879   3.715
20948WAT     H263087   9.037   6.032   3.660
20949WAT      O63088   1.015   7.501   6.082
20949WAT     H163089   1.088   7.554   6.126
20949WAT     H263090   0.967   7.559   6.016
20950WAT      O63091   7.569   9.200   8.694
20950WAT     H163092   7.519   9.127   8.740
20950WAT     H263093   7.506   9.253   8.637
20951WAT      O63094   4.460   3.577   3.675
20951WAT     H163095   4.478   3.657   3.732
20951WAT     H263096   4.422   3.503   3.731
20952WAT      O63097   2.307   5.233   9.839
20952WAT     H163098   2.304   5.170   9.761
20952WAT     H263099   2.393   5.219   9.890
20953WAT      O63100   2.269   3.051   3.058
20953WAT     H163101   2.247   3.123   3.123
20953WAT     H263102   2.324   2.981   3.102
20954WAT      O63103   3.815   2.665   7.846
20954WAT     H163104   3.778   2.573   7.834
20954WAT     H263105   3.859   2.673   7.935
20955WAT      O63106   2.082   1.092   2.968
20955WAT     H163107   2.022   1.073   3.046
20955WAT     H263108   2.177   1.094   2.999
20956WAT      O63109   9.533   8.546   8.789
20956WAT     H163110   9.456   8.595   8.748
20956WAT     H263111   9.557   8.468   8.732
20957WAT      O63112   4.371   9.811   4.317
20957WAT     H163113   4.326   9.726   4.342
20957WAT     H263114   4.313   9.863   4.255
20958WAT      O63115   6.390   8.319   7.819
20958WAT     H163116   6.349   8.230   7.838
20958WAT     H263117   6.451   8.312   7.740
20959WAT      O63118   2.936   4.718   5.650
20959WAT     H163119   2.838   4.720   5.628
20959WAT     H263120   2.984   4.667   5.579
20960WAT      O63121   7.107   0.787   8.082
20960WAT     H163122   7.090   0.800   8.180
20960WAT     H263123   7.026   0.746   8.040
20961WAT      O63124   9.311   2.129   6.351
20961WAT     H163125   9.265   2.126   6.262
20961WAT     H263126   9.322   2.037   6.387
20962WAT      O63127   0.792   8.092   2.141
20962WAT     H163128   0.733   8.169   2.116
20962WAT     H263129   0.737   8.010   2.151
20963WAT      O63130   7.672   9.563   9.025
20963WAT     H163131   7.662   9.546   8.927
20963WAT     H263132   7.763   9.534   9.055
20964WAT      O63133   1.378   0.890   0.834
20964WAT     H163134   1.354   0.944   0.753
20964WAT     H263135   1.295   0.856   0.878
20965WAT      O63136   0.351   9.605   9.025
20965WAT     H163137   0.339   9.698   8.993
20965WAT     H263138   0.265   9.555   9.018
20966WAT      O63139   1.954   2.509   4.068
20966WAT     H163140   1.988   2.592   4.113
20966WAT     H263141   1.869   2.530   4.020
20967WAT      O63142   2.732   4.797   0.010
20967WAT     H163143   2.649   4.807  -0.046
20967WAT     H263144   2.800   4.863  -0.020
20968WAT      O63145   8.501   9.243   5.031
20968WAT     H163146   8.428   9.296   4.988
20968WAT     H263147   8.565   9.212   4.962
20969WAT      O63148   2.242   0.831   4.906
20969WAT     H163149   2.199   0.919   4.928
20969WAT     H263150   2.184   0.781   4.842
20970WAT      O63151   8.227   6.236   2.701
20970WAT     H163152   8.220   6.269   2.795
20970WAT     H263153   8.314   6.264   2.662
20971WAT      O63154   5.735   3.089   6.404
20971WAT     H163155   5.817   3.078   6.460
20971WAT     H263156   5.700   3.182   6.413
20972WAT      O63157   0.129   8.115   7.262
20972WAT     H163158   0.059   8.050   7.230
20972WAT     H263159   0.220   8.078   7.241
20973WAT      O63160   6.427   8.993   4.224
20973WAT     H163161   6.390   8.961   4.137
20973WAT     H263162   6.437   9.092   4.221
20974WAT      O63163   0.562   9.740   7.219
20974WAT     H163164   0.568   9.641   7.230
20974WAT     H263165   0.549   9.762   7.123
20975WAT      O63166   9.182   0.680   1.948
20975WAT     H163167   9.118   0.745   1.906
20975WAT     H263168   9.271   0.723   1.960
20976WAT      O63169   9.229   1.464   5.455
20976WAT     H163170   9.273   1.468   5.545
20976WAT     H263171   9.222   1.369   5.425
20977WAT      O63172   1.883   4.584   1.680
20977WAT     H163173   1.956   4.652   1.687
20977WAT     H263174   1.816   4.600   1.753
20978WAT      O63175   4.923   1.161   8.387
20978WAT     H163176   4.840   1.190   8.339
20978WAT     H263177   4.903   1.151   8.484
20979WAT      O63178   1.724   5.903   1.261
20979WAT     H163179   1.648   5.872   1.318
20979WAT     H263180   1.748   5.832   1.195
20980WAT      O63181   3.819   8.158   3.450
20980WAT     H163182   3.854   8.187   3.361
20980WAT     H263183   3.750   8.087   3.437
20981WAT      O63184   8.801   7.539   1.469
20981WAT     H163185   8.827   7.501   1.558
20981WAT     H263186   8.703   7.560   1.469
20982WAT      O63187   9.277   6.831   4.968
20982WAT     H163188   9.277   6.918   5.016
20982WAT     H263189   9.360   6.823   4.914
20983WAT      O63190   1.955   4.476   2.570
20983WAT     H163191   1.908   4.389   2.580
20983WAT     H263192   1.996   4.503   2.657
20984WAT      O63193   1.955   2.113   7.554
20984WAT     H163194   1.996   2.022   7.546
20984WAT     H263195   1.877   2.120   7.492
20985WAT      O63196   8.346   3.972   5.300
20985WAT     H163197   8.255   3.947   5.332
20985WAT     H263198   8.368   4.065   5.330
20986WAT      O63199   5.315   8.915   4.255
20986WAT     H163200   5.302   9.011   4.229
20986WAT     H263201   5.381   8.910   4.330
20987WAT      O63202   5.591   1.176   6.998
20987WAT     H163203   5.556   1.082   6.997
20987WAT     H263204   5.674   1.182   6.943
20988WAT      O63205   2.613   6.736   7.420
20988WAT     H163206   2.693   6.713   7.363
20988WAT     H263207   2.563   6.811   7.378
20989WAT      O63208   1.580   7.791   8.334
20989WAT     H163209   1.669   7.836   8.325
20989WAT     H263210   1.513   7.856   8.369
20990WAT      O63211   3.229   2.330   1.932
20990WAT     H163212   3.207   2.299   1.840
20990WAT     H263213   3.144   2.337   1.986
20991WAT      O63214   3.958   1.992   6.519
20991WAT     H163215   4.008   1.983   6.606
20991WAT     H263216   3.889   1.920   6.513
20992WAT      O63217   2.651   5.011   6.138
20992WAT     H163218   2.619   5.105   6.125
20992WAT     H263219   2.573   4.950   6.149
20993WAT      O63220   5.997   5.319   9.528
20993WAT     H163221   6.011   5.225   9.558
20993WAT     H263222   5.909   5.352   9.561
20994WAT      O63223   0.460   3.873   0.329
20994WAT     H163224   0.439   3.835   0.419
20994WAT     H263225   0.384   3.855   0.267
20995WAT      O63226   5.837   2.669   2.492
20995WAT     H163227   5.810   2.627   2.405
20995WAT     H263228   5.794   2.759   2.500
20996WAT      O63229   6.572   2.702   9.641
20996WAT     H163230   6.485   2.654   9.643
20996WAT     H263231   6.613   2.701   9.733
20997WAT      O63232   5.627   1.016   9.267
20997WAT     H163233   5.616   0.949   9.340
20997WAT     H263234   5.714   1.001   9.221
20998WAT      O63235   7.884   7.028   6.266
20998WAT     H163236   7.887   6.931   6.241
20998WAT     H263237   7.969   7.072   6.238
20999WAT      O63238   3.015   8.618   5.370
20999WAT     H163239   3.108   8.654   5.376
20999WAT     H263240   3.006   8.564   5.286
21000WAT      O63241   7.413   0.444   2.598
21000WAT     H163242   7.457   0.487   2.677
21000WAT     H263243   7.438   0.494   2.515
21001WAT      O63244   9.796   0.186   0.390
21001WAT     H163245   9.720   0.239   0.352
21001WAT     H263246   9.806   0.101   0.339
21002WAT      O63247   5.059   0.794   9.071
21002WAT     H163248   5.088   0.773   9.164
21002WAT     H263249   5.117   0.743   9.006
21003WAT      O63250   4.958   9.187   7.208
21003WAT     H163251   4.936   9.128   7.130
21003WAT     H263252   5.052   9.170   7.237
21004WAT      O63253   5.274   4.160   1.567
21004WAT     H163254   5.230   4.235   1.615
21004WAT     H263255   5.354   4.130   1.619
21005WAT      O63256   2.106   4.274   2.991
21005WAT     H163257   2.034   4.210   3.017
21005WAT     H263258   2.144   4.248   2.902
21006WAT      O63259   1.725   1.158   2.189
21006WAT     H163260   1.643   1.190   2.140
21006WAT     H263261   1.736   1.210   2.273
21007WAT      O63262   6.283   5.743   7.293
21007WAT     H163263   6.263   5.840   7.275
21007WAT     H263264   6.298   5.696   7.206
21008WAT      O63265   5.389   2.557   6.624
21008WAT     H163266   5.373   2.601   6.535
21008WAT     H263267   5.319   2.586   6.688
21009WAT      O63268   4.239   9.248   9.873
21009WAT     H163269   4.254   9.322   9.938
21009WAT     H263270   4.324   9.196   9.862
21010WAT      O63271   9.293   3.714   3.905
21010WAT     H163272   9.198   3.688   3.885
21010WAT     H263273   9.298   3.813   3.919
21011WAT      O63274   0.589   1.248   9.484
21011WAT     H163275   0.599   1.217   9.389
21011WAT     H263276   0.666   1.307   9.508
21012WAT      O63277   5.746   8.996   1.743
21012WAT     H163278   5.794   9.023   1.826
21012WAT     H263279   5.719   8.900   1.750
21013WAT      O63280   4.553   6.546   0.197
21013WAT     H163281   4.487   6.521   0.268
21013WAT     H263282   4.532   6.637   0.163
21014WAT      O63283   2.003   0.035   8.607
21014WAT     H163284   2.030   0.069   8.517
21014WAT     H263285   2.043  -0.056   8.622
21015WAT      O63286   7.191   4.902   4.685
21015WAT     H163287   7.190   5.000   4.704
21015WAT     H263288   7.195   4.888   4.586
21016WAT      O63289   3.330   4.282   3.718
21016WAT     H163290   3.388   4.283   3.799
21016WAT     H263291   3.372   4.338   3.646
21017WAT      O63292   9.773   6.196   9.629
21017WAT     H163293   9.676   6.217   9.622
21017WAT     H263294   9.798   6.187   9.726
21018WAT      O63295   6.766   1.527   8.012
21018WAT     H163296   6.755   1.454   7.945
21018WAT     H263297   6.842   1.586   7.987
21019WAT      O63298   8.002   7.163   0.771
21019WAT     H163299   7.966   7.256   0.762
21019WAT     H263300   7.939   7.099   0.728
21020WAT      O63301   9.344   8.292   2.237
21020WAT     H163302   9.419   8.238   2.198
21020WAT     H263303   9.367   8.318   2.330
21021WAT      O63304   4.982   1.607   9.871
21021WAT     H163305   4.943   1.543   9.937
21021WAT     H263306   4.908   1.659   9.828
21022WAT      O63307   3.689   1.554   1.666
21022WAT     H163308   3.599   1.559   1.708
21022WAT     H263309   3.753   1.611   1.716
21023WAT      O63310   6.146   1.517   9.649
21023WAT     H163311   6.056   1.496   9.611
21023WAT     H263312   6.136   1.578   9.727
21024WAT      O63313   6.016   1.096   1.435
21024WAT     H163314   5.923   1.087   1.398
21024WAT     H263315   6.020   1.052   1.525
21025WAT      O63316   0.665   0.407   0.189
21025WAT     H163317   0.586   0.378   0.243
21025WAT     H263318   0.677   0.346   0.111
21026WAT      O63319   1.789   9.244   9.196
21026WAT     H163320   1.799   9.192   9.281
21026WAT     H263321   1.849   9.205   9.126
21027WAT      O63322   1.102   1.081   9.113
21027WAT     H163323   1.164   1.031   9.173
21027WAT     H263324   1.070   1.163   9.160
21028WAT      O63325   3.246   4.014   9.207
21028WAT     H163326   3.222   3.936   9.264
21028WAT     H263327   3.167   4.039   9.151
21029WAT      O63328   4.005   9.649   4.677
21029WAT     H163329   3.934   9.623   4.612
21029WAT     H263330   4.012   9.749   4.681
21030WAT      O63331   3.295   8.561   1.336
21030WAT     H163332   3.357   8.636   1.312
21030WAT     H263333   3.217   8.560   1.274
21031WAT      O63334   2.061   1.195   0.474
21031WAT     H163335   1.963   1.206   0.461
21031WAT     H263336   2.085   1.099   0.462
21032WAT      O63337   4.734   2.267   2.963
21032WAT     H163338   4.744   2.235   3.057
21032WAT     H263339   4.641   2.300   2.948
21033WAT      O63340   0.247   3.896   0.895
21033WAT     H163341   0.260   3.888   0.797
21033WAT     H263342   0.193   3.819   0.928
21034WAT      O63343   8.195   7.643   3.550
21034WAT     H163344   8.194   7.698   3.466
21034WAT     H263345   8.179   7.547   3.528
21035WAT      O63346   3.353   3.828   8.218
21035WAT     H163347   3.397   3.912   8.250
21035WAT     H263348   3.271   3.810   8.273
21036WAT      O63349   9.472   2.618   2.960
21036WAT     H163350   9.532   2.642   3.035
21036WAT     H263351   9.425   2.532   2.980
21037WAT      O63352   4.431   4.370   2.529
21037WAT     H163353   4.354   4.313   2.559
21037WAT     H263354   4.457   4.346   2.436
21038WAT      O63355   9.445   5.593   7.862
21038WAT     H163356   9.485   5.678   7.827
21038WAT     H263357   9.479   5.516   7.808
21039WAT      O63358   2.349   7.218   7.696
21039WAT     H163359   2.274   7.259   7.645
21039WAT     H263360   2.372   7.129   7.656
21040WAT      O63361   8.735   1.442   9.884
21040WAT     H163362   8.651   1.452   9.937
21040WAT     H263363   8.742   1.349   9.847
21041WAT      O63364   0.453   9.004   3.402
21041WAT     H163365   0.494   9.092   3.380
21041WAT     H263366   0.458   8.988   3.500
21042WAT      O63367   2.641   9.657   2.667
21042WAT     H163368   2.642   9.566   2.710
21042WAT     H263369   2.734   9.683   2.642
21043WAT      O63370   2.730   4.637   1.470
21043WAT     H163371   2.706   4.554   1.521
21043WAT     H263372   2.657   4.659   1.405
21044WAT      O63373   4.246   4.073   1.982
21044WAT     H163374   4.270   3.997   1.922
21044WAT     H263375   4.223   4.038   2.073
21045WAT      O63376   8.339   0.936   6.246
21045WAT     H163377   8.324   0.895   6.156
21045WAT     H263378   8.351   0.864   6.314
21046WAT      O63379   6.335   8.713   8.901
21046WAT     H163380   6.337   8.699   9.000
21046WAT     H263381   6.428   8.709   8.865
21047WAT      O63382   7.030   7.884   1.891
21047WAT     H163383   6.990   7.970   1.859
21047WAT     H263384   7.087   7.845   1.819
21048WAT      O63385   1.764   4.883   3.517
21048WAT     H163386   1.860   4.912   3.522
21048WAT     H263387   1.716   4.938   3.448
21049WAT      O63388   7.671   0.420   7.591
21049WAT     H163389   7.704   0.343   7.537
21049WAT     H263390   7.748   0.479   7.617
21050WAT      O63391   0.511   4.150   1.056
21050WAT     H163392   0.588   4.144   0.993
21050WAT     H263393   0.528   4.091   1.135
21051WAT      O63394   7.294   7.560   5.786
21051WAT     H163395   7.311   7.536   5.691
21051WAT     H263396   7.253   7.651   5.791
21052WAT      O63397   8.726   6.696   9.705
21052WAT     H163398   8.685   6.783   9.677
21052WAT     H263399   8.689   6.669   9.794
21053WAT      O63400   8.905   8.351   6.924
21053WAT     H163401   8.914   8.297   7.009
21053WAT     H263402   8.917   8.290   6.845
21054WAT      O63403   6.559   1.384   2.740
21054WAT     H163404   6.581   1.479   2.763
21054WAT     H263405   6.498   1.383   2.660
21055WAT      O63406   8.068   7.907   4.619
21055WAT     H163407   8.053   7.920   4.717
21055WAT     H263408   8.096   7.993   4.577
21056WAT      O63409   5.329   8.862   2.138
21056WAT     H163410   5.371   8.932   2.081
21056WAT     H263411   5.319   8.777   2.085
21057WAT      O63412   1.430   3.314   3.444
21057WAT     H163413   1.478   3.354   3.366
21057WAT     H263414   1.335   3.346   3.444
21058WAT      O63415   8.678   2.759   3.441
21058WAT     H163416   8.713   2.836   3.495
21058WAT     H263417   8.754   2.700   3.414
21059WAT      O63418   0.072   0.098   5.829
21059WAT     H163419   0.130   0.018   5.841
21059WAT     H263420   0.128   0.181   5.837
21060WAT      O63421   7.360   0.191   5.113
21060WAT     H163422   7.305   0.136   5.050
21060WAT     H263423   7.311   0.275   5.136
21061WAT      O63424   4.155   6.239   9.094
21061WAT     H163425   4.056   6.240   9.080
21061WAT     H263426   4.175   6.202   9.185
21062WAT      O63427   9.741   1.805   4.755
21062WAT     H163428   9.656   1.775   4.799
21062WAT     H263429   9.733   1.901   4.730
21063WAT      O63430   9.230   8.789   5.832
21063WAT     H163431   9.327   8.802   5.848
21063WAT     H263432   9.189   8.876   5.804
21064WAT      O63433   9.126   5.485   5.424
21064WAT     H163434   9.217   5.484   5.383
21064WAT     H263435   9.078   5.401   5.400
21065WAT      O63436   1.952   4.753   8.194
21065WAT     H163437   1.961   4.760   8.294
21065WAT     H263438   1.909   4.836   8.159
21066WAT      O63439   9.888   3.091   2.825
21066WAT     H163440   9.913   3.002   2.788
21066WAT     H263441   9.851   3.080   2.918
21067WAT      O63442   4.255   5.534   5.237
21067WAT     H163443   4.199   5.490   5.166
21067WAT     H263444   4.301   5.463   5.291
21068WAT      O63445   0.100   8.230   0.221
21068WAT     H163446   0.124   8.138   0.190
21068WAT     H263447   0.121   8.238   0.319
21069WAT      O63448   4.265   4.192   5.094
21069WAT     H163449   4.241   4.174   5.190
21069WAT     H263450   4.263   4.290   5.077
21070WAT      O63451   9.681   4.648   1.024
21070WAT     H163452   9.625   4.590   0.964
21070WAT     H263453   9.731   4.715   0.969
21071WAT      O63454   4.913   4.592   9.475
21071WAT     H163455   4.908   4.539   9.559
21071WAT     H263456   4.882   4.536   9.398
21072WAT      O63457   9.026   4.991   7.949
21072WAT     H163458   8.940   4.962   7.990
21072WAT     H263459   9.100   4.982   8.015
21073WAT      O63460   5.619   6.466   6.880
21073WAT     H163461   5.717   6.474   6.865
21073WAT     H263462   5.593   6.521   6.959
21074WAT      O63463   3.208   3.591   5.797
21074WAT     H163464   3.146   3.526   5.754
21074WAT     H263465   3.231   3.664   5.733
21075WAT      O63466   0.173   4.532   0.379
21075WAT     H163467   0.258   4.525   0.433
21075WAT     H263468   0.111   4.596   0.423
21076WAT      O63469   7.624   7.941   6.681
21076WAT     H163470   7.608   8.021   6.622
21076WAT     H263471   7.576   7.954   6.768
21077WAT      O63472   9.436   5.950   0.826
21077WAT     H163473   9.422   5.986   0.734
21077WAT     H263474   9.411   5.853   0.828
21078WAT      O63475   4.725   7.099   4.343
21078WAT     H163476   4.630   7.067   4.352
21078WAT     H263477   4.773   7.043   4.276
21079WAT      O63478   7.029   4.799   8.920
21079WAT     H163479   7.014   4.707   8.958
21079WAT     H263480   7.101   4.796   8.851
21080WAT      O63481   6.954   2.821   4.168
21080WAT     H163482   6.896   2.837   4.088
21080WAT     H263483   7.001   2.733   4.157
21081WAT      O63484   9.045   0.644   9.888
21081WAT     H163485   9.031   0.569   9.823
21081WAT     H263486   9.040   0.607   9.982
21082WAT      O63487   3.193   0.537   8.831
21082WAT     H163488   3.161   0.443   8.838
21082WAT     H263489   3.281   0.539   8.783
21083WAT      O63490   8.486   3.657   7.919
21083WAT     H163491   8.467   3.563   7.892
21083WAT     H263492   8.580   3.664   7.953
21084WAT      O63493   8.553   4.802   6.692
21084WAT     H163494   8.565   4.884   6.747
21084WAT     H263495   8.511   4.730   6.747
21085WAT      O63496   0.703   2.852   8.134
21085WAT     H163497   0.764   2.929   8.153
21085WAT     H263498   0.730   2.774   8.190
21086WAT      O63499   2.439   9.809   3.730
21086WAT     H163500   2.426   9.894   3.678
21086WAT     H263501   2.480   9.831   3.818
21087WAT      O63502   9.575   2.303   8.643
21087WAT     H163503   9.501   2.266   8.587
21087WAT     H263504   9.590   2.244   8.722
21088WAT      O63505   8.180   4.750   0.955
21088WAT     H163506   8.155   4.732   1.050
21088WAT     H263507   8.098   4.768   0.902
21089WAT      O63508   0.807   6.343   3.498
21089WAT     H163509   0.851   6.400   3.428
21089WAT     H263510   0.746   6.399   3.554
21090WAT      O63511   0.082   8.822   5.801
21090WAT     H163512   0.004   8.858   5.852
21090WAT     H263513   0.049   8.771   5.721
21091WAT      O63514   6.484   2.401   6.736
21091WAT     H163515   6.531   2.313   6.745
21091WAT     H263516   6.542   2.465   6.685
21092WAT      O63517   5.163   0.936   5.009
21092WAT     H163518   5.160   1.025   4.964
21092WAT     H263519   5.070   0.901   5.020
21093WAT      O63520   1.772   5.171   8.714
21093WAT     H163521   1.834   5.094   8.700
21093WAT     H263522   1.825   5.252   8.739
21094WAT      O63523   2.792   2.923   0.248
21094WAT     H163524   2.797   2.824   0.254
21094WAT     H263525   2.854   2.964   0.316
21095WAT      O63526   0.319   4.778   4.068
21095WAT     H163527   0.398   4.754   4.012
21095WAT     H263528   0.346   4.844   4.138
21096WAT      O63529   1.493   4.999   5.303
21096WAT     H163530   1.411   5.054   5.317
21096WAT     H263531   1.565   5.057   5.265
21097WAT      O63532   0.678   9.551   9.893
21097WAT     H163533   0.724   9.527   9.807
21097WAT     H263534   0.644   9.645   9.887
21098WAT      O63535   3.136   6.940   2.503
21098WAT     H163536   3.104   6.999   2.578
21098WAT     H263537   3.058   6.914   2.446
21099WAT      O63538   0.442   4.166   3.658
21099WAT     H163539   0.524   4.110   3.653
21099WAT     H263540   0.464   4.255   3.698
21100WAT      O63541   7.539   6.481   7.427
21100WAT     H163542   7.574   6.530   7.348
21100WAT     H263543   7.452   6.437   7.404
21101WAT      O63544   2.923   4.472   0.625
21101WAT     H163545   2.940   4.397   0.688
21101WAT     H263546   2.831   4.463   0.586
21102WAT      O63547   0.172   7.238   4.289
21102WAT     H163548   0.255   7.277   4.248
21102WAT     H263549   0.160   7.275   4.381
21103WAT      O63550   0.643   3.268   0.295
21103WAT     H163551   0.693   3.202   0.238
21103WAT     H263552   0.662   3.248   0.391
21104WAT      O63553   3.615   3.975   7.381
21104WAT     H163554   3.651   4.066   7.402
21104WAT     H263555   3.689   3.908   7.384
21105WAT      O63556   6.327   3.217   3.409
21105WAT     H163557   6.298   3.150   3.477
21105WAT     H263558   6.282   3.305   3.426
21106WAT      O63559   2.710   8.583   0.636
21106WAT     H163560   2.708   8.595   0.735
21106WAT     H263561   2.654   8.503   0.611
21107WAT      O63562   6.434   9.251   7.157
21107WAT     H163563   6.370   9.258   7.080
21107WAT     H263564   6.450   9.341   7.196
21108WAT      O63565   8.393   4.653   7.250
21108WAT     H163566   8.438   4.571   7.214
21108WAT     H263567   8.346   4.700   7.175
21109WAT      O63568   9.790   8.308   5.297
21109WAT     H163569   9.699   8.313   5.257
21109WAT     H263570   9.787   8.340   5.392
21110WAT      O63571   7.342   2.816   1.870
21110WAT     H163572   7.440   2.833   1.880
21110WAT     H263573   7.291   2.895   1.903
21111WAT      O63574   5.380   6.999   0.394
21111WAT     H163575   5.451   6.951   0.445
21111WAT     H263576   5.332   6.934   0.334
21112WAT      O63577   5.162   8.581   9.104
21112WAT     H163578   5.229   8.508   9.093
21112WAT     H263579   5.078   8.543   9.144
21113WAT      O63580   2.792   2.202   9.524
21113WAT     H163581   2.820   2.214   9.619
21113WAT     H263582   2.693   2.191   9.520
21114WAT      O63583   6.472   7.235   0.588
21114WAT     H163584   6.525   7.151   0.599
21114WAT     H263585   6.390   7.217   0.535
21115WAT      O63586   2.236   7.297   9.038
21115WAT     H163587   2.250   7.335   8.946
21115WAT     H263588   2.235   7.371   9.105
21116WAT      O63589   5.033   8.287   2.684
21116WAT     H163590   5.009   8.263   2.778
21116WAT     H263591   5.058   8.384   2.680
21117WAT      O63592   4.563   2.322   4.736
21117WAT     H163593   4.489   2.321   4.668
21117WAT     H263594   4.567   2.233   4.782
21118WAT      O63595   0.924   1.595   9.757
21118WAT     H163596   0.902   1.573   9.852
21118WAT     H263597   0.984   1.675   9.754
21119WAT      O63598   8.904   7.899   1.897
21119WAT     H163599   8.982   7.961   1.901
21119WAT     H263600   8.935   7.808   1.869
21120WAT      O63601   4.634   3.611   3.033
21120WAT     H163602   4.689   3.693   3.015
21120WAT     H263603   4.542   3.639   3.063
21121WAT      O63604   1.331   4.997   6.574
21121WAT     H163605   1.276   4.941   6.635
21121WAT     H263606   1.428   4.990   6.599
21122WAT      O63607   4.689   6.270   1.104
21122WAT     H163608   4.701   6.261   1.005
21122WAT     H263609   4.766   6.322   1.142
21123WAT      O63610   5.376   6.675   7.452
21123WAT     H163611   5.458   6.638   7.496
21123WAT     H263612   5.353   6.763   7.494
21124WAT      O63613   2.779   8.000   1.838
21124WAT     H163614   2.869   8.005   1.882
21124WAT     H263615   2.787   8.026   1.742
21125WAT      O63616   1.476   3.958   6.716
21125WAT     H163617   1.471   3.923   6.810
21125WAT     H263618   1.521   4.047   6.716
21126WAT      O63619   1.446   9.802   3.292
21126WAT     H163620   1.361   9.847   3.265
21126WAT     H263621   1.459   9.719   3.238
21127WAT      O63622   6.046   4.429   9.717
21127WAT     H163623   6.025   4.340   9.756
21127WAT     H263624   6.070   4.493   9.790
21128WAT      O63625   0.785   7.525   9.211
21128WAT     H163626   0.828   7.435   9.212
21128WAT     H263627   0.687   7.515   9.193
21129WAT      O63628   0.679   8.430   7.155
21129WAT     H163629   0.751   8.364   7.174
21129WAT     H263630   0.635   8.458   7.240
21130WAT      O63631   2.930   8.573   2.711
21130WAT     H163632   3.001   8.505   2.730
21130WAT     H263633   2.897   8.561   2.617
21131WAT      O63634   0.156   3.994   6.742
21131WAT     H163635   0.132   4.024   6.834
21131WAT     H263636   0.197   4.070   6.692
21132WAT      O63637   6.391   6.241   4.775
21132WAT     H163638   6.396   6.141   4.780
21132WAT     H263639   6.323   6.267   4.706
21133WAT      O63640   1.469   9.138   4.643
21133WAT     H163641   1.370   9.146   4.656
21133WAT     H263642   1.516   9.183   4.719
21134WAT      O63643   9.376   7.212   5.275
21134WAT     H163644   9.423   7.292   5.237
21134WAT     H263645   9.364   7.225   5.373
21135WAT      O63646   2.524   5.866   7.164
21135WAT     H163647   2.563   5.911   7.084
21135WAT     H263648   2.444   5.813   7.137
21136WAT      O63649   9.760   9.828   3.030
21136WAT     H163650   9.836   9.792   3.085
21136WAT     H263651   9.729   9.915   3.068
21137WAT      O63652   1.834   3.766   3.230
21137WAT     H163653   1.820   3.751   3.328
21137WAT     H263654   1.828   3.864   3.210
21138WAT      O63655   7.100   6.423   0.943
21138WAT     H163656   7.125   6.497   1.005
21138WAT     H263657   7.136   6.443   0.852
21139WAT      O63658   1.507   7.737   2.478
21139WAT     H163659   1.448   7.704   2.405
21139WAT     H263660   1.495   7.836   2.489
21140WAT      O63661   3.427   5.613   4.395
21140WAT     H163662   3.478   5.616   4.481
21140WAT     H263663   3.329   5.606   4.415
21141WAT      O63664   2.117   0.782   1.883
21141WAT     H163665   2.173   0.862   1.864
21141WAT     H263666   2.132   0.752   1.977
21142WAT      O63667   2.953   5.550   5.333
21142WAT     H163668   2.972   5.489   5.411
21142WAT     H263669   3.027   5.617   5.325
21143WAT      O63670   0.614   2.427   8.751
21143WAT     H163671   0.534   2.460   8.802
21143WAT     H263672   0.637   2.335   8.781
21144WAT      O63673   4.402   4.853   9.159
21144WAT     H163674   4.422   4.948   9.137
21144WAT     H263675   4.309   4.844   9.193
21145WAT      O63676   5.584   3.347   2.423
21145WAT     H163677   5.619   3.436   2.397
21145WAT     H263678   5.617   3.324   2.515
21146WAT      O63679   1.649   0.344   5.975
21146WAT     H163680   1.686   0.253   5.992
21146WAT     H263681   1.562   0.336   5.926
21147WAT      O63682   2.012   8.880   6.893
21147WAT     H163683   1.922   8.923   6.906
21147WAT     H263684   2.013   8.791   6.939
21148WAT      O63685   2.341   3.547   1.365
21148WAT     H163686   2.370   3.577   1.274
21148WAT     H263687   2.420   3.517   1.417
21149WAT      O63688   3.209   6.352   5.939
21149WAT     H163689   3.112   6.376   5.948
21149WAT     H263690   3.262   6.399   6.010
21150WAT      O63691   4.194   7.992   7.455
21150WAT     H163692   4.212   8.020   7.549
21150WAT     H263693   4.278   7.957   7.413
21151WAT      O63694   1.578   7.276   2.685
21151WAT     H163695   1.665   7.290   2.639
21151WAT     H263696   1.502   7.294   2.622
21152WAT      O63697   6.244   5.771   0.921
21152WAT     H163698   6.233   5.809   0.829
21152WAT     H263699   6.208   5.677   0.923
21153WAT      O63700   6.546   8.836   5.636
21153WAT     H163701   6.496   8.918   5.662
21153WAT     H263702   6.510   8.757   5.686
21154WAT      O63703   7.707   4.971   6.125
21154WAT     H163704   7.661   5.045   6.173
21154WAT     H263705   7.694   4.885   6.175
21155WAT      O63706   9.692   7.869   5.921
21155WAT     H163707   9.755   7.896   5.993
21155WAT     H263708   9.605   7.916   5.932
21156WAT      O63709   5.330   3.140   5.245
21156WAT     H163710   5.252   3.154   5.305
21156WAT     H263711   5.377   3.227   5.229
21157WAT      O63712   8.732   2.437   2.757
21157WAT     H163713   8.633   2.436   2.772
21157WAT     H263714   8.778   2.402   2.838
21158WAT      O63715   2.353   7.300   1.772
21158WAT     H163716   2.270   7.245   1.785
21158WAT     H263717   2.331   7.397   1.781
21159WAT      O63718   0.632   8.602   0.782
21159WAT     H163719   0.548   8.556   0.811
21159WAT     H263720   0.609   8.673   0.715
21160WAT      O63721   4.788   5.906   9.296
21160WAT     H163722   4.838   5.926   9.212
21160WAT     H263723   4.768   5.992   9.344
21161WAT      O63724   1.031   6.720   1.588
21161WAT     H163725   1.079   6.668   1.518
21161WAT     H263726   1.031   6.817   1.564
21162WAT      O63727   6.594   3.944   5.198
21162WAT     H163728   6.516   3.882   5.196
21162WAT     H263729   6.561   4.039   5.201
21163WAT      O63730   2.625   3.992   8.818
21163WAT     H163731   2.566   3.996   8.737
21163WAT     H263732   2.653   4.084   8.843
21164WAT      O63733   4.297   6.709   7.661
21164WAT     H163734   4.372   6.718   7.727
21164WAT     H263735   4.279   6.799   7.620
21165WAT      O63736   8.384   5.930   4.605
21165WAT     H163737   8.342   5.874   4.676
21165WAT     H263738   8.480   5.945   4.626
21166WAT      O63739   5.752   8.599   3.272
21166WAT     H163740   5.711   8.687   3.245
21166WAT     H263741   5.697   8.558   3.345
21167WAT      O63742   5.582   0.621   9.197
21167WAT     H163743   5.613   0.528   9.216
21167WAT     H263744   5.482   0.621   9.186
21168WAT      O63745   9.452   2.462   0.166
21168WAT     H163746   9.519   2.529   0.132
21168WAT     H263747   9.363   2.505   0.174
21169WAT      O63748   6.353   0.446   1.307
21169WAT     H163749   6.409   0.484   1.234
21169WAT     H263750   6.412   0.403   1.375
21170WAT      O63751   6.379   3.972   1.859
21170WAT     H163752   6.410   3.964   1.954
21170WAT     H263753   6.295   4.026   1.855
21171WAT      O63754   9.368   4.913   8.514
21171WAT     H163755   9.403   4.958   8.596
21171WAT     H263756   9.417   4.827   8.500
21172WAT      O63757   6.895   3.684   6.715
21172WAT     H163758   6.987   3.711   6.685
21172WAT     H263759   6.894   3.586   6.734
21173WAT      O63760   7.627   9.661   4.039
21173WAT     H163761   7.718   9.701   4.026
21173WAT     H263762   7.604   9.663   4.137
21174WAT      O63763   7.887   4.021   2.739
21174WAT     H163764   7.897   4.039   2.837
21174WAT     H263765   7.957   3.956   2.710
21175WAT      O63766   9.825   2.387   9.132
21175WAT     H163767   9.839   2.296   9.093
21175WAT     H263768   9.760   2.438   9.075
21176WAT      O63769   5.125   0.345   9.852
21176WAT     H163770   5.170   0.429   9.819
21176WAT     H263771   5.132   0.342   9.952
21177WAT      O63772   4.715   4.072   5.676
21177WAT     H163773   4.761   4.084   5.587
21177WAT     H263774   4.692   3.975   5.688
21178WAT      O63775   4.038   1.307   5.464
21178WAT     H163776   4.034   1.280   5.368
21178WAT     H263777   4.027   1.227   5.522
21179WAT      O63778   8.346   1.547   1.585
21179WAT     H163779   8.318   1.548   1.681
21179WAT     H263780   8.329   1.637   1.544
21180WAT      O63781   5.785   7.675   2.048
21180WAT     H163782   5.882   7.658   2.064
21180WAT     H263783   5.774   7.743   1.975
21181WAT      O63784   5.059   5.764   1.581
21181WAT     H163785   5.016   5.833   1.639
21181WAT     H263786   5.148   5.797   1.549
21182WAT      O63787   0.289   1.261   4.433
21182WAT     H163788   0.350   1.239   4.509
21182WAT     H263789   0.270   1.178   4.381
21183WAT      O63790   5.878   8.773   0.201
21183WAT     H163791   5.894   8.770   0.299
21183WAT     H263792   5.883   8.680   0.163
21184WAT      O63793   0.137   5.473   2.119
21184WAT     H163794   0.192   5.497   2.199
21184WAT     H263795   0.041   5.463   2.146
21185WAT      O63796   1.675   6.983   8.246
21185WAT     H163797   1.597   7.045   8.244
21185WAT     H263798   1.760   7.035   8.250
21186WAT      O63799   3.193   9.170   1.175
21186WAT     H163800   3.118   9.126   1.126
21186WAT     H263801   3.160   9.255   1.217
21187WAT      O63802   9.415   3.909   1.285
21187WAT     H163803   9.408   3.995   1.336
21187WAT     H263804   9.474   3.921   1.206
21188WAT      O63805   8.291   5.904   6.383
21188WAT     H163806   8.200   5.922   6.419
21188WAT     H263807   8.285   5.845   6.303
21189WAT      O63808   5.059   7.205   5.286
21189WAT     H163809   4.963   7.198   5.309
21189WAT     H263810   5.085   7.129   5.226
21190WAT      O63811   9.128   1.750   0.916
21190WAT     H163812   9.209   1.706   0.957
21190WAT     H263813   9.158   1.824   0.855
21191WAT      O63814   0.869   5.312   2.072
21191WAT     H163815   0.797   5.272   2.129
21191WAT     H263816   0.827   5.357   1.993
21192WAT      O63817   4.216   6.559   4.783
21192WAT     H163818   4.250   6.594   4.870
21192WAT     H263819   4.275   6.486   4.750
21193WAT      O63820   1.481   0.361   3.615
21193WAT     H163821   1.483   0.433   3.686
21193WAT     H263822   1.492   0.403   3.525
21194WAT      O63823   5.196   7.638   4.708
21194WAT     H163824   5.170   7.608   4.616
21194WAT     H263825   5.120   7.688   4.749
21195WAT      O63826   8.560   4.764   8.790
21195WAT     H163827   8.500   4.834   8.751
21195WAT     H263828   8.650   4.769   8.747
21196WAT      O63829   2.556   6.160   4.341
21196WAT     H163830   2.652   6.184   4.328
21196WAT     H263831   2.501   6.205   4.270
21197WAT      O63832   7.289   2.077   4.553
21197WAT     H163833   7.206   2.097   4.605
21197WAT     H263834   7.300   1.978   4.547
21198WAT      O63835   7.372   5.572   4.117
21198WAT     H163836   7.426   5.556   4.200
21198WAT     H263837   7.429   5.554   4.037
21199WAT      O63838   4.579   8.159   7.923
21199WAT     H163839   4.519   8.239   7.926
21199WAT     H263840   4.536   8.086   7.871
21200WAT      O63841   5.845   0.671   0.051
21200WAT     H163842   5.859   0.575   0.026
21200WAT     H263843   5.872   0.730  -0.025
21201WAT      O63844   3.101   7.575   0.872
21201WAT     H163845   3.085   7.672   0.892
21201WAT     H263846   3.199   7.555   0.882
21202WAT      O63847   5.307   3.908   6.891
21202WAT     H163848   5.261   3.946   6.811
21202WAT     H263849   5.318   3.979   6.961
21203WAT      O63850   5.208   1.383   9.471
21203WAT     H163851   5.206   1.480   9.448
21203WAT     H263852   5.143   1.365   9.545
21204WAT      O63853   0.568   4.379   0.726
21204WAT     H163854   0.578   4.447   0.798
21204WAT     H263855   0.488   4.322   0.744
21205WAT      O63856   2.044   4.137   1.033
21205WAT     H163857   2.050   4.145   0.934
21205WAT     H263858   2.039   4.228   1.074
21206WAT      O63859   4.749   9.281   6.193
21206WAT     H163860   4.845   9.301   6.174
21206WAT     H263861   4.722   9.198   6.144
21207WAT      O63862   4.095   5.357   4.068
21207WAT     H163863   4.068   5.383   4.161
21207WAT     H263864   4.137   5.266   4.070
21208WAT      O63865   4.514   8.126   8.278
21208WAT     H163866   4.527   8.173   8.365
21208WAT     H263867   4.419   8.136   8.248
21209WAT      O63868   3.652   2.235   1.980
21209WAT     H163869   3.687   2.142   1.993
21209WAT     H263870   3.694   2.295   2.048
21210WAT      O63871   3.809   7.038   9.615
21210WAT     H163872   3.746   6.965   9.641
21210WAT     H263873   3.879   7.002   9.553
21211WAT      O63874   0.879   7.589   2.174
21211WAT     H163875   0.878   7.513   2.109
21211WAT     H263876   0.972   7.625   2.183
21212WAT      O63877   4.361   5.474   5.790
21212WAT     H163878   4.288   5.528   5.749
21212WAT     H263879   4.449   5.501   5.751
21213WAT      O63880   3.465   7.271   6.218
21213WAT     H163881   3.525   7.328   6.275
21213WAT     H263882   3.408   7.214   6.277
21214WAT      O63883   6.842   7.433   2.035
21214WAT     H163884   6.760   7.388   2.070
21214WAT     H263885   6.829   7.452   1.937
21215WAT      O63886   6.837   1.805   3.665
21215WAT     H163887   6.863   1.893   3.624
21215WAT     H263888   6.898   1.734   3.632
21216WAT      O63889   5.753   4.351   3.503
21216WAT     H163890   5.699   4.375   3.423
21216WAT     H263891   5.731   4.413   3.578
21217WAT      O63892   0.936   6.234   6.335
21217WAT     H163893   0.943   6.313   6.396
21217WAT     H263894   0.927   6.265   6.240
21218WAT      O63895   4.411   1.778   0.353
21218WAT     H163896   4.505   1.812   0.361
21218WAT     H263897   4.412   1.683   0.323
21219WAT      O63898   6.055   8.459   4.528
21219WAT     H163899   5.973   8.431   4.478
21219WAT     H263900   6.131   8.398   4.505
21220WAT      O63901   0.276   8.511   7.703
21220WAT     H163902   0.249   8.580   7.770
21220WAT     H263903   0.333   8.441   7.748
21221WAT      O63904   9.255   9.012   3.128
21221WAT     H163905   9.161   9.006   3.097
21221WAT     H263906   9.287   8.921   3.155
21222WAT      O63907   6.817   0.248   5.959
21222WAT     H163908   6.910   0.275   5.935
21222WAT     H263909   6.760   0.244   5.877
21223WAT      O63910   8.029   5.598   3.203
21223WAT     H163911   8.044   5.681   3.150
21223WAT     H263912   7.946   5.552   3.170
21224WAT      O63913   6.343   5.963   4.802
21224WAT     H163914   6.425   5.944   4.856
21224WAT     H263915   6.279   5.886   4.811
21225WAT      O63916   7.634   8.683   3.214
21225WAT     H163917   7.573   8.744   3.265
21225WAT     H263918   7.658   8.605   3.270
21226WAT      O63919   2.344   0.168   9.490
21226WAT     H163920   2.415   0.238   9.493
21226WAT     H263921   2.263   0.205   9.443
21227WAT      O63922   8.845   3.866   7.761
21227WAT     H163923   8.820   3.770   7.749
21227WAT     H263924   8.775   3.912   7.817
21228WAT      O63925   0.734   6.678   2.130
21228WAT     H163926   0.685   6.691   2.216
21228WAT     H263927   0.671   6.690   2.054
21229WAT      O63928   7.006   5.793   7.419
21229WAT     H163929   7.027   5.815   7.514
21229WAT     H263930   6.924   5.842   7.390
21230WAT      O63931   6.877   5.058   4.511
21230WAT     H163932   6.892   5.070   4.609
21230WAT     H263933   6.963   5.034   4.466
21231WAT      O63934   8.165   0.391   6.355
21231WAT     H163935   8.081   0.344   6.327
21231WAT     H263936   8.242   0.356   6.302
21232WAT      O63937   1.922   6.127   5.417
21232WAT     H163938   1.844   6.158   5.472
21232WAT     H263939   1.890   6.103   5.325
21233WAT      O63940   0.200   9.131   3.615
21233WAT     H163941   0.190   9.223   3.653
21233WAT     H263942   0.297   9.111   3.602
21234WAT      O63943   7.225   8.297   5.389
21234WAT     H163944   7.127   8.285   5.401
21234WAT     H263945   7.267   8.210   5.362
21235WAT      O63946   1.043   9.203   5.089
21235WAT     H163947   1.126   9.160   5.055
21235WAT     H263948   1.024   9.173   5.182
21236WAT      O63949   6.426   4.017   6.070
21236WAT     H163950   6.368   4.019   5.988
21236WAT     H263951   6.370   3.991   6.149
21237WAT      O63952   2.231   4.468   9.696
21237WAT     H163953   2.221   4.528   9.616
21237WAT     H263954   2.322   4.480   9.735
21238WAT      O63955   7.201   8.925   7.002
21238WAT     H163956   7.289   8.966   6.976
21238WAT     H263957   7.171   8.964   7.089
21239WAT      O63958   5.109   9.002   9.422
21239WAT     H163959   5.162   8.923   9.392
21239WAT     H263960   5.154   9.086   9.390
21240WAT      O63961   0.752   2.717   0.089
21240WAT     H163962   0.775   2.689   0.182
21240WAT     H263963   0.781   2.647   0.025
21241WAT      O63964   3.137   7.041   1.639
21241WAT     H163965   3.128   7.114   1.570
21241WAT     H263966   3.209   6.977   1.610
21242WAT      O63967   0.565   0.705   9.206
21242WAT     H163968   0.644   0.663   9.251
21242WAT     H263969   0.544   0.792   9.251
21243WAT      O63970   5.545   1.755   0.591
21243WAT     H163971   5.490   1.838   0.602
21243WAT     H263972   5.521   1.709   0.506
21244WAT      O63973   7.424   5.669   2.238
21244WAT     H163974   7.471   5.648   2.324
21244WAT     H263975   7.404   5.767   2.234
21245WAT      O63976   6.550   2.853   5.980
21245WAT     H163977   6.524   2.799   6.060
21245WAT     H263978   6.561   2.792   5.901
21246WAT      O63979   9.780   6.347   2.420
21246WAT     H163980   9.718   6.416   2.458
21246WAT     H263981   9.860   6.392   2.380
21247WAT      O63982   9.692   1.912   5.366
21247WAT     H163983   9.665   1.841   5.431
21247WAT     H263984   9.735   1.869   5.286
21248WAT      O63985   9.746   0.770   4.722
21248WAT     H163986   9.717   0.827   4.645
21248WAT     H263987   9.669   0.715   4.753
21249WAT      O63988   2.880   1.247   4.924
21249WAT     H163989   2.951   1.228   4.991
21249WAT     H263990   2.898   1.195   4.840
21250WAT      O63991   1.539   6.110   5.164
21250WAT     H163992   1.488   6.189   5.129
21250WAT     H263993   1.633   6.137   5.182
21251WAT      O63994   8.144   4.672   6.148
21251WAT     H163995   8.178   4.683   6.242
21251WAT     H263996   8.160   4.578   6.118
21252WAT      O63997   3.821   5.304   8.186
21252WAT     H163998   3.894   5.263   8.131
21252WAT     H263999   3.841   5.290   8.283
21253WAT      O64000   4.382   4.629   2.622
21253WAT     H164001   4.320   4.664   2.552
21253WAT     H264002   4.383   4.529   2.619
21254WAT      O64003   6.921   0.649   7.946
21254WAT     H164004   6.963   0.605   7.867
21254WAT     H264005   6.823   0.662   7.928
21255WAT      O64006   5.092   6.308   4.361
21255WAT     H164007   5.109   6.376   4.290
21255WAT     H264008   5.156   6.232   4.350
21256WAT      O64009   3.236   7.204   1.436
21256WAT     H164010   3.315   7.193   1.496
21256WAT     H264011   3.248   7.148   1.354
21257WAT      O64012   4.269   0.004   1.870
21257WAT     H164013   4.261  -0.096   1.865
21257WAT     H264014   4.196   0.040   1.928
21258WAT      O64015   6.990   9.465   8.326
21258WAT     H164016   7.045   9.382   8.334
21258WAT     H264017   6.932   9.458   8.244
21259WAT      O64018   7.607   3.373   5.005
21259WAT     H164019   7.632   3.297   4.945
21259WAT     H264020   7.555   3.440   4.953
21260WAT      O64021   3.714   0.477   8.360
21260WAT     H164022   3.638   0.437   8.308
21260WAT     H264023   3.718   0.575   8.344
21261WAT      O64024   8.084   5.825   1.830
21261WAT     H164025   8.083   5.769   1.913
21261WAT     H264026   8.094   5.766   1.750
21262WAT      O64027   7.223   4.046   7.749
21262WAT     H164028   7.315   4.018   7.721
21262WAT     H264029   7.172   3.965   7.778
21263WAT      O64030   0.950   5.355   8.278
21263WAT     H164031   0.891   5.384   8.353
21263WAT     H264032   0.911   5.386   8.191
21264WAT      O64033   0.898   1.136   6.495
21264WAT     H164034   0.808   1.112   6.531
21264WAT     H264035   0.953   1.053   6.482
21265WAT      O64036   6.142   7.629   6.711
21265WAT     H164037   6.182   7.538   6.710
21265WAT     H264038   6.058   7.629   6.656
21266WAT      O64039   5.178   4.645   2.431
21266WAT     H164040   5.204   4.593   2.349
21266WAT     H264041   5.254   4.706   2.456
21267WAT      O64042   1.252   8.374   1.282
21267WAT     H164043   1.285   8.377   1.376
21267WAT     H264044   1.215   8.284   1.262
21268WAT      O64045   6.938   7.648   4.017
21268WAT     H164046   6.986   7.720   3.968
21268WAT     H264047   7.003   7.586   4.060
21269WAT      O64048   6.482   3.510   5.582
21269WAT     H164049   6.437   3.423   5.596
21269WAT     H264050   6.454   3.575   5.653
21270WAT      O64051   1.893   5.754   9.603
21270WAT     H164052   1.887   5.849   9.634
21270WAT     H264053   1.822   5.738   9.534
21271WAT      O64054   5.844   8.087   1.727
21271WAT     H164055   5.847   8.025   1.806
21271WAT     H264056   5.875   8.178   1.755
21272WAT      O64057   5.004   8.709   6.631
21272WAT     H164058   4.972   8.674   6.718
21272WAT     H264059   5.100   8.684   6.617
21273WAT      O64060   5.158   1.879   8.447
21273WAT     H164061   5.073   1.840   8.482
21273WAT     H264062   5.137   1.958   8.389
21274WAT      O64063   3.438   6.061   5.091
21274WAT     H164064   3.364   5.996   5.109
21274WAT     H264065   3.436   6.088   4.995
21275WAT      O64066   3.272   3.832   5.694
21275WAT     H164067   3.242   3.899   5.762
21275WAT     H264068   3.371   3.824   5.696
21276WAT      O64069   9.399   4.511   8.977
21276WAT     H164070   9.392   4.448   8.899
21276WAT     H264071   9.495   4.527   8.998
21277WAT      O64072   8.587   8.621   6.170
21277WAT     H164073   8.654   8.695   6.176
21277WAT     H264074   8.623   8.548   6.111
21278WAT      O64075   8.611   9.284   3.142
21278WAT     H164076   8.709   9.296   3.158
21278WAT     H264077   8.585   9.333   3.059
21279WAT      O64078   5.459   9.662   2.997
21279WAT     H164079   5.365   9.631   2.986
21279WAT     H264080   5.498   9.624   3.080
21280WAT      O64081   9.870   7.992   8.988
21280WAT     H164082   9.958   7.949   8.969
21280WAT     H264083   9.863   8.014   9.085
21281WAT      O64084   3.275   6.286   7.440
21281WAT     H164085   3.228   6.203   7.470
21281WAT     H264086   3.313   6.273   7.349
21282WAT      O64087   2.418   5.422   4.708
21282WAT     H164088   2.464   5.400   4.794
21282WAT     H264089   2.427   5.345   4.645
21283WAT      O64090   6.901   6.661   1.346
21283WAT     H164091   6.849   6.662   1.432
21283WAT     H264092   6.987   6.710   1.358
21284WAT      O64093   1.874   6.048   2.277
21284WAT     H164094   1.824   5.962   2.278
21284WAT     H264095   1.969   6.033   2.304
21285WAT      O64096   8.495   8.144   6.290
21285WAT     H164097   8.582   8.183   6.318
21285WAT     H264098   8.471   8.178   6.199
21286WAT      O64099   2.357   7.961   9.771
21286WAT     H164100   2.366   7.928   9.865
21286WAT     H264101   2.264   7.993   9.756
21287WAT      O64102   2.474   6.809   1.394
21287WAT     H164103   2.399   6.752   1.429
21287WAT     H264104   2.532   6.837   1.470
21288WAT      O64105   4.783   7.447   5.513
21288WAT     H164106   4.698   7.394   5.513
21288WAT     H264107   4.828   7.437   5.602
21289WAT      O64108   2.143   8.972   7.959
21289WAT     H164109   2.191   9.004   8.040
21289WAT     H264110   2.209   8.934   7.894
21290WAT      O64111   8.041   6.567   6.346
21290WAT     H164112   8.107   6.507   6.302
21290WAT     H264113   8.062   6.574   6.443
21291WAT      O64114   7.075   7.679   8.656
21291WAT     H164115   7.130   7.719   8.728
21291WAT     H264116   7.034   7.751   8.600
21292WAT      O64117   3.265   1.637   9.396
21292WAT     H164118   3.235   1.541   9.390
21292WAT     H264119   3.201   1.687   9.454
21293WAT      O64120   8.944   9.314   1.834
21293WAT     H164121   9.037   9.347   1.852
21293WAT     H264122   8.933   9.299   1.736
21294WAT      O64123   4.996   6.928   7.699
21294WAT     H164124   4.939   7.003   7.732
21294WAT     H264125   4.939   6.863   7.649
21295WAT      O64126   4.089   9.642   7.246
21295WAT     H164127   4.092   9.731   7.291
21295WAT     H264128   4.009   9.591   7.278
21296WAT      O64129   5.773   4.745   0.143
21296WAT     H164130   5.811   4.794   0.064
21296WAT     H264131   5.839   4.745   0.218
21297WAT      O64132   5.341   1.940   1.631
21297WAT     H164133   5.261   1.937   1.571
21297WAT     H264134   5.345   2.030   1.675
21298WAT      O64135   4.656   4.688   5.726
21298WAT     H164136   4.706   4.650   5.648
21298WAT     H264137   4.670   4.787   5.730
21299WAT      O64138   6.805   0.253   8.079
21299WAT     H164139   6.856   0.339   8.089
21299WAT     H264140   6.748   0.257   7.998
21300WAT      O64141   3.081   9.275   0.780
21300WAT     H164142   3.086   9.357   0.723
21300WAT     H264143   3.093   9.301   0.876
21301WAT      O64144   4.202   5.424   7.277
21301WAT     H164145   4.301   5.408   7.284
21301WAT     H264146   4.154   5.337   7.271
21302WAT      O64147   7.658   1.330   3.316
21302WAT     H164148   7.670   1.268   3.239
21302WAT     H264149   7.569   1.314   3.358
21303WAT      O64150   2.368   0.046   9.753
21303WAT     H164151   2.353   0.100   9.670
21303WAT     H264152   2.408  -0.043   9.728
21304WAT      O64153   7.987   2.481   5.256
21304WAT     H164154   7.909   2.433   5.215
21304WAT     H264155   7.997   2.570   5.213
21305WAT      O64156   3.772   6.487   2.964
21305WAT     H164157   3.736   6.471   3.056
21305WAT     H264158   3.715   6.439   2.897
21306WAT      O64159   8.775   1.583   8.740
21306WAT     H164160   8.840   1.508   8.727
21306WAT     H264161   8.825   1.663   8.774
21307WAT      O64162   4.228   1.354   6.460
21307WAT     H164163   4.156   1.308   6.511
21307WAT     H264164   4.211   1.345   6.362
21308WAT      O64165   5.097   0.853   1.640
21308WAT     H164166   5.075   0.757   1.656
21308WAT     H264167   5.021   0.898   1.594
21309WAT      O64168   7.459   7.073   8.280
21309WAT     H164169   7.531   7.134   8.248
21309WAT     H264170   7.451   6.995   8.217
21310WAT      O64171   3.733   2.048   0.848
21310WAT     H164172   3.657   2.103   0.814
21310WAT     H264173   3.818   2.078   0.805
21311WAT      O64174   1.598   9.681   2.161
21311WAT     H164175   1.533   9.663   2.086
21311WAT     H264176   1.664   9.606   2.166
21312WAT      O64177   8.841   0.812   4.235
21312WAT     H164178   8.756   0.760   4.244
21312WAT     H264179   8.858   0.832   4.138
21313WAT      O64180   7.946   3.297   4.700
21313WAT     H164181   7.919   3.384   4.658
21313WAT     H264182   8.036   3.271   4.665
21314WAT      O64183   4.249   3.346   8.454
21314WAT     H164184   4.290   3.272   8.506
21314WAT     H264185   4.320   3.409   8.423
21315WAT      O64186   2.923   5.008   9.785
21315WAT     H164187   2.909   4.964   9.696
21315WAT     H264188   3.009   5.059   9.784
21316WAT      O64189   6.431   1.043   7.572
21316WAT     H164190   6.473   0.954   7.585
21316WAT     H264191   6.410   1.083   7.662
21317WAT      O64192   1.936   3.695   5.381
21317WAT     H164193   1.904   3.753   5.306
21317WAT     H264194   2.036   3.692   5.381
21318WAT      O64195   5.527   4.952   6.552
21318WAT     H164196   5.497   4.861   6.579
21318WAT     H264197   5.573   4.947   6.463
21319WAT      O64198   5.111   7.230   0.658
21319WAT     H164199   5.178   7.160   0.630
21319WAT     H264200   5.020   7.202   0.628
21320WAT      O64201   4.698   0.582   9.632
21320WAT     H164202   4.745   0.505   9.675
21320WAT     H264203   4.742   0.668   9.658
21321WAT      O64204   8.103   8.075   1.186
21321WAT     H164205   8.151   7.993   1.219
21321WAT     H264206   8.021   8.091   1.241
21322WAT      O64207   1.083   1.988   4.335
21322WAT     H164208   0.991   1.988   4.295
21322WAT     H264209   1.123   1.897   4.326
21323WAT      O64210   0.784   6.705   7.063
21323WAT     H164211   0.769   6.802   7.084
21323WAT     H264212   0.700   6.654   7.082
21324WAT      O64213   3.995   7.149   8.463
21324WAT     H164214   3.917   7.090   8.483
21324WAT     H264215   4.068   7.131   8.529
21325WAT      O64216   2.663   2.790   4.877
21325WAT     H164217   2.688   2.723   4.807
21325WAT     H264218   2.731   2.864   4.879
21326WAT      O64219   2.152   1.100   8.357
21326WAT     H164220   2.174   1.043   8.278
21326WAT     H264221   2.237   1.137   8.396
21327WAT      O64222   1.702   0.466   7.678
21327WAT     H164223   1.793   0.506   7.671
21327WAT     H264224   1.708   0.374   7.715
21328WAT      O64225   0.865   6.740   7.528
21328WAT     H164226   0.957   6.739   7.567
21328WAT     H264227   0.799   6.764   7.600
21329WAT      O64228   8.286   0.481   7.212
21329WAT     H164229   8.348   0.411   7.246
21329WAT     H264230   8.302   0.494   7.114
21330WAT      O64231   6.428   9.114   1.540
21330WAT     H164232   6.476   9.036   1.500
21330WAT     H264233   6.396   9.174   1.467
21331WAT      O64234   9.033   8.666   4.490
21331WAT     H164235   8.994   8.575   4.505
21331WAT     H264236   9.068   8.701   4.577
21332WAT      O64237   3.768   8.365   5.258
21332WAT     H164238   3.860   8.392   5.286
21332WAT     H264239   3.751   8.395   5.164
21333WAT      O64240   5.861   4.633   1.384
21333WAT     H164241   5.926   4.616   1.458
21333WAT     H264242   5.884   4.576   1.305
21334WAT      O64243   6.446   3.603   9.060
21334WAT     H164244   6.437   3.545   9.141
21334WAT     H264245   6.532   3.581   9.013
21335WAT      O64246   4.897   1.476   1.986
21335WAT     H164247   4.834   1.466   1.909
21335WAT     H264248   4.982   1.519   1.953
21336WAT      O64249   9.216   5.548   4.829
21336WAT     H164250   9.283   5.556   4.755
21336WAT     H264251   9.131   5.593   4.802
21337WAT      O64252   3.650   2.614   4.429
21337WAT     H164253   3.600   2.663   4.358
21337WAT     H264254   3.747   2.610   4.405
21338WAT      O64255   9.504   6.186   3.670
21338WAT     H164256   9.552   6.151   3.590
21338WAT     H264257   9.457   6.111   3.717
21339WAT      O64258   3.209   7.931   3.015
21339WAT     H164259   3.259   7.857   2.968
21339WAT     H264260   3.274   7.995   3.054
21340WAT      O64261   8.858   9.171   2.864
21340WAT     H164262   8.784   9.144   2.803
21340WAT     H264263   8.868   9.270   2.864
21341WAT      O64264   7.973   1.089   8.937
21341WAT     H164265   7.981   0.996   8.971
21341WAT     H264266   8.053   1.142   8.964
21342WAT      O64267   7.899   6.495   4.619
21342WAT     H164268   7.824   6.492   4.553
21342WAT     H264269   7.866   6.466   4.709
21343WAT      O64270   6.914   4.664   8.614
21343WAT     H164271   6.936   4.572   8.647
21343WAT     H264272   6.873   4.717   8.689
21344WAT      O64273   9.591   4.833   9.258
21344WAT     H164274   9.656   4.758   9.273
21344WAT     H264275   9.641   4.915   9.228
21345WAT      O64276   1.671   2.459   5.075
21345WAT     H164277   1.635   2.367   5.089
21345WAT     H264278   1.771   2.455   5.071
21346WAT      O64279   3.167   1.368   6.220
21346WAT     H164280   3.223   1.314   6.282
21346WAT     H264281   3.083   1.319   6.199
21347WAT      O64282   8.190   5.388   5.507
21347WAT     H164283   8.134   5.466   5.535
21347WAT     H264284   8.202   5.389   5.408
21348WAT      O64285   4.098   4.827   1.540
21348WAT     H164286   4.058   4.737   1.557
21348WAT     H264287   4.170   4.819   1.472
21349WAT      O64288   4.576   9.118   0.751
21349WAT     H164289   4.496   9.072   0.711
21349WAT     H264290   4.576   9.105   0.850
21350WAT      O64291   2.458   3.319   8.782
21350WAT     H164292   2.468   3.393   8.715
21350WAT     H264293   2.400   3.247   8.744
21351WAT      O64294   7.202   4.586   9.229
21351WAT     H164295   7.249   4.617   9.312
21351WAT     H264296   7.157   4.498   9.247
21352WAT      O64297   7.901   6.719   8.101
21352WAT     H164298   7.909   6.810   8.142
21352WAT     H264299   7.862   6.727   8.010
21353WAT      O64300   4.360   5.731   0.614
21353WAT     H164301   4.416   5.657   0.651
21353WAT     H264302   4.372   5.813   0.671
21354WAT      O64303   7.758   4.490   6.515
21354WAT     H164304   7.786   4.435   6.594
21354WAT     H264305   7.824   4.478   6.441
21355WAT      O64306   6.880   2.967   9.516
21355WAT     H164307   6.928   3.054   9.523
21355WAT     H264308   6.791   2.973   9.561
21356WAT      O64309   1.553   9.629   3.949
21356WAT     H164310   1.510   9.542   3.925
21356WAT     H264311   1.482   9.697   3.969
21357WAT      O64312   0.407   5.935   5.517
21357WAT     H164313   0.309   5.944   5.501
21357WAT     H264314   0.455   5.927   5.430
21358WAT      O64315   1.918   4.714   9.676
21358WAT     H164316   1.823   4.728   9.705
21358WAT     H264317   1.942   4.617   9.687
21359WAT      O64318   6.477   4.467   8.668
21359WAT     H164319   6.551   4.514   8.619
21359WAT     H264320   6.514   4.387   8.715
21360WAT      O64321   8.922   0.069   4.278
21360WAT     H164322   8.888   0.158   4.245
21360WAT     H264323   8.872   0.044   4.361
21361WAT      O64324   8.621   3.214   6.990
21361WAT     H164325   8.685   3.138   7.000
21361WAT     H264326   8.598   3.251   7.080
21362WAT      O64327   4.050   2.176   6.150
21362WAT     H164328   4.094   2.119   6.082
21362WAT     H264329   3.987   2.120   6.205
21363WAT      O64330   3.099   6.860   6.686
21363WAT     H164331   3.076   6.771   6.727
21363WAT     H264332   3.057   6.866   6.595
21364WAT      O64333   8.695   4.773   1.043
21364WAT     H164334   8.617   4.746   1.101
21364WAT     H264335   8.771   4.710   1.060
21365WAT      O64336   4.377   1.954   7.559
21365WAT     H164337   4.446   1.889   7.592
21365WAT     H264338   4.423   2.034   7.520
21366WAT      O64339   2.789   3.842   4.950
21366WAT     H164340   2.789   3.935   4.913
21366WAT     H264341   2.883   3.813   4.966
21367WAT      O64342   0.678   6.513   9.647
21367WAT     H164343   0.620   6.539   9.570
21367WAT     H264344   0.622   6.491   9.726
21368WAT      O64345   8.664   2.402   5.478
21368WAT     H164346   8.632   2.496   5.464
21368WAT     H264347   8.763   2.402   5.483
21369WAT      O64348   9.737   9.101   1.357
21369WAT     H164349   9.812   9.167   1.352
21369WAT     H264350   9.712   9.071   1.265
21370WAT      O64351   5.108   1.822   4.772
21370WAT     H164352   5.087   1.884   4.848
21370WAT     H264353   5.129   1.876   4.690
21371WAT      O64354   7.605   2.625   8.738
21371WAT     H164355   7.669   2.680   8.791
21371WAT     H264356   7.512   2.641   8.770
21372WAT      O64357   3.695   4.646   9.865
21372WAT     H164358   3.696   4.738   9.905
21372WAT     H264359   3.644   4.648   9.779
21373WAT      O64360   6.186   5.721   4.856
21373WAT     H164361   6.179   5.627   4.824
21373WAT     H264362   6.094   5.758   4.869
21374WAT      O64363   2.978   5.696   4.234
21374WAT     H164364   3.052   5.655   4.181
21374WAT     H264365   3.009   5.715   4.327
21375WAT      O64366   3.514   8.639   2.023
21375WAT     H164367   3.551   8.730   2.005
21375WAT     H264368   3.558   8.572   1.962
21376WAT      O64369   3.057   1.434   6.565
21376WAT     H164370   3.074   1.338   6.541
21376WAT     H264371   3.133   1.490   6.532
21377WAT      O64372   5.438   3.671   6.167
21377WAT     H164373   5.376   3.595   6.147
21377WAT     H264374   5.475   3.707   6.082
21378WAT      O64375   8.169   2.948   0.693
21378WAT     H164376   8.226   2.894   0.755
21378WAT     H264377   8.076   2.910   0.691
21379WAT      O64378   9.621   0.982   8.267
21379WAT     H164379   9.631   1.080   8.283
21379WAT     H264380   9.553   0.945   8.331
21380WAT      O64381   3.746   4.133   4.155
21380WAT     H164382   3.676   4.184   4.205
21380WAT     H264383   3.770   4.182   4.072
21381WAT      O64384   8.766   0.114   0.409
21381WAT     H164385   8.696   0.072   0.466
21381WAT     H264386   8.734   0.116   0.314
21382WAT      O64387   2.467   4.759   9.362
21382WAT     H164388   2.564   4.770   9.340
21382WAT     H264389   2.416   4.836   9.323
21383WAT      O64390   7.912   7.194   1.257
21383WAT     H164391   7.910   7.207   1.356
21383WAT     H264392   7.993   7.143   1.231
21384WAT      O64393   8.747   3.776   7.139
21384WAT     H164394   8.803   3.748   7.216
21384WAT     H264395   8.699   3.860   7.161
21385WAT      O64396   5.766   1.971   3.938
21385WAT     H164397   5.701   1.956   4.012
21385WAT     H264398   5.723   1.949   3.851
21386WAT      O64399   7.809   2.065   6.643
21386WAT     H164400   7.858   2.013   6.713
21386WAT     H264401   7.734   2.009   6.606
21387WAT      O64402   3.947   5.386   5.794
21387WAT     H164403   3.962   5.393   5.696
21387WAT     H264404   4.011   5.319   5.833
21388WAT      O64405   9.819   0.010   1.480
21388WAT     H164406   9.739   0.067   1.460
21388WAT     H264407   9.789  -0.072   1.529
21389WAT      O64408   1.107   2.279   9.092
21389WAT     H164409   1.171   2.348   9.058
21389WAT     H264410   1.060   2.236   9.016
21390WAT      O64411   4.279   5.759   7.009
21390WAT     H164412   4.275   5.741   7.108
21390WAT     H264413   4.317   5.850   6.994
21391WAT      O64414   5.735   7.147   9.745
21391WAT     H164415   5.642   7.134   9.712
21391WAT     H264416   5.792   7.071   9.714
21392WAT      O64417   2.437   2.303   7.360
21392WAT     H164418   2.342   2.326   7.377
21392WAT     H264419   2.443   2.233   7.289
21393WAT      O64420   0.142   5.784   5.896
21393WAT     H164421   0.051   5.783   5.938
21393WAT     H264422   0.194   5.705   5.929
21394WAT      O64423   9.426   8.382   1.957
21394WAT     H164424   9.381   8.435   1.886
21394WAT     H264425   9.362   8.370   2.034
21395WAT      O64426   9.594   7.762   9.856
21395WAT     H164427   9.615   7.824   9.932
21395WAT     H264428   9.536   7.810   9.790
21396WAT      O64429   4.960   6.400   4.042
21396WAT     H164430   4.904   6.319   4.053
21396WAT     H264431   5.035   6.380   3.978
21397WAT      O64432   1.557   1.601   4.617
21397WAT     H164433   1.520   1.612   4.525
21397WAT     H264434   1.509   1.527   4.664
21398WAT      O64435   2.681   8.609   3.635
21398WAT     H164436   2.772   8.623   3.674
21398WAT     H264437   2.687   8.610   3.535
21399WAT      O64438   0.007   4.777   9.477
21399WAT     H164439   0.006   4.677   9.470
21399WAT     H264440   0.101   4.810   9.463
21400WAT      O64441   5.750   9.686   2.352
21400WAT     H164442   5.705   9.596   2.350
21400WAT     H264443   5.701   9.746   2.415
21401WAT      O64444   9.644   2.241   0.176
21401WAT     H164445   9.581   2.310   0.212
21401WAT     H264446   9.636   2.236   0.076
21402WAT      O64447   4.597   2.480   2.786
21402WAT     H164448   4.662   2.437   2.723
21402WAT     H264449   4.645   2.545   2.844
21403WAT      O64450   1.117   0.100   0.222
21403WAT     H164451   1.025   0.113   0.260
21403WAT     H264452   1.159   0.019   0.263
21404WAT      O64453   8.991   9.412   5.564
21404WAT     H164454   9.066   9.453   5.512
21404WAT     H264455   8.942   9.484   5.614
21405WAT      O64456   2.217   0.233   6.082
21405WAT     H164457   2.131   0.225   6.133
21405WAT     H264458   2.244   0.329   6.078
21406WAT      O64459   7.045   8.805   6.549
21406WAT     H164460   7.090   8.788   6.462
21406WAT     H264461   7.026   8.718   6.595
21407WAT      O64462   1.132   1.074   1.059
21407WAT     H164463   1.200   1.086   1.131
21407WAT     H264464   1.100   1.164   1.027
21408WAT      O64465   1.553   4.856   4.407
21408WAT     H164466   1.489   4.790   4.367
21408WAT     H264467   1.508   4.945   4.414
21409WAT      O64468   0.299   0.814   4.488
21409WAT     H164469   0.287   0.893   4.429
21409WAT     H264470   0.220   0.753   4.478
21410WAT      O64471   7.762   3.649   3.968
21410WAT     H164472   7.752   3.746   3.991
21410WAT     H264473   7.859   3.627   3.963
21411WAT      O64474   1.852   7.206   4.189
21411WAT     H164475   1.855   7.301   4.220
21411WAT     H264476   1.832   7.147   4.267
21412WAT      O64477   0.769   3.929   6.827
21412WAT     H164478   0.741   3.898   6.918
21412WAT     H264479   0.808   3.853   6.776
21413WAT      O64480   8.473   0.200   5.140
21413WAT     H164481   8.416   0.152   5.206
21413WAT     H264482   8.432   0.192   5.049
21414WAT      O64483   9.345   9.076   8.280
21414WAT     H164484   9.374   9.159   8.232
21414WAT     H264485   9.256   9.093   8.323
21415WAT      O64486   1.471   6.282   4.738
21415WAT     H164487   1.458   6.370   4.693
21415WAT     H264488   1.531   6.224   4.683
21416WAT      O64489   8.737   1.259   4.709
21416WAT     H164490   8.701   1.298   4.624
21416WAT     H264491   8.830   1.292   4.723
21417WAT      O64492   7.469   8.382   5.475
21417WAT     H164493   7.536   8.308   5.462
21417WAT     H264494   7.377   8.346   5.462
21418WAT      O64495   8.122   0.403   5.479
21418WAT     H164496   8.188   0.358   5.540
21418WAT     H264497   8.111   0.349   5.395
21419WAT      O64498   4.050   3.130   6.138
21419WAT     H164499   4.085   3.177   6.056
21419WAT     H264500   4.116   3.062   6.168
21420WAT      O64501   5.402   5.009   9.833
21420WAT     H164502   5.381   5.104   9.810
21420WAT     H264503   5.316   4.958   9.845
21421WAT      O64504   7.843   8.806   5.529
21421WAT     H164505   7.915   8.737   5.519
21421WAT     H264506   7.844   8.867   5.449
21422WAT      O64507   7.428   9.391   7.067
21422WAT     H164508   7.478   9.363   7.149
21422WAT     H264509   7.332   9.407   7.089
21423WAT      O64510   5.632   2.122   5.446
21423WAT     H164511   5.627   2.206   5.502
21423WAT     H264512   5.670   2.144   5.357
21424WAT      O64513   5.828   3.948   1.080
21424WAT     H164514   5.836   3.927   0.982
21424WAT     H264515   5.807   4.045   1.091
21425WAT      O64516   4.132   9.644   9.153
21425WAT     H164517   4.219   9.688   9.173
21425WAT     H264518   4.110   9.579   9.225
21426WAT      O64519   1.821   9.246   1.476
21426WAT     H164520   1.721   9.246   1.479
21426WAT     H264521   1.852   9.174   1.414
21427WAT      O64522   7.858   3.101   8.810
21427WAT     H164523   7.866   3.018   8.754
21427WAT     H264524   7.805   3.080   8.893
21428WAT      O64525   3.715   9.460   0.974
21428WAT     H164526   3.787   9.486   0.910
21428WAT     H264527   3.756   9.430   1.060
21429WAT      O64528   3.521   4.857   7.158
21429WAT     H164529   3.443   4.902   7.115
21429WAT     H264530   3.497   4.831   7.251
21430WAT      O64531   1.318   2.356   8.212
21430WAT     H164532   1.375   2.413   8.271
21430WAT     H264533   1.374   2.286   8.168
21431WAT      O64534   7.530   4.249   8.323
21431WAT     H164535   7.502   4.189   8.248
21431WAT     H264536   7.617   4.216   8.360
21432WAT      O64537   3.489   5.615   6.699
21432WAT     H164538   3.500   5.660   6.610
21432WAT     H264539   3.451   5.524   6.687
21433WAT      O64540   0.420   6.558   9.243
21433WAT     H164541   0.507   6.576   9.289
21433WAT     H264542   0.396   6.462   9.254
21434WAT      O64543   0.760   7.242   4.362
21434WAT     H164544   0.729   7.166   4.420
21434WAT     H264545   0.728   7.328   4.401
21435WAT      O64546   8.883   8.904   7.276
21435WAT     H164547   8.862   8.813   7.310
21435WAT     H264548   8.810   8.967   7.303
21436WAT      O64549   0.674   1.368   8.504
21436WAT     H164550   0.706   1.296   8.565
21436WAT     H264551   0.604   1.422   8.550
21437WAT      O64552   2.242   3.861   1.964
21437WAT     H164553   2.341   3.855   1.979
21437WAT     H264554   2.212   3.785   1.907
21438WAT      O64555   6.271   8.686   7.118
21438WAT     H164556   6.348   8.678   7.181
21438WAT     H264557   6.186   8.673   7.169
21439WAT      O64558   0.702   1.454   6.637
21439WAT     H164559   0.759   1.480   6.559
21439WAT     H264560   0.626   1.397   6.605
21440WAT      O64561   4.815   6.549   2.550
21440WAT     H164562   4.718   6.533   2.567
21440WAT     H264563   4.828   6.645   2.525
21441WAT      O64564   8.541   0.617   5.231
21441WAT     H164565   8.555   0.716   5.224
21441WAT     H264566   8.443   0.597   5.237
21442WAT      O64567   4.340   4.586   1.646
21442WAT     H164568   4.254   4.617   1.687
21442WAT     H264569   4.320   4.526   1.569
21443WAT      O64570   7.974   8.696   3.778
21443WAT     H164571   8.001   8.664   3.869
21443WAT     H264572   8.039   8.661   3.711
21444WAT      O64573   5.904   1.287   0.261
21444WAT     H164574   5.966   1.211   0.242
21444WAT     H264575   5.819   1.252   0.300
21445WAT      O64576   4.510   8.164   9.209
21445WAT     H164577   4.576   8.222   9.256
21445WAT     H264578   4.449   8.123   9.275
21446WAT      O64579   7.658   8.145   8.779
21446WAT     H164580   7.592   8.218   8.761
21446WAT     H264581   7.633   8.064   8.726
21447WAT      O64582   1.209   5.761   8.258
21447WAT     H164583   1.193   5.664   8.276
21447WAT     H264584   1.307   5.779   8.258
21448WAT      O64585   1.700   2.157   7.376
21448WAT     H164586   1.637   2.086   7.344
21448WAT     H264587   1.714   2.224   7.303
21449WAT      O64588   8.155   2.261   0.008
21449WAT     H164589   8.162   2.360   0.008
21449WAT     H264590   8.106   2.231   0.090
21450WAT      O64591   6.233   9.592   4.500
21450WAT     H164592   6.152   9.622   4.450
21450WAT     H264593   6.313   9.641   4.465
21451WAT      O64594   0.598   5.025   8.097
21451WAT     H164595   0.580   5.095   8.166
21451WAT     H264596   0.688   4.985   8.113
21452WAT      O64597   8.947   9.334   3.683
21452WAT     H164598   9.032   9.292   3.715
21452WAT     H264599   8.902   9.381   3.759
21453WAT      O64600   3.175   3.065   5.838
21453WAT     H164601   3.079   3.093   5.832
21453WAT     H264602   3.192   2.991   5.773
21454WAT      O64603   8.637   9.741   0.042
21454WAT     H164604   8.679   9.681   0.111
21454WAT     H264605   8.603   9.824   0.086
21455WAT      O64606   5.970   0.675   2.094
21455WAT     H164607   6.056   0.721   2.074
21455WAT     H264608   5.926   0.649   2.008
21456WAT      O64609   2.545   5.756   4.004
21456WAT     H164610   2.609   5.790   3.935
21456WAT     H264611   2.516   5.832   4.063
21457WAT      O64612   1.583   1.951   2.366
21457WAT     H164613   1.540   1.934   2.277
21457WAT     H264614   1.676   1.984   2.351
21458WAT      O64615   9.202   4.284   4.727
21458WAT     H164616   9.121   4.231   4.699
21458WAT     H264617   9.255   4.231   4.793
21459WAT      O64618   4.182   1.290   6.187
21459WAT     H164619   4.100   1.329   6.146
21459WAT     H264620   4.261   1.313   6.131
21460WAT      O64621   9.034   2.164   6.880
21460WAT     H164622   8.934   2.153   6.879
21460WAT     H264623   9.065   2.173   6.975
21461WAT      O64624   1.590   9.275   2.309
21461WAT     H164625   1.598   9.294   2.406
21461WAT     H264626   1.504   9.225   2.292
21462WAT      O64627   0.474   1.308   6.566
21462WAT     H164628   0.537   1.231   6.569
21462WAT     H264629   0.380   1.274   6.571
21463WAT      O64630   8.432   9.130   5.468
21463WAT     H164631   8.486   9.079   5.401
21463WAT     H264632   8.341   9.148   5.431
21464WAT      O64633   2.917   2.761   7.616
21464WAT     H164634   2.901   2.851   7.574
21464WAT     H264635   2.964   2.774   7.704
21465WAT      O64636   2.459   5.056   7.002
21465WAT     H164637   2.419   5.101   6.922
21465WAT     H264638   2.442   4.958   6.997
21466WAT      O64639   1.036   6.364   2.018
21466WAT     H164640   1.028   6.271   2.052
21466WAT     H264641   0.972   6.378   1.943
21467WAT      O64642   4.362   6.061   4.383
21467WAT     H164643   4.283   6.069   4.443
21467WAT     H264644   4.443   6.099   4.428
21468WAT      O64645   7.706   5.877   9.692
21468WAT     H164646   7.690   5.787   9.733
21468WAT     H264647   7.624   5.933   9.705
21469WAT      O64648   9.777   7.371   5.050
21469WAT     H164649   9.855   7.398   5.107
21469WAT     H264650   9.795   7.400   4.955
21470WAT      O64651   0.765   4.624   1.631
21470WAT     H164652   0.763   4.534   1.587
21470WAT     H264653   0.682   4.637   1.684
21471WAT      O64654   5.925   6.712   0.298
21471WAT     H164655   5.879   6.655   0.230
21471WAT     H264656   5.872   6.796   0.311
21472WAT      O64657   7.931   8.598   5.141
21472WAT     H164658   7.940   8.611   5.042
21472WAT     H264659   7.970   8.676   5.189
21473WAT      O64660   8.861   0.829   9.861
21473WAT     H164661   8.915   0.901   9.904
21473WAT     H264662   8.922   0.753   9.836
21474WAT      O64663   2.369   0.669   4.200
21474WAT     H164664   2.348   0.593   4.140
21474WAT     H264665   2.432   0.732   4.155
21475WAT      O64666   0.925   9.584   4.619
21475WAT     H164667   0.964   9.614   4.705
21475WAT     H264668   0.993   9.593   4.546
21476WAT      O64669   5.858   1.508   1.849
21476WAT     H164670   5.816   1.598   1.851
21476WAT     H264671   5.958   1.517   1.859
21477WAT      O64672   9.632   3.511   6.232
21477WAT     H164673   9.720   3.556   6.221
21477WAT     H264674   9.613   3.455   6.151
21478WAT      O64675   2.824   5.484   3.933
21478WAT     H164676   2.791   5.483   4.028
21478WAT     H264677   2.811   5.394   3.892
21479WAT      O64678   6.626   6.371   4.800
21479WAT     H164679   6.657   6.359   4.705
21479WAT     H264680   6.541   6.320   4.814
21480WAT      O64681   2.855   3.605   5.868
21480WAT     H164682   2.932   3.584   5.807
21480WAT     H264683   2.813   3.520   5.900
21481WAT      O64684   6.262   4.848   4.308
21481WAT     H164685   6.264   4.891   4.397
21481WAT     H264686   6.354   4.821   4.281
21482WAT      O64687   8.740   4.950   9.594
21482WAT     H164688   8.676   4.960   9.670
21482WAT     H264689   8.785   4.861   9.599
21483WAT      O64690   6.781   4.744   6.856
21483WAT     H164691   6.730   4.694   6.925
21483WAT     H264692   6.718   4.775   6.784
21484WAT      O64693   9.717   9.217   9.812
21484WAT     H164694   9.658   9.222   9.893
21484WAT     H264695   9.790   9.286   9.821
21485WAT      O64696   8.155   1.185   2.930
21485WAT     H164697   8.081   1.243   2.963
21485WAT     H264698   8.193   1.223   2.846
21486WAT      O64699   9.344   2.622   8.082
21486WAT     H164700   9.287   2.704   8.074
21486WAT     H264701   9.413   2.636   8.153
21487WAT      O64702   2.535   2.023   2.820
21487WAT     H164703   2.555   1.997   2.914
21487WAT     H264704   2.598   2.095   2.791
21488WAT      O64705   5.096   0.780   7.160
21488WAT     H164706   5.092   0.760   7.258
21488WAT     H264707   5.023   0.731   7.113
21489WAT      O64708   3.844   8.928   6.407
21489WAT     H164709   3.746   8.921   6.429
21489WAT     H264710   3.897   8.925   6.491
21490WAT      O64711   3.945   4.538   5.894
21490WAT     H164712   3.889   4.457   5.878
21490WAT     H264713   4.041   4.511   5.906
21491WAT      O64714   6.040   4.113   4.586
21491WAT     H164715   6.044   4.213   4.577
21491WAT     H264716   5.971   4.089   4.654
21492WAT      O64717   4.194   7.073   8.285
21492WAT     H164718   4.153   7.118   8.205
21492WAT     H264719   4.134   7.086   8.364
21493WAT      O64720   0.155   9.002   7.821
21493WAT     H164721   0.141   9.057   7.903
21493WAT     H264722   0.246   9.018   7.785
21494WAT      O64723   5.682   8.915   6.694
21494WAT     H164724   5.706   8.891   6.788
21494WAT     H264725   5.680   9.014   6.685
21495WAT      O64726   2.119   6.865   5.329
21495WAT     H164727   2.022   6.846   5.313
21495WAT     H264728   2.174   6.798   5.280
21496WAT      O64729   1.271   7.227   2.911
21496WAT     H164730   1.323   7.186   2.835
21496WAT     H264731   1.231   7.154   2.966
21497WAT      O64732   4.622   9.083   3.196
21497WAT     H164733   4.544   9.121   3.245
21497WAT     H264734   4.635   8.987   3.224
21498WAT      O64735   5.712   8.988   8.850
21498WAT     H164736   5.795   8.933   8.848
21498WAT     H264737   5.736   9.085   8.851
21499WAT      O64738   8.094   4.128   1.203
21499WAT     H164739   8.108   4.054   1.269
21499WAT     H264740   7.997   4.133   1.178
21500WAT      O64741   7.601   1.127   5.395
21500WAT     H164742   7.690   1.108   5.354
21500WAT     H264743   7.588   1.226   5.401
21501WAT      O64744   7.457   5.460   0.701
21501WAT     H164745   7.546   5.505   0.710
21501WAT     H264746   7.394   5.496   0.769
21502WAT      O64747   7.276   8.732   5.071
21502WAT     H164748   7.291   8.661   5.001
21502WAT     H264749   7.257   8.819   5.026
21503WAT      O64750   1.491   4.268   3.818
21503WAT     H164751   1.574   4.300   3.862
21503WAT     H264752   1.415   4.271   3.884
21504WAT      O64753   9.051   5.977   6.671
21504WAT     H164754   9.029   5.882   6.650
21504WAT     H264755   8.974   6.036   6.648
21505WAT      O64756   5.707   3.046   7.282
21505WAT     H164757   5.712   3.076   7.378
21505WAT     H264758   5.615   3.012   7.263
21506WAT      O64759   8.289   5.703   6.948
21506WAT     H164760   8.207   5.663   6.906
21506WAT     H264761   8.349   5.738   6.876
21507WAT      O64762   0.666   9.743   6.277
21507WAT     H164763   0.671   9.719   6.180
21507WAT     H264764   0.684   9.662   6.333
21508WAT      O64765   1.668   0.916   5.656
21508WAT     H164766   1.714   0.828   5.665
21508WAT     H264767   1.698   0.961   5.572
21509WAT      O64768   5.936   0.728   4.330
21509WAT     H164769   5.853   0.674   4.343
21509WAT     H264770   5.975   0.709   4.240
21510WAT      O64771   8.613   6.705   4.444
21510WAT     H164772   8.688   6.734   4.385
21510WAT     H264773   8.531   6.758   4.422
21511WAT      O64774   0.190   5.955   5.060
21511WAT     H164775   0.201   5.990   5.153
21511WAT     H264776   0.248   6.007   4.997
21512WAT      O64777   1.549   6.673   8.495
21512WAT     H164778   1.452   6.655   8.514
21512WAT     H264779   1.566   6.772   8.503
21513WAT      O64780   2.786   4.294   0.875
21513WAT     H164781   2.877   4.335   0.879
21513WAT     H264782   2.789   4.209   0.823
21514WAT      O64783   9.132   7.215   1.292
21514WAT     H164784   9.137   7.126   1.246
21514WAT     H264785   9.038   7.249   1.287
21515WAT      O64786   2.750   8.425   8.281
21515WAT     H164787   2.673   8.370   8.250
21515WAT     H264788   2.723   8.480   8.360
21516WAT      O64789   6.884   4.130   7.536
21516WAT     H164790   6.943   4.056   7.566
21516WAT     H264791   6.884   4.135   7.436
21517WAT      O64792   3.244   4.846   2.261
21517WAT     H164793   3.259   4.944   2.275
21517WAT     H264794   3.254   4.798   2.348
21518WAT      O64795   1.633   5.352   8.430
21518WAT     H164796   1.544   5.339   8.474
21518WAT     H264797   1.624   5.418   8.355
21519WAT      O64798   0.639   3.780   5.832
21519WAT     H164799   0.726   3.825   5.854
21519WAT     H264800   0.564   3.844   5.846
21520WAT      O64801   3.284   5.792   8.606
21520WAT     H164802   3.192   5.764   8.633
21520WAT     H264803   3.289   5.892   8.601
21521WAT      O64804   3.480   7.988   4.689
21521WAT     H164805   3.456   7.898   4.725
21521WAT     H264806   3.557   8.025   4.740
21522WAT      O64807   5.032   9.395   5.240
21522WAT     H164808   5.020   9.358   5.148
21522WAT     H264809   5.059   9.491   5.233
21523WAT      O64810   3.739   9.174   0.280
21523WAT     H164811   3.723   9.076   0.264
21523WAT     H264812   3.707   9.198   0.371
21524WAT      O64813   8.280   1.362   4.050
21524WAT     H164814   8.198   1.327   4.006
21524WAT     H264815   8.321   1.433   3.993
21525WAT      O64816   5.226   7.536   7.255
21525WAT     H164817   5.272   7.482   7.184
21525WAT     H264818   5.285   7.543   7.335
21526WAT      O64819   7.253   6.833   4.209
21526WAT     H164820   7.222   6.888   4.287
21526WAT     H264821   7.285   6.744   4.242
21527WAT      O64822   0.343   7.987   2.072
21527WAT     H164823   0.313   8.003   2.167
21527WAT     H264824   0.428   8.036   2.056
21528WAT      O64825   8.052   3.152   1.115
21528WAT     H164826   8.040   3.233   1.058
21528WAT     H264827   8.149   3.139   1.134
21529WAT      O64828   2.008   5.729   5.586
21529WAT     H164829   2.026   5.650   5.527
21529WAT     H264830   2.041   5.812   5.542
21530WAT      O64831   3.923   5.124   2.403
21530WAT     H164832   3.985   5.146   2.328
21530WAT     H264833   3.855   5.196   2.413
21531WAT      O64834   2.371   5.125   1.495
21531WAT     H164835   2.447   5.090   1.441
21531WAT     H264836   2.286   5.118   1.442
21532WAT      O64837   3.777   7.948   4.559
21532WAT     H164838   3.682   7.923   4.575
21532WAT     H264839   3.795   7.950   4.461
21533WAT      O64840   6.299   8.359   5.334
21533WAT     H164841   6.267   8.430   5.271
21533WAT     H264842   6.221   8.307   5.368
21534WAT      O64843   0.795   5.536   3.410
21534WAT     H164844   0.834   5.529   3.502
21534WAT     H264845   0.701   5.503   3.411
21535WAT      O64846   3.854   0.040   0.150
21535WAT     H164847   3.932  -0.022   0.155
21535WAT     H264848   3.804   0.038   0.237
21536WAT      O64849   1.047   2.345   6.310
21536WAT     H164850   1.010   2.279   6.244
21536WAT     H264851   1.077   2.296   6.392
21537WAT      O64852   1.022   4.797   8.791
21537WAT     H164853   1.121   4.811   8.791
21537WAT     H264854   0.995   4.750   8.707
21538WAT      O64855   7.639   1.842   2.984
21538WAT     H164856   7.723   1.838   3.038
21538WAT     H264857   7.564   1.801   3.035
21539WAT      O64858   8.373   2.838   2.338
21539WAT     H164859   8.445   2.782   2.299
21539WAT     H264860   8.312   2.870   2.265
21540WAT      O64861   7.683   8.467   1.782
21540WAT     H164862   7.711   8.401   1.712
21540WAT     H264863   7.751   8.469   1.855
21541WAT      O64864   6.495   6.007   5.462
21541WAT     H164865   6.448   6.048   5.541
21541WAT     H264866   6.446   5.924   5.434
21542WAT      O64867   9.221   6.202   7.195
21542WAT     H164868   9.317   6.224   7.178
21542WAT     H264869   9.164   6.245   7.124
21543WAT      O64870   6.076   5.099   6.125
21543WAT     H164871   6.142   5.174   6.133
21543WAT     H264872   5.990   5.126   6.168
21544WAT      O64873   7.026   3.336   3.274
21544WAT     H164874   6.965   3.261   3.247
21544WAT     H264875   7.000   3.370   3.364
21545WAT      O64876   3.862   6.639   0.681
21545WAT     H164877   3.910   6.656   0.767
21545WAT     H264878   3.783   6.580   0.699
21546WAT      O64879   9.787   6.882   1.663
21546WAT     H164880   9.820   6.842   1.749
21546WAT     H264881   9.802   6.981   1.665
21547WAT      O64882   5.890   2.627   7.970
21547WAT     H164883   5.853   2.715   7.939
21547WAT     H264884   5.816   2.569   8.004
21548WAT      O64885   0.553   1.022   4.927
21548WAT     H164886   0.461   0.987   4.906
21548WAT     H264887   0.547   1.119   4.948
21549WAT      O64888   1.692   1.514   8.716
21549WAT     H164889   1.785   1.481   8.703
21549WAT     H264890   1.628   1.439   8.703
21550WAT      O64891   2.759   0.110   2.717
21550WAT     H164892   2.811   0.073   2.794
21550WAT     H264893   2.790   0.068   2.632
21551WAT      O64894   3.067   6.841   3.899
21551WAT     H164895   3.112   6.822   3.986
21551WAT     H264896   2.971   6.862   3.915
21552WAT      O64897   0.578   2.970   8.510
21552WAT     H164898   0.548   3.049   8.457
21552WAT     H264899   0.538   2.974   8.601
21553WAT      O64900   6.423   7.128   1.402
21553WAT     H164901   6.374   7.068   1.338
21553WAT     H264902   6.404   7.223   1.379
21554WAT      O64903   0.877   8.290   4.913
21554WAT     H164904   0.819   8.261   4.837
21554WAT     H264905   0.922   8.210   4.953
21555WAT      O64906   5.609   6.186   6.892
21555WAT     H164907   5.615   6.284   6.911
21555WAT     H264908   5.685   6.139   6.938
21556WAT      O64909   6.750   4.093   9.690
21556WAT     H164910   6.696   4.176   9.676
21556WAT     H264911   6.720   4.023   9.626
21557WAT      O64912   4.155   2.657   6.674
21557WAT     H164913   4.236   2.657   6.615
21557WAT     H264914   4.073   2.649   6.618
21558WAT      O64915   2.212   1.335   1.560
21558WAT     H164916   2.182   1.429   1.576
21558WAT     H264917   2.187   1.307   1.468
21559WAT      O64918   7.526   0.530   6.642
21559WAT     H164919   7.565   0.591   6.710
21559WAT     H264920   7.596   0.467   6.609
21560WAT      O64921   5.690   5.994   0.866
21560WAT     H164922   5.695   6.087   0.828
21560WAT     H264923   5.758   5.936   0.820
21561WAT      O64924   9.540   4.400   0.184
21561WAT     H164925   9.600   4.331   0.224
21561WAT     H264926   9.547   4.397   0.085
21562WAT      O64927   7.199   6.181   7.608
21562WAT     H164928   7.099   6.178   7.616
21562WAT     H264929   7.240   6.133   7.685
21563WAT      O64930   2.190   2.172   4.329
21563WAT     H164931   2.289   2.187   4.322
21563WAT     H264932   2.145   2.257   4.358
21564WAT      O64933   4.630   9.059   5.061
21564WAT     H164934   4.619   9.054   5.161
21564WAT     H264935   4.715   9.108   5.040
21565WAT      O64936   0.594   0.184   5.909
21565WAT     H164937   0.653   0.264   5.903
21565WAT     H264938   0.518   0.202   5.972
21566WAT      O64939   0.800   0.181   1.509
21566WAT     H164940   0.876   0.243   1.490
21566WAT     H264941   0.827   0.087   1.485
21567WAT      O64942   7.120   7.015   8.004
21567WAT     H164943   7.169   7.096   8.036
21567WAT     H264944   7.186   6.945   7.977
21568WAT      O64945   3.890   4.171   0.871
21568WAT     H164946   3.805   4.164   0.819
21568WAT     H264947   3.885   4.249   0.934
21569WAT      O64948   2.603   1.871   7.188
21569WAT     H164949   2.584   1.940   7.118
21569WAT     H264950   2.696   1.884   7.223
21570WAT      O64951   4.031   9.457   6.173
21570WAT     H164952   3.936   9.449   6.204
21570WAT     H264953   4.090   9.481   6.250
21571WAT      O64954   4.588   4.654   6.005
21571WAT     H164955   4.604   4.673   5.908
21571WAT     H264956   4.624   4.729   6.060
21572WAT      O64957   0.869   0.048   9.325
21572WAT     H164958   0.810   0.127   9.341
21572WAT     H264959   0.867   0.024   9.228
21573WAT      O64960   7.976   2.245   2.422
21573WAT     H164961   7.984   2.325   2.481
21573WAT     H264962   7.919   2.267   2.343
21574WAT      O64963   6.784   6.388   1.809
21574WAT     H164964   6.687   6.408   1.827
21574WAT     H264965   6.794   6.358   1.714
21575WAT      O64966   0.554   0.689   9.798
21575WAT     H164967   0.516   0.705   9.707
21575WAT     H264968   0.624   0.617   9.792
21576WAT      O64969   0.444   0.676   3.431
21576WAT     H164970   0.467   0.674   3.334
21576WAT     H264971   0.392   0.760   3.451
21577WAT      O64972   4.421   7.077   3.001
21577WAT     H164973   4.374   7.131   3.071
21577WAT     H264974   4.384   7.099   2.911
21578WAT      O64975   8.572   4.957   4.504
21578WAT     H164976   8.556   4.880   4.565
21578WAT     H264977   8.660   4.946   4.458
21579WAT      O64978   4.662   9.043   2.384
21579WAT     H164979   4.710   8.959   2.360
21579WAT     H264980   4.668   9.107   2.307
21580WAT      O64981   1.700   6.685   4.216
21580WAT     H164982   1.605   6.712   4.205
21580WAT     H264983   1.759   6.764   4.203
21581WAT      O64984   6.532   8.083   9.784
21581WAT     H164985   6.603   8.152   9.798
21581WAT     H264986   6.560   7.997   9.827
21582WAT      O64987   5.977   5.510   2.317
21582WAT     H164988   5.996   5.458   2.401
21582WAT     H264989   5.990   5.608   2.335
21583WAT      O64990   3.640   6.581   2.070
21583WAT     H164991   3.696   6.536   2.000
21583WAT     H264992   3.578   6.513   2.110
21584WAT      O64993   3.326   4.054   1.473
21584WAT     H164994   3.405   3.996   1.493
21584WAT     H264995   3.287   4.089   1.558
21585WAT      O64996   4.884   6.622   5.851
21585WAT     H164997   4.839   6.554   5.909
21585WAT     H264998   4.981   6.600   5.843
21586WAT      O64999   8.661   3.739   6.102
21586WAT     H165000   8.754   3.773   6.085
21586WAT     H265001   8.665   3.643   6.127
21587WAT      O65002   8.422   5.353   6.268
21587WAT     H165003   8.365   5.394   6.197
21587WAT     H265004   8.424   5.413   6.348
21588WAT      O65005   4.254   1.617   3.792
21588WAT     H165006   4.275   1.528   3.833
21588WAT     H265007   4.338   1.670   3.783
21589WAT      O65008   7.689   7.572   3.383
21589WAT     H165009   7.591   7.573   3.366
21589WAT     H265010   7.733   7.646   3.332
21590WAT      O65011   3.768   7.493   9.115
21590WAT     H165012   3.779   7.395   9.096
21590WAT     H265013   3.678   7.509   9.154
21591WAT      O65014   0.770   5.029   6.003
21591WAT     H165015   0.752   5.037   5.905
21591WAT     H265016   0.738   4.941   6.036
21592WAT      O65017   3.525   1.449   5.040
21592WAT     H165018   3.533   1.351   5.056
21592WAT     H265019   3.554   1.470   4.947
21593WAT      O65020   1.192   6.050   2.269
21593WAT     H165021   1.215   6.112   2.344
21593WAT     H265022   1.160   5.963   2.307
21594WAT      O65023   9.565   6.297   4.996
21594WAT     H165024   9.485   6.296   5.057
21594WAT     H265025   9.584   6.203   4.966
21595WAT      O65026   8.803   0.555   6.030
21595WAT     H165027   8.894   0.560   5.990
21595WAT     H265028   8.744   0.499   5.971
21596WAT      O65029   3.796   1.014   5.798
21596WAT     H165030   3.718   1.076   5.807
21596WAT     H265031   3.832   0.994   5.889
21597WAT      O65032   5.737   5.450   6.050
21597WAT     H165033   5.782   5.365   6.023
21597WAT     H265034   5.807   5.519   6.070
21598WAT      O65035   5.920   7.408   7.548
21598WAT     H165036   5.986   7.395   7.621
21598WAT     H265037   5.918   7.505   7.522
21599WAT      O65038   3.782   7.791   0.064
21599WAT     H165039   3.701   7.752   0.107
21599WAT     H265040   3.849   7.718   0.047
21600WAT      O65041   0.812   1.234   2.014
21600WAT     H165042   0.781   1.321   2.054
21600WAT     H265043   0.791   1.160   2.077
21601WAT      O65044   4.114   9.107   0.545
21601WAT     H165045   4.169   9.030   0.511
21601WAT     H265046   4.175   9.181   0.573
21602WAT      O65047   7.815   8.249   5.648
21602WAT     H165048   7.784   8.238   5.554
21602WAT     H265049   7.912   8.224   5.654
21603WAT      O65050   4.001   5.667   6.384
21603WAT     H165051   4.012   5.621   6.472
21603WAT     H265052   4.090   5.675   6.339
21604WAT      O65053   6.310   3.887   1.153
21604WAT     H165054   6.381   3.825   1.119
21604WAT     H265055   6.221   3.840   1.152
21605WAT      O65056   5.019   2.424   4.778
21605WAT     H165057   5.102   2.373   4.756
21605WAT     H265058   5.020   2.450   4.875
21606WAT      O65059   8.033   0.306   0.932
21606WAT     H165060   8.128   0.286   0.908
21606WAT     H265061   7.972   0.261   0.867
21607WAT      O65062   3.018   0.117   8.455
21607WAT     H165063   3.032   0.063   8.538
21607WAT     H265064   3.045   0.211   8.472
21608WAT      O65065   6.099   6.418   4.295
21608WAT     H165066   6.033   6.346   4.277
21608WAT     H265067   6.085   6.453   4.388
21609WAT      O65068   1.817   6.124   5.161
21609WAT     H165069   1.878   6.045   5.160
21609WAT     H265070   1.800   6.155   5.067
21610WAT      O65071   6.918   5.767   2.845
21610WAT     H165072   6.873   5.684   2.813
21610WAT     H265073   6.939   5.825   2.767
21611WAT      O65074   8.628   7.088   3.899
21611WAT     H165075   8.698   7.033   3.946
21611WAT     H265076   8.671   7.169   3.859
21612WAT      O65077   4.142   0.796   2.533
21612WAT     H165078   4.148   0.778   2.631
21612WAT     H265079   4.211   0.864   2.507
21613WAT      O65080   9.726   3.821   9.761
21613WAT     H165081   9.716   3.729   9.798
21613WAT     H265082   9.648   3.842   9.702
21614WAT      O65083   2.660   7.738   4.139
21614WAT     H165084   2.604   7.820   4.121
21614WAT     H265085   2.600   7.658   4.147
21615WAT      O65086   2.623   8.357   3.475
21615WAT     H165087   2.678   8.347   3.393
21615WAT     H265088   2.653   8.437   3.526
21616WAT      O65089   4.289   9.111   1.666
21616WAT     H165090   4.275   9.181   1.597
21616WAT     H265091   4.267   9.149   1.756
21617WAT      O65092   4.048   3.492   4.978
21617WAT     H165093   4.041   3.542   4.891
21617WAT     H265094   4.016   3.398   4.964
21618WAT      O65095   2.521   0.337   5.683
21618WAT     H165096   2.593   0.379   5.628
21618WAT     H265097   2.453   0.406   5.708
21619WAT      O65098   0.279   1.779   2.341
21619WAT     H165099   0.367   1.732   2.350
21619WAT     H265100   0.217   1.723   2.285
21620WAT      O65101   5.076   8.855   0.021
21620WAT     H165102   5.148   8.836  -0.046
21620WAT     H265103   5.057   8.773   0.075
21621WAT      O65104   4.868   5.430   7.231
21621WAT     H165105   4.844   5.495   7.159
21621WAT     H265106   4.797   5.360   7.237
21622WAT      O65107   1.941   1.567   6.481
21622WAT     H165108   1.971   1.661   6.497
21622WAT     H265109   1.983   1.507   6.550
21623WAT      O65110   3.876   3.434   8.038
21623WAT     H165111   3.788   3.474   8.011
21623WAT     H265112   3.886   3.441   8.137
21624WAT      O65113   0.574   3.435   8.581
21624WAT     H165114   0.569   3.535   8.586
21624WAT     H265115   0.633   3.401   8.654
21625WAT      O65116   2.795   9.804   8.635
21625WAT     H165117   2.795   9.764   8.727
21625WAT     H265118   2.864   9.758   8.579
21626WAT      O65119   4.873   3.870   4.089
21626WAT     H165120   4.967   3.845   4.065
21626WAT     H265121   4.872   3.914   4.179
21627WAT      O65122   0.962   5.298   3.452
21627WAT     H165123   1.036   5.357   3.418
21627WAT     H265124   1.002   5.217   3.495
21628WAT      O65125   8.925   8.591   6.614
21628WAT     H165126   8.988   8.655   6.569
21628WAT     H265127   8.977   8.512   6.646
21629WAT      O65128   5.289   0.350   3.311
21629WAT     H165129   5.371   0.383   3.358
21629WAT     H265130   5.308   0.260   3.270
21630WAT      O65131   2.157   7.574   7.478
21630WAT     H165132   2.095   7.650   7.459
21630WAT     H265133   2.250   7.599   7.451
21631WAT      O65134   1.324   6.440   6.929
21631WAT     H165135   1.293   6.533   6.947
21631WAT     H265136   1.245   6.381   6.914
21632WAT      O65137   8.159   3.832   8.825
21632WAT     H165138   8.111   3.904   8.775
21632WAT     H265139   8.256   3.853   8.828
21633WAT      O65140   8.904   4.962   2.318
21633WAT     H165141   8.820   4.927   2.362
21633WAT     H265142   8.983   4.916   2.358
21634WAT      O65143   2.070   2.587   3.371
21634WAT     H165144   2.037   2.586   3.465
21634WAT     H265145   2.170   2.596   3.371
21635WAT      O65146   5.547   7.779   1.322
21635WAT     H165147   5.467   7.766   1.264
21635WAT     H265148   5.560   7.697   1.379
21636WAT      O65149   8.544   1.443   3.091
21636WAT     H165150   8.595   1.412   3.011
21636WAT     H265151   8.583   1.403   3.174
21637WAT      O65152   2.659   4.379   6.928
21637WAT     H165153   2.634   4.289   6.962
21637WAT     H265154   2.613   4.449   6.983
21638WAT      O65155   4.441   3.874   3.157
21638WAT     H165156   4.428   3.853   3.254
21638WAT     H265157   4.531   3.840   3.128
21639WAT      O65158   8.404   7.046   6.220
21639WAT     H165159   8.464   7.127   6.215
21639WAT     H265160   8.455   6.965   6.191
21640WAT      O65161   6.816   2.592   3.559
21640WAT     H165162   6.854   2.530   3.628
21640WAT     H265163   6.727   2.558   3.529
21641WAT      O65164   1.003   8.526   9.697
21641WAT     H165165   0.926   8.486   9.647
21641WAT     H265166   1.049   8.594   9.640
21642WAT      O65167   8.673   6.679   0.093
21642WAT     H165168   8.706   6.713   0.181
21642WAT     H265169   8.583   6.638   0.104
21643WAT      O65170   0.708   3.613   5.288
21643WAT     H165171   0.612   3.596   5.311
21643WAT     H265172   0.716   3.699   5.237
21644WAT      O65173   5.663   0.385   6.231
21644WAT     H165174   5.686   0.437   6.313
21644WAT     H265175   5.698   0.433   6.151
21645WAT      O65176   0.718   1.529   7.578
21645WAT     H165177   0.811   1.558   7.603
21645WAT     H265178   0.716   1.506   7.481
21646WAT      O65179   9.604   1.414   6.117
21646WAT     H165180   9.616   1.350   6.041
21646WAT     H265181   9.575   1.364   6.199
21647WAT      O65182   6.972   6.253   5.556
21647WAT     H165183   7.060   6.218   5.587
21647WAT     H265184   6.974   6.267   5.457
21648WAT      O65185   1.041   2.625   8.347
21648WAT     H165186   1.135   2.628   8.380
21648WAT     H265187   0.996   2.712   8.366
21649WAT      O65188   6.660   5.468   4.378
21649WAT     H165189   6.585   5.426   4.427
21649WAT     H265190   6.721   5.514   4.444
21650WAT      O65191   6.736   5.162   1.392
21650WAT     H165192   6.739   5.251   1.346
21650WAT     H265193   6.756   5.173   1.489
21651WAT      O65194   0.335   2.471   8.159
21651WAT     H165195   0.322   2.387   8.212
21651WAT     H265196   0.411   2.523   8.197
21652WAT      O65197   7.194   5.631   6.153
21652WAT     H165198   7.095   5.633   6.144
21652WAT     H265199   7.235   5.631   6.061
21653WAT      O65200   6.956   6.860   1.713
21653WAT     H165201   6.860   6.834   1.723
21653WAT     H265202   6.964   6.928   1.641
21654WAT      O65203   3.457   7.526   5.897
21654WAT     H165204   3.392   7.564   5.962
21654WAT     H265205   3.408   7.486   5.820
21655WAT      O65206   5.019   6.681   1.462
21655WAT     H165207   4.970   6.744   1.402
21655WAT     H265208   5.051   6.730   1.543
21656WAT      O65209   5.922   1.445   3.641
21656WAT     H165210   5.855   1.518   3.649
21656WAT     H265211   5.975   1.457   3.556
21657WAT      O65212   4.565   6.804   8.526
21657WAT     H165213   4.571   6.880   8.461
21657WAT     H265214   4.613   6.827   8.610
21658WAT      O65215   1.851   6.819   1.338
21658WAT     H165216   1.765   6.772   1.359
21658WAT     H265217   1.928   6.759   1.358
21659WAT      O65218   2.799   9.251   4.323
21659WAT     H165219   2.800   9.161   4.279
21659WAT     H265220   2.709   9.267   4.364
21660WAT      O65221   2.513   8.599   8.462
21660WAT     H165222   2.426   8.566   8.499
21660WAT     H265223   2.568   8.637   8.536
21661WAT      O65224   8.931   5.608   4.777
21661WAT     H165225   8.851   5.655   4.813
21661WAT     H265226   8.932   5.616   4.677
21662WAT      O65227   2.748   8.227   0.451
21662WAT     H165228   2.711   8.318   0.431
21662WAT     H265229   2.782   8.224   0.544
21663WAT      O65230   7.572   8.499   0.937
21663WAT     H165231   7.520   8.437   0.878
21663WAT     H265232   7.647   8.539   0.885
21664WAT      O65233   6.404   6.172   1.413
21664WAT     H165234   6.357   6.186   1.325
21664WAT     H265235   6.442   6.079   1.415
21665WAT      O65236   1.351   2.042   6.483
21665WAT     H165237   1.346   2.018   6.386
21665WAT     H265238   1.373   1.961   6.536
21666WAT      O65239   8.431   6.562   0.148
21666WAT     H165240   8.383   6.485   0.190
21666WAT     H265241   8.393   6.580   0.058
21667WAT      O65242   3.966   5.804   5.606
21667WAT     H165243   3.874   5.763   5.600
21667WAT     H265244   4.019   5.779   5.525
21668WAT      O65245   6.665   1.794   3.451
21668WAT     H165246   6.721   1.821   3.530
21668WAT     H265247   6.677   1.861   3.378
21669WAT      O65248   4.952   6.778   9.850
21669WAT     H165249   5.011   6.700   9.830
21669WAT     H265250   5.007   6.862   9.848
21670WAT      O65251   5.256   6.749   2.669
21670WAT     H165252   5.223   6.812   2.739
21670WAT     H265253   5.194   6.671   2.662
21671WAT      O65254   3.772   5.303   4.537
21671WAT     H165255   3.698   5.277   4.475
21671WAT     H265256   3.813   5.389   4.505
21672WAT      O65257   0.653   2.732   6.729
21672WAT     H165258   0.727   2.775   6.779
21672WAT     H265259   0.670   2.634   6.721
21673WAT      O65260   6.661   8.471   9.337
21673WAT     H165261   6.678   8.381   9.376
21673WAT     H265262   6.571   8.504   9.366
21674WAT      O65263   6.579   8.025   9.498
21674WAT     H165264   6.639   7.956   9.538
21674WAT     H265265   6.506   8.047   9.563
21675WAT      O65266   9.809   0.221   4.234
21675WAT     H165267   9.757   0.167   4.168
21675WAT     H265268   9.891   0.170   4.262
21676WAT      O65269   5.047   8.500   5.333
21676WAT     H165270   5.049   8.600   5.335
21676WAT     H265271   5.100   8.467   5.255
21677WAT      O65272   7.147   9.013   1.934
21677WAT     H165273   7.060   9.056   1.955
21677WAT     H265274   7.221   9.079   1.948
21678WAT      O65275   1.280   7.011   3.126
21678WAT     H165276   1.367   6.976   3.093
21678WAT     H265277   1.211   6.938   3.124
21679WAT      O65278   0.121   8.772   6.683
21679WAT     H165279   0.026   8.794   6.702
21679WAT     H265280   0.169   8.855   6.654
21680WAT      O65281   5.629   3.509   3.567
21680WAT     H165282   5.567   3.477   3.495
21680WAT     H265283   5.612   3.605   3.586
21681WAT      O65284   1.664   5.611   9.456
21681WAT     H165285   1.608   5.560   9.391
21681WAT     H265286   1.727   5.549   9.502
21682WAT      O65287   0.505   8.169   3.769
21682WAT     H165288   0.447   8.120   3.834
21682WAT     H265289   0.545   8.249   3.814
21683WAT      O65290   4.421   3.409   3.881
21683WAT     H165291   4.333   3.396   3.926
21683WAT     H265292   4.484   3.454   3.945
21684WAT      O65293   4.578   7.844   9.668
21684WAT     H165294   4.503   7.901   9.703
21684WAT     H265295   4.570   7.835   9.569
21685WAT      O65296   2.039   5.457   8.440
21685WAT     H165297   2.055   5.358   8.428
21685WAT     H265298   2.112   5.508   8.393
21686WAT      O65299   0.387   1.813   3.766
21686WAT     H165300   0.358   1.742   3.829
21686WAT     H265301   0.376   1.903   3.809
21687WAT      O65302   4.959   8.190   1.018
21687WAT     H165303   5.029   8.194   1.089
21687WAT     H265304   4.961   8.100   0.975
21688WAT      O65305   1.380   1.282   3.009
21688WAT     H165306   1.323   1.323   3.080
21688WAT     H265307   1.349   1.312   2.919
21689WAT      O65308   2.911   3.006   7.487
21689WAT     H165309   2.845   3.080   7.503
21689WAT     H265310   2.944   3.011   7.392
21690WAT      O65311   5.404   9.760   2.235
21690WAT     H165312   5.345   9.688   2.272
21690WAT     H265313   5.471   9.719   2.172
21691WAT      O65314   2.355   3.433   5.159
21691WAT     H165315   2.265   3.477   5.158
21691WAT     H265316   2.379   3.407   5.253
21692WAT      O65317   2.721   5.178   9.729
21692WAT     H165318   2.789   5.107   9.748
21692WAT     H265319   2.755   5.238   9.657
21693WAT      O65320   3.427   4.169   4.664
21693WAT     H165321   3.377   4.182   4.579
21693WAT     H265322   3.446   4.258   4.705
21694WAT      O65323   6.574   2.039   3.972
21694WAT     H165324   6.561   2.080   3.882
21694WAT     H265325   6.535   2.099   4.042
21695WAT      O65326   6.592   9.624   3.978
21695WAT     H165327   6.658   9.588   4.044
21695WAT     H265328   6.640   9.662   3.899
21696WAT      O65329   0.666   7.369   6.207
21696WAT     H165330   0.686   7.287   6.260
21696WAT     H265331   0.712   7.363   6.118
21697WAT      O65332   0.628   5.224   9.448
21697WAT     H165333   0.581   5.177   9.522
21697WAT     H265334   0.727   5.210   9.457
21698WAT      O65335   5.102   5.235   8.386
21698WAT     H165336   5.192   5.207   8.355
21698WAT     H265337   5.035   5.164   8.363
21699WAT      O65338   9.132   3.029   4.543
21699WAT     H165339   9.040   2.994   4.561
21699WAT     H265340   9.180   3.044   4.630
21700WAT      O65341   1.321   3.202   3.069
21700WAT     H165342   1.294   3.276   3.131
21700WAT     H265343   1.420   3.202   3.057
21701WAT      O65344   3.133   3.199   6.670
21701WAT     H165345   3.122   3.104   6.696
21701WAT     H265346   3.187   3.247   6.740
21702WAT      O65347   6.948   5.504   9.126
21702WAT     H165348   6.926   5.501   9.223
21702WAT     H265349   6.940   5.598   9.093
21703WAT      O65350   1.064   0.498   3.804
21703WAT     H165351   1.074   0.567   3.876
21703WAT     H265352   1.021   0.416   3.842
21704WAT      O65353   0.629   6.400   3.845
21704WAT     H165354   0.724   6.371   3.835
21704WAT     H265355   0.568   6.325   3.817
21705WAT      O65356   7.978   4.625   7.941
21705WAT     H165357   7.934   4.713   7.957
21705WAT     H265358   8.018   4.624   7.849
21706WAT      O65359   2.336   9.699   2.130
21706WAT     H165360   2.394   9.694   2.212
21706WAT     H265361   2.389   9.734   2.053
21707WAT      O65362   0.011   0.475   4.200
21707WAT     H165363  -0.028   0.391   4.236
21707WAT     H265364   0.046   0.531   4.275
21708WAT      O65365   9.588   0.648   4.277
21708WAT     H165366   9.557   0.578   4.341
21708WAT     H265367   9.643   0.606   4.205
21709WAT      O65368   5.146   1.858   6.360
21709WAT     H165369   5.147   1.957   6.372
21709WAT     H265370   5.081   1.817   6.423
21710WAT      O65371   2.798   2.877   1.077
21710WAT     H165372   2.706   2.914   1.069
21710WAT     H265373   2.864   2.940   1.037
21711WAT      O65374   3.454   0.939   8.914
21711WAT     H165375   3.519   0.863   8.907
21711WAT     H265376   3.500   1.018   8.955
21712WAT      O65377   5.261   2.960   1.843
21712WAT     H165378   5.177   2.949   1.896
21712WAT     H265379   5.337   2.916   1.891
21713WAT      O65380   3.758   2.468   8.510
21713WAT     H165381   3.770   2.482   8.609
21713WAT     H265382   3.704   2.543   8.472
21714WAT      O65383   4.158   4.025   8.090
21714WAT     H165384   4.078   3.970   8.067
21714WAT     H265385   4.143   4.070   8.178
21715WAT      O65386   2.905   9.550   0.195
21715WAT     H165387   2.871   9.549   0.101
21715WAT     H265388   2.936   9.459   0.221
21716WAT      O65389   6.615   5.843   2.400
21716WAT     H165390   6.665   5.793   2.471
21716WAT     H265391   6.575   5.926   2.438
21717WAT      O65392   2.099   2.318   0.935
21717WAT     H165393   2.034   2.265   0.881
21717WAT     H265394   2.119   2.269   1.020
21718WAT      O65395   5.662   8.906   4.066
21718WAT     H165396   5.735   8.839   4.059
21718WAT     H265397   5.619   8.899   4.156
21719WAT      O65398   8.010   1.132   4.401
21719WAT     H165399   8.070   1.124   4.480
21719WAT     H265400   8.037   1.066   4.331
21720WAT      O65401   1.308   7.942   9.057
21720WAT     H165402   1.242   8.006   9.097
21720WAT     H265403   1.306   7.950   8.958
21721WAT      O65404   6.764   8.328   2.794
21721WAT     H165405   6.757   8.300   2.890
21721WAT     H265406   6.820   8.411   2.787
21722WAT      O65407   7.448   1.072   1.785
21722WAT     H165408   7.481   1.146   1.726
21722WAT     H265409   7.509   1.061   1.863
21723WAT      O65410   6.528   6.082   2.456
21723WAT     H165411   6.499   6.144   2.528
21723WAT     H265412   6.582   6.132   2.388
21724WAT      O65413   7.895   5.510   1.209
21724WAT     H165414   7.866   5.599   1.244
21724WAT     H265415   7.853   5.438   1.264
21725WAT      O65416   7.208   0.888   3.809
21725WAT     H165417   7.161   0.812   3.852
21725WAT     H265418   7.202   0.880   3.709
21726WAT      O65419   0.312   6.140   0.665
21726WAT     H165420   0.253   6.208   0.709
21726WAT     H265421   0.256   6.080   0.608
21727WAT      O65422   6.304   1.272   3.104
21727WAT     H165423   6.298   1.371   3.117
21727WAT     H265424   6.221   1.228   3.139
21728WAT      O65425   5.048   3.637   5.182
21728WAT     H165426   5.100   3.643   5.267
21728WAT     H265427   4.983   3.713   5.177
21729WAT      O65428   4.961   5.972   8.878
21729WAT     H165429   4.938   5.875   8.886
21729WAT     H265430   4.949   6.016   8.967
21730WAT      O65431   8.930   3.471   8.780
21730WAT     H165432   8.903   3.562   8.812
21730WAT     H265433   9.028   3.470   8.759
21731WAT      O65434   6.125   8.325   9.046
21731WAT     H165435   6.046   8.337   9.105
21731WAT     H265436   6.207   8.313   9.103
21732WAT      O65437   3.631   3.506   0.440
21732WAT     H165438   3.713   3.499   0.498
21732WAT     H265439   3.616   3.602   0.416
21733WAT      O65440   7.638   2.954   4.252
21733WAT     H165441   7.670   2.984   4.162
21733WAT     H265442   7.671   2.861   4.269
21734WAT      O65443   6.383   5.060   8.679
21734WAT     H165444   6.380   4.964   8.650
21734WAT     H265445   6.334   5.117   8.614
21735WAT      O65446   6.914   4.595   0.866
21735WAT     H165447   6.911   4.542   0.950
21735WAT     H265448   6.904   4.692   0.887
21736WAT      O65449   7.418   2.670   0.005
21736WAT     H165450   7.327   2.644   0.034
21736WAT     H265451   7.414   2.708  -0.087
21737WAT      O65452   4.746   4.786   6.983
21737WAT     H165453   4.780   4.783   6.889
21737WAT     H265454   4.822   4.775   7.047
21738WAT      O65455   4.407   5.850   5.325
21738WAT     H165456   4.463   5.769   5.309
21738WAT     H265457   4.323   5.844   5.271
21739WAT      O65458   3.997   4.828   4.718
21739WAT     H165459   3.899   4.816   4.699
21739WAT     H265460   4.009   4.900   4.786
21740WAT      O65461   3.325   3.064   0.336
21740WAT     H165462   3.321   3.122   0.255
21740WAT     H265463   3.384   3.106   0.404
21741WAT      O65464   5.484   2.764   9.265
21741WAT     H165465   5.465   2.784   9.361
21741WAT     H265466   5.579   2.736   9.255
21742WAT      O65467   2.797   5.850   0.364
21742WAT     H165468   2.740   5.884   0.438
21742WAT     H265469   2.892   5.842   0.396
21743WAT      O65470   3.266   9.082   2.429
21743WAT     H165471   3.262   9.015   2.355
21743WAT     H265472   3.264   9.174   2.391
21744WAT      O65473   0.292   2.037   5.752
21744WAT     H165474   0.349   2.086   5.819
21744WAT     H265475   0.204   2.083   5.744
21745WAT      O65476   0.826   1.716   7.209
21745WAT     H165477   0.895   1.657   7.251
21745WAT     H265478   0.736   1.695   7.247
21746WAT      O65479   4.389   5.934   0.796
21746WAT     H165480   4.302   5.951   0.842
21746WAT     H265481   4.450   5.885   0.858
21747WAT      O65482   4.786   1.360   1.777
21747WAT     H165483   4.762   1.400   1.688
21747WAT     H265484   4.708   1.307   1.812
21748WAT      O65485   8.223   3.432   4.997
21748WAT     H165486   8.281   3.476   4.928
21748WAT     H265487   8.133   3.476   4.999
21749WAT      O65488   0.848   6.631   5.950
21749WAT     H165489   0.913   6.645   5.876
21749WAT     H265490   0.788   6.554   5.927
21750WAT      O65491   8.988   3.928   4.057
21750WAT     H165492   8.998   4.028   4.059
21750WAT     H265493   9.069   3.885   4.098
21751WAT      O65494   9.376   1.334   3.174
21751WAT     H165495   9.407   1.258   3.117
21751WAT     H265496   9.341   1.408   3.115
21752WAT      O65497   8.266   9.200   2.502
21752WAT     H165498   8.340   9.265   2.487
21752WAT     H265499   8.280   9.119   2.445
21753WAT      O65500   5.010   6.342   1.980
21753WAT     H165501   5.023   6.243   1.972
21753WAT     H265502   4.956   6.361   2.062
21754WAT      O65503   1.146   9.811   1.710
21754WAT     H165504   1.195   9.736   1.666
21754WAT     H265505   1.136   9.792   1.807
21755WAT      O65506   7.466   2.263   3.528
21755WAT     H165507   7.547   2.239   3.582
21755WAT     H265508   7.495   2.295   3.438
21756WAT      O65509   9.685   8.021   8.778
21756WAT     H165510   9.631   8.105   8.789
21756WAT     H265511   9.749   8.013   8.855
21757WAT      O65512   9.164   5.832   1.428
21757WAT     H165513   9.070   5.805   1.408
21757WAT     H265514   9.205   5.767   1.491
21758WAT      O65515   0.306   1.203   6.911
21758WAT     H165516   0.317   1.290   6.864
21758WAT     H265517   0.367   1.135   6.869
21759WAT      O65518   8.828   9.619   2.989
21759WAT     H165519   8.834   9.550   3.060
21759WAT     H265520   8.801   9.707   3.030
21760WAT      O65521   7.915   9.662   0.192
21760WAT     H165522   7.993   9.605   0.219
21760WAT     H265523   7.834   9.604   0.181
21761WAT      O65524   7.504   9.620   1.818
21761WAT     H165525   7.472   9.543   1.763
21761WAT     H265526   7.446   9.628   1.900
21762WAT      O65527   7.000   7.768   0.683
21762WAT     H165528   7.017   7.858   0.724
21762WAT     H265529   6.991   7.700   0.755
21763WAT      O65530   7.482   8.102   0.297
21763WAT     H165531   7.410   8.035   0.316
21763WAT     H265532   7.520   8.086   0.206
21764WAT      O65533   6.361   9.386   2.750
21764WAT     H165534   6.287   9.322   2.770
21764WAT     H265535   6.442   9.361   2.802
21765WAT      O65536   1.657   1.526   5.389
21765WAT     H165537   1.648   1.611   5.336
21765WAT     H265538   1.566   1.490   5.409
21766WAT      O65539   0.863   0.922   8.430
21766WAT     H165540   0.911   0.836   8.414
21766WAT     H265541   0.899   0.992   8.367
21767WAT      O65542   0.572   1.703   8.010
21767WAT     H165543   0.644   1.753   7.962
21767WAT     H265544   0.490   1.760   8.017
21768WAT      O65545   6.262   0.930   3.499
21768WAT     H165546   6.191   0.932   3.429
21768WAT     H265547   6.320   1.011   3.490
21769WAT      O65548   4.240   4.570   8.230
21769WAT     H165549   4.264   4.610   8.141
21769WAT     H265550   4.252   4.471   8.226
21770WAT      O65551   2.832   2.960   2.404
21770WAT     H165552   2.866   3.011   2.482
21770WAT     H265553   2.846   3.014   2.320
21771WAT      O65554   8.410   5.270   7.057
21771WAT     H165555   8.444   5.177   7.070
21771WAT     H265556   8.362   5.300   7.140
21772WAT      O65557   8.024   3.938   1.880
21772WAT     H165558   8.020   3.925   1.781
21772WAT     H265559   7.956   4.007   1.907
21773WAT      O65560   7.721   9.694   6.143
21773WAT     H165561   7.728   9.706   6.242
21773WAT     H265562   7.809   9.714   6.101
21774WAT      O65563   5.827   4.658   3.399
21774WAT     H165564   5.746   4.635   3.453
21774WAT     H265565   5.808   4.644   3.302
21775WAT      O65566   5.132   5.145   0.069
21775WAT     H165567   5.200   5.165   0.140
21775WAT     H265568   5.149   5.055   0.031
21776WAT      O65569   4.533   2.802   7.355
21776WAT     H165570   4.558   2.879   7.414
21776WAT     H265571   4.434   2.795   7.351
21777WAT      O65572   2.716   2.187   6.475
21777WAT     H165573   2.743   2.105   6.525
21777WAT     H265574   2.618   2.202   6.486
21778WAT      O65575   7.326   8.799   9.668
21778WAT     H165576   7.366   8.891   9.666
21778WAT     H265577   7.386   8.738   9.719
21779WAT      O65578   0.477   4.563   9.483
21779WAT     H165579   0.485   4.629   9.409
21779WAT     H265580   0.448   4.610   9.567
21780WAT      O65581   2.379   5.534   4.213
21780WAT     H165582   2.361   5.523   4.115
21780WAT     H265583   2.306   5.491   4.266
21781WAT      O65584   3.937   0.318   4.215
21781WAT     H165585   3.956   0.320   4.117
21781WAT     H265586   3.932   0.411   4.250
21782WAT      O65587   3.238   7.421   0.349
21782WAT     H165588   3.249   7.362   0.268
21782WAT     H265589   3.319   7.412   0.407
21783WAT      O65590   2.427   7.199   2.282
21783WAT     H165591   2.427   7.104   2.249
21783WAT     H265592   2.492   7.253   2.229
21784WAT      O65593   4.834   1.196   5.501
21784WAT     H165594   4.746   1.224   5.541
21784WAT     H265595   4.881   1.276   5.465
21785WAT      O65596   4.659   2.803   2.395
21785WAT     H165597   4.632   2.843   2.308
21785WAT     H265598   4.601   2.839   2.468
21786WAT      O65599   3.806   5.568   9.483
21786WAT     H165600   3.746   5.618   9.545
21786WAT     H265601   3.821   5.476   9.519
21787WAT      O65602   2.513   2.257   3.089
21787WAT     H165603   2.559   2.326   3.033
21787WAT     H265604   2.553   2.167   3.070
21788WAT      O65605   4.661   6.605   5.684
21788WAT     H165606   4.688   6.541   5.611
21788WAT     H265607   4.731   6.604   5.756
21789WAT      O65608   8.982   4.926   6.771
21789WAT     H165609   8.954   5.021   6.767
21789WAT     H265610   8.971   4.891   6.864
21790WAT      O65611   2.295   7.038   4.933
21790WAT     H165612   2.268   7.121   4.982
21790WAT     H265613   2.331   6.971   4.999
21791WAT      O65614   6.147   8.748   7.792
21791WAT     H165615   6.088   8.799   7.729
21791WAT     H265616   6.153   8.653   7.763
21792WAT      O65617   6.060   0.128   8.321
21792WAT     H165618   6.058   0.204   8.256
21792WAT     H265619   6.002   0.149   8.399
21793WAT      O65620   3.724   5.382   5.953
21793WAT     H165621   3.803   5.338   5.910
21793WAT     H265622   3.719   5.478   5.922
21794WAT      O65623   7.259   7.777   1.747
21794WAT     H165624   7.276   7.754   1.843
21794WAT     H265625   7.319   7.853   1.720
21795WAT      O65626   3.195   2.948   5.559
21795WAT     H165627   3.143   2.866   5.583
21795WAT     H265628   3.141   3.003   5.496
21796WAT      O65629   0.172   0.676   9.589
21796WAT     H165630   0.190   0.580   9.613
21796WAT     H265631   0.137   0.724   9.669
21797WAT      O65632   4.121   7.202   9.011
21797WAT     H165633   4.052   7.226   8.943
21797WAT     H265634   4.158   7.285   9.052
21798WAT      O65635   1.048   5.570   4.754
21798WAT     H165636   1.022   5.485   4.799
21798WAT     H265637   1.036   5.646   4.818
21799WAT      O65638   2.277   2.391   1.311
21799WAT     H165639   2.198   2.333   1.335
21799WAT     H265640   2.268   2.479   1.357
21800WAT      O65641   1.431   6.887   2.248
21800WAT     H165642   1.419   6.856   2.154
21800WAT     H265643   1.454   6.984   2.249
21801WAT      O65644   1.001   6.473   8.167
21801WAT     H165645   1.064   6.528   8.113
21801WAT     H265646   0.939   6.422   8.107
21802WAT      O65647   3.184   3.310   7.842
21802WAT     H165648   3.212   3.386   7.783
21802WAT     H265649   3.265   3.265   7.879
21803WAT      O65650   0.407   4.927   1.634
21803WAT     H165651   0.417   4.970   1.724
21803WAT     H265652   0.311   4.930   1.607
21804WAT      O65653   2.340   6.905   7.837
21804WAT     H165654   2.424   6.953   7.862
21804WAT     H265655   2.315   6.841   7.910
21805WAT      O65656   3.420   7.068   5.403
21805WAT     H165657   3.470   7.011   5.337
21805WAT     H265658   3.485   7.109   5.467
21806WAT      O65659   8.729   7.588   4.002
21806WAT     H165660   8.732   7.545   3.912
21806WAT     H265661   8.816   7.635   4.019
21807WAT      O65662   6.821   5.611   4.560
21807WAT     H165663   6.901   5.638   4.615
21807WAT     H265664   6.765   5.547   4.612
21808WAT      O65665   2.282   4.473   5.874
21808WAT     H165666   2.288   4.475   5.774
21808WAT     H265667   2.200   4.521   5.903
21809WAT      O65668   2.341   4.282   6.752
21809WAT     H165669   2.322   4.245   6.661
21809WAT     H265670   2.318   4.214   6.821
21810WAT      O65671   4.823   5.034   0.638
21810WAT     H165672   4.897   5.007   0.700
21810WAT     H265673   4.769   5.107   0.680
21811WAT      O65674   2.595   3.954   6.673
21811WAT     H165675   2.659   3.935   6.598
21811WAT     H265676   2.590   4.053   6.687
21812WAT      O65677   2.592   8.435   4.903
21812WAT     H165678   2.493   8.439   4.889
21812WAT     H265679   2.637   8.493   4.835
21813WAT      O65680   8.819   6.751   5.309
21813WAT     H165681   8.916   6.737   5.291
21813WAT     H265682   8.786   6.681   5.372
21814WAT      O65683   1.724   2.364   1.827
21814WAT     H165684   1.761   2.298   1.892
21814WAT     H265685   1.677   2.437   1.877
21815WAT      O65686   6.012   4.277   3.395
21815WAT     H165687   5.915   4.279   3.416
21815WAT     H265688   6.049   4.370   3.400
21816WAT      O65689   0.146   0.937   2.996
21816WAT     H165690   0.079   0.864   2.998
21816WAT     H265691   0.214   0.922   3.067
21817WAT      O65692   0.157   0.207   3.397
21817WAT     H165693   0.091   0.260   3.450
21817WAT     H265694   0.133   0.210   3.300
21818WAT      O65695   2.453   1.855   6.645
21818WAT     H165696   2.536   1.848   6.589
21818WAT     H265697   2.471   1.814   6.735
21819WAT      O65698   0.205   2.693   8.376
21819WAT     H165699   0.158   2.606   8.369
21819WAT     H265700   0.186   2.749   8.296
21820WAT      O65701   2.982   2.952   3.585
21820WAT     H165702   2.993   2.854   3.565
21820WAT     H265703   2.986   2.966   3.684
21821WAT      O65704   8.418   0.766   1.143
21821WAT     H165705   8.427   0.851   1.091
21821WAT     H265706   8.376   0.785   1.232
21822WAT      O65707   2.201   1.051   8.077
21822WAT     H165708   2.219   1.082   7.984
21822WAT     H265709   2.287   1.045   8.128
21823WAT      O65710   0.333   9.002   5.080
21823WAT     H165711   0.408   9.057   5.042
21823WAT     H265712   0.311   8.928   5.017
21824WAT      O65713   8.906   3.437   7.868
21824WAT     H165714   9.004   3.415   7.859
21824WAT     H265715   8.857   3.402   7.788
21825WAT      O65716   2.778   9.403   0.939
21825WAT     H165717   2.749   9.422   1.033
21825WAT     H265718   2.730   9.465   0.877
21826WAT      O65719   7.119   2.362   6.980
21826WAT     H165720   7.067   2.368   7.066
21826WAT     H265721   7.070   2.303   6.916
21827WAT      O65722   1.106   3.988   2.982
21827WAT     H165723   1.053   4.039   3.049
21827WAT     H265724   1.112   3.892   3.009
21828WAT      O65725   3.461   1.305   7.013
21828WAT     H165726   3.528   1.345   6.952
21828WAT     H265727   3.414   1.229   6.968
21829WAT      O65728   5.981   6.904   1.895
21829WAT     H165729   6.008   6.967   1.822
21829WAT     H265730   5.973   6.812   1.859
21830WAT      O65731   8.860   8.393   4.783
21830WAT     H165732   8.770   8.350   4.779
21830WAT     H265733   8.856   8.474   4.842
21831WAT      O65734   1.768   9.139   2.880
21831WAT     H165735   1.821   9.200   2.820
21831WAT     H265736   1.792   9.158   2.975
21832WAT      O65737   3.214   2.850   9.314
21832WAT     H165738   3.163   2.838   9.399
21832WAT     H265739   3.212   2.765   9.262
21833WAT      O65740   2.953   6.273   3.176
21833WAT     H165741   3.028   6.207   3.168
21833WAT     H265742   2.906   6.281   3.089
21834WAT      O65743   7.552   5.183   1.443
21834WAT     H165744   7.643   5.204   1.408
21834WAT     H265745   7.556   5.100   1.500
21835WAT      O65746   7.395   8.817   6.465
21835WAT     H165747   7.399   8.720   6.485
21835WAT     H265748   7.327   8.834   6.394
21836WAT      O65749   7.225   9.653   0.595
21836WAT     H165750   7.279   9.573   0.620
21836WAT     H265751   7.225   9.718   0.671
21837WAT      O65752   3.995   7.626   0.279
21837WAT     H165753   4.072   7.609   0.339
21837WAT     H265754   3.972   7.723   0.280
21838WAT      O65755   4.573   6.869   6.261
21838WAT     H165756   4.635   6.876   6.182
21838WAT     H265757   4.613   6.807   6.329
21839WAT      O65758   2.538   2.198   1.695
21839WAT     H165759   2.567   2.256   1.619
21839WAT     H265760   2.570   2.105   1.680
21840WAT      O65761   5.454   8.086   3.217
21840WAT     H165762   5.394   8.140   3.278
21840WAT     H265763   5.403   8.008   3.182
21841WAT      O65764   8.609   5.665   7.744
21841WAT     H165765   8.542   5.606   7.789
21841WAT     H265766   8.632   5.628   7.655
21842WAT      O65767   5.161   6.943   4.819
21842WAT     H165768   5.250   6.932   4.863
21842WAT     H265769   5.096   6.878   4.858
21843WAT      O65770   3.168   4.542   7.024
21843WAT     H165771   3.203   4.586   6.941
21843WAT     H265772   3.147   4.446   7.004
21844WAT      O65773   9.622   0.960   1.998
21844WAT     H165774   9.673   1.046   2.002
21844WAT     H265775   9.682   0.887   1.965
21845WAT      O65776   1.974   9.219   5.112
21845WAT     H165777   2.053   9.196   5.169
21845WAT     H265778   1.893   9.230   5.170
21846WAT      O65779   3.736   5.846   7.235
21846WAT     H165780   3.671   5.770   7.241
21846WAT     H265781   3.825   5.811   7.206
21847WAT      O65782   7.115   7.488   0.433
21847WAT     H165783   7.174   7.443   0.366
21847WAT     H265784   7.156   7.576   0.459
21848WAT      O65785   3.470   1.501   0.123
21848WAT     H165786   3.423   1.424   0.079
21848WAT     H265787   3.558   1.516   0.079
21849WAT      O65788   5.971   8.957   6.966
21849WAT     H165789   5.967   9.048   7.006
21849WAT     H265790   6.066   8.929   6.955
21850WAT      O65791   1.379   6.470   5.469
21850WAT     H165792   1.374   6.499   5.565
21850WAT     H265793   1.291   6.487   5.425
21851WAT      O65794   1.983   9.474   0.765
21851WAT     H165795   1.934   9.493   0.850
21851WAT     H265796   2.040   9.392   0.777
21852WAT      O65797   6.306   9.338   8.377
21852WAT     H165798   6.258   9.255   8.405
21852WAT     H265799   6.285   9.358   8.282
21853WAT      O65800   7.467   4.953   0.548
21853WAT     H165801   7.388   4.901   0.581
21853WAT     H265802   7.548   4.894   0.549
21854WAT      O65803   1.932   1.452   3.376
21854WAT     H165804   2.000   1.440   3.303
21854WAT     H265805   1.852   1.396   3.356
21855WAT      O65806   6.234   5.000   0.391
21855WAT     H165807   6.274   5.080   0.435
21855WAT     H265808   6.240   4.921   0.451
21856WAT      O65809   6.582   6.452   8.818
21856WAT     H165810   6.562   6.386   8.747
21856WAT     H265811   6.682   6.463   8.826
21857WAT      O65812   0.464   9.554   5.463
21857WAT     H165813   0.467   9.512   5.554
21857WAT     H265814   0.494   9.488   5.394
21858WAT      O65815   0.658   0.913   4.585
21858WAT     H165816   0.587   0.978   4.612
21858WAT     H265817   0.616   0.833   4.542
21859WAT      O65818   7.952   1.643   4.289
21859WAT     H165819   7.932   1.549   4.314
21859WAT     H265820   8.006   1.644   4.205
21860WAT      O65821   3.627   7.117   6.601
21860WAT     H165822   3.549   7.082   6.549
21860WAT     H265823   3.708   7.118   6.543
21861WAT      O65824   8.757   5.697   0.804
21861WAT     H165825   8.739   5.716   0.708
21861WAT     H265826   8.809   5.613   0.813
21862WAT      O65827   4.285   4.847   1.340
21862WAT     H165828   4.359   4.797   1.385
21862WAT     H265829   4.261   4.802   1.254
21863WAT      O65830   3.063   3.581   2.965
21863WAT     H165831   3.114   3.647   3.020
21863WAT     H265832   3.119   3.552   2.888
21864WAT      O65833   4.426   5.368   0.499
21864WAT     H165834   4.418   5.300   0.427
21864WAT     H265835   4.505   5.347   0.556
21865WAT      O65836   7.580   8.898   8.749
21865WAT     H165837   7.491   8.918   8.792
21865WAT     H265838   7.577   8.807   8.709
21866WAT      O65839   6.404   7.718   3.529
21866WAT     H165840   6.369   7.735   3.622
21866WAT     H265841   6.464   7.639   3.531
21867WAT      O65842   7.326   1.416   0.966
21867WAT     H165843   7.256   1.346   0.958
21867WAT     H265844   7.346   1.433   1.062
21868WAT      O65845   0.080   4.749   6.508
21868WAT     H165846   0.012   4.705   6.450
21868WAT     H265847   0.046   4.753   6.602
21869WAT      O65848   5.951   1.177   0.796
21869WAT     H165849   6.009   1.182   0.877
21869WAT     H265850   6.001   1.135   0.721
21870WAT      O65851   6.598   7.518   6.923
21870WAT     H165852   6.692   7.530   6.890
21870WAT     H265853   6.566   7.426   6.901
21871WAT      O65854   7.095   8.488   6.382
21871WAT     H165855   7.014   8.438   6.350
21871WAT     H265856   7.079   8.521   6.475
21872WAT      O65857   1.482   3.895   9.009
21872WAT     H165858   1.409   3.885   8.942
21872WAT     H265859   1.458   3.847   9.093
21873WAT      O65860   2.661   3.114   1.998
21873WAT     H165861   2.745   3.167   2.007
21873WAT     H265862   2.584   3.168   2.032
21874WAT      O65863   9.609   9.006   7.787
21874WAT     H165864   9.522   8.989   7.834
21874WAT     H265865   9.628   8.930   7.725
21875WAT      O65866   6.428   1.986   7.962
21875WAT     H165867   6.417   1.941   8.051
21875WAT     H265868   6.341   1.989   7.915
21876WAT      O65869   1.085   1.592   3.461
21876WAT     H165870   1.135   1.587   3.548
21876WAT     H265871   0.987   1.591   3.479
21877WAT      O65872   7.620   4.097   3.107
21877WAT     H165873   7.561   4.158   3.054
21877WAT     H265874   7.692   4.151   3.151
21878WAT      O65875   6.257   8.116   2.747
21878WAT     H165876   6.357   8.120   2.757
21878WAT     H265877   6.214   8.157   2.827
21879WAT      O65878   1.284   0.913   2.328
21879WAT     H165879   1.327   0.912   2.418
21879WAT     H265880   1.185   0.927   2.338
21880WAT      O65881   6.911   6.075   6.642
21880WAT     H165882   6.987   6.021   6.605
21880WAT     H265883   6.879   6.032   6.727
21881WAT      O65884   4.007   2.482   3.958
21881WAT     H165885   3.992   2.387   3.983
21881WAT     H265886   4.056   2.487   3.871
21882WAT      O65887   5.004   7.428   6.270
21882WAT     H165888   5.085   7.386   6.230
21882WAT     H265889   4.928   7.422   6.205
21883WAT      O65890   3.976   0.637   3.654
21883WAT     H165891   3.954   0.694   3.575
21883WAT     H265892   4.048   0.679   3.708
21884WAT      O65893   3.352   8.892   6.219
21884WAT     H165894   3.289   8.921   6.147
21884WAT     H265895   3.394   8.804   6.194
21885WAT      O65896   6.470   5.509   8.194
21885WAT     H165897   6.509   5.516   8.103
21885WAT     H265898   6.382   5.461   8.189
21886WAT      O65899   7.909   8.895   8.331
21886WAT     H165900   7.977   8.826   8.309
21886WAT     H265901   7.884   8.945   8.248
21887WAT      O65902   8.846   8.928   2.310
21887WAT     H165903   8.795   9.013   2.303
21887WAT     H265904   8.785   8.850   2.292
21888WAT      O65905   7.809   4.494   1.699
21888WAT     H165906   7.780   4.472   1.792
21888WAT     H265907   7.792   4.416   1.639
21889WAT      O65908   2.877   6.015   0.968
21889WAT     H165909   2.896   6.020   0.869
21889WAT     H265910   2.872   6.107   1.005
21890WAT      O65911   4.720   5.490   2.597
21890WAT     H165912   4.637   5.543   2.612
21890WAT     H265913   4.695   5.401   2.558
21891WAT      O65914   3.129   6.236   4.890
21891WAT     H165915   3.066   6.176   4.939
21891WAT     H265916   3.087   6.267   4.805
21892WAT      O65917   9.215   7.841   4.182
21892WAT     H165918   9.267   7.840   4.097
21892WAT     H265919   9.129   7.890   4.168
21893WAT      O65920   6.684   6.919   1.718
21893WAT     H165921   6.682   6.961   1.809
21893WAT     H265922   6.659   6.988   1.650
21894WAT      O65923   4.264   5.485   8.337
21894WAT     H165924   4.320   5.561   8.304
21894WAT     H265925   4.204   5.517   8.410
21895WAT      O65926   1.082   2.990   6.906
21895WAT     H165927   1.009   2.922   6.914
21895WAT     H265928   1.136   2.991   6.991
21896WAT      O65929   6.499   7.679   9.207
21896WAT     H165930   6.513   7.643   9.115
21896WAT     H265931   6.410   7.723   9.213
21897WAT      O65932   1.251   6.677   0.961
21897WAT     H165933   1.176   6.670   1.026
21897WAT     H265934   1.338   6.664   1.009
21898WAT      O65935   6.048   8.925   9.225
21898WAT     H165936   6.093   8.957   9.308
21898WAT     H265937   6.112   8.928   9.149
21899WAT      O65938   6.056   3.284   9.372
21899WAT     H165939   6.091   3.282   9.278
21899WAT     H265940   5.956   3.277   9.371
21900WAT      O65941   4.467   1.299   1.424
21900WAT     H165942   4.498   1.214   1.466
21900WAT     H265943   4.511   1.309   1.334
21901WAT      O65944   0.474   4.559   8.150
21901WAT     H165945   0.515   4.618   8.219
21901WAT     H265946   0.469   4.608   8.063
21902WAT      O65947   7.375   9.119   2.695
21902WAT     H165948   7.434   9.200   2.701
21902WAT     H265949   7.369   9.089   2.600
21903WAT      O65950   7.195   0.175   4.694
21903WAT     H165951   7.096   0.172   4.710
21903WAT     H265952   7.223   0.269   4.677
21904WAT      O65953   1.313   7.860   0.155
21904WAT     H165954   1.388   7.796   0.169
21904WAT     H265955   1.255   7.862   0.237
21905WAT      O65956   5.813   8.727   8.139
21905WAT     H165957   5.876   8.797   8.105
21905WAT     H265958   5.774   8.677   8.061
21906WAT      O65959   8.259   9.065   9.610
21906WAT     H165960   8.342   9.121   9.609
21906WAT     H265961   8.245   9.023   9.520
21907WAT      O65962   1.849   4.670   4.300
21907WAT     H165963   1.774   4.623   4.347
21907WAT     H265964   1.826   4.766   4.286
21908WAT      O65965   9.632   5.156   4.706
21908WAT     H165966   9.641   5.155   4.806
21908WAT     H265967   9.546   5.201   4.681
21909WAT      O65968   0.016   2.587   2.267
21909WAT     H165969   0.073   2.525   2.213
21909WAT     H265970  -0.063   2.616   2.211
21910WAT      O65971   9.454   8.200   3.391
21910WAT     H165972   9.371   8.181   3.444
21910WAT     H265973   9.483   8.294   3.408
21911WAT      O65974   7.064   2.659   7.017
21911WAT     H165975   7.139   2.720   7.044
21911WAT     H265976   7.100   2.586   6.960
21912WAT      O65977   3.631   3.296   6.588
21912WAT     H165978   3.537   3.323   6.565
21912WAT     H265979   3.633   3.263   6.683
21913WAT      O65980   4.610   9.350   2.747
21913WAT     H165981   4.664   9.289   2.806
21913WAT     H265982   4.616   9.443   2.783
21914WAT      O65983   0.816   4.751   2.932
21914WAT     H165984   0.811   4.836   2.879
21914WAT     H265985   0.724   4.720   2.954
21915WAT      O65986   8.263   6.250   0.700
21915WAT     H165987   8.324   6.241   0.780
21915WAT     H265988   8.170   6.266   0.731
21916WAT      O65989   6.634   3.091   8.113
21916WAT     H165990   6.589   3.021   8.057
21916WAT     H265991   6.594   3.180   8.095
21917WAT      O65992   6.992   1.503   1.771
21917WAT     H165993   6.904   1.471   1.806
21917WAT     H265994   7.023   1.581   1.826
21918WAT      O65995   7.510   8.202   1.434
21918WAT     H165996   7.506   8.294   1.475
21918WAT     H265997   7.466   8.204   1.344
21919WAT      O65998   2.066   1.210   1.765
21919WAT     H165999   1.978   1.173   1.736
21919WAT     H266000   2.113   1.251   1.686
21920WAT      O66001   3.479   6.911   5.690
21920WAT     H166002   3.432   6.888   5.776
21920WAT     H266003   3.418   6.892   5.613
21921WAT      O66004   0.923   2.955   2.217
21921WAT     H166005   0.937   2.954   2.118
21921WAT     H266006   0.871   3.037   2.242
21922WAT      O66007   5.834   3.709   6.379
21922WAT     H166008   5.887   3.788   6.410
21922WAT     H266009   5.877   3.625   6.411
21923WAT      O66010   7.643   8.130   4.556
21923WAT     H166011   7.563   8.172   4.514
21923WAT     H266012   7.655   8.167   4.649
21924WAT      O66013   7.562   3.103   4.593
21924WAT     H166014   7.481   3.047   4.609
21924WAT     H266015   7.582   3.105   4.495
21925WAT      O66016   0.694   9.491   2.245
21925WAT     H166017   0.769   9.470   2.183
21925WAT     H266018   0.649   9.406   2.273
21926WAT      O66019   5.901   8.057   2.894
21926WAT     H166020   5.822   7.997   2.883
21926WAT     H266021   5.919   8.104   2.807
21927WAT      O66022   9.219   4.342   7.446
21927WAT     H166023   9.212   4.321   7.349
21927WAT     H266024   9.137   4.310   7.493
21928WAT      O66025   4.249   8.253   8.472
21928WAT     H166026   4.177   8.318   8.450
21928WAT     H266027   4.330   8.302   8.505
21929WAT      O66028   8.170   9.541   3.598
21929WAT     H166029   8.203   9.518   3.690
21929WAT     H266030   8.210   9.477   3.532
21930WAT      O66031   4.573   6.778   5.510
21930WAT     H166032   4.641   6.760   5.439
21930WAT     H266033   4.594   6.723   5.591
21931WAT      O66034   9.787   3.106   7.289
21931WAT     H166035   9.764   3.010   7.277
21931WAT     H266036   9.817   3.122   7.383
21932WAT      O66037   7.188   3.409   6.863
21932WAT     H166038   7.166   3.382   6.769
21932WAT     H266039   7.162   3.505   6.877
21933WAT      O66040   5.680   0.453   5.089
21933WAT     H166041   5.638   0.530   5.042
21933WAT     H266042   5.709   0.385   5.021
21934WAT      O66043   1.826   8.681   3.888
21934WAT     H166044   1.809   8.616   3.962
21934WAT     H266045   1.803   8.774   3.919
21935WAT      O66046   5.260   6.930   3.849
21935WAT     H166047   5.334   6.882   3.898
21935WAT     H266048   5.271   6.915   3.751
21936WAT      O66049   9.523   1.268   3.855
21936WAT     H166050   9.583   1.245   3.779
21936WAT     H266051   9.427   1.261   3.825
21937WAT      O66052   9.678   9.006   9.078
21937WAT     H166053   9.733   9.030   9.158
21937WAT     H266054   9.738   8.970   9.006
21938WAT      O66055   8.623   2.863   2.022
21938WAT     H166056   8.605   2.933   1.952
21938WAT     H266057   8.713   2.823   2.006
21939WAT      O66058   8.584   4.690   6.443
21939WAT     H166059   8.564   4.732   6.531
21939WAT     H266060   8.643   4.752   6.390
21940WAT      O66061   3.598   4.574   9.378
21940WAT     H166062   3.586   4.475   9.380
21940WAT     H266063   3.559   4.611   9.293
21941WAT      O66064   9.346   2.638   5.654
21941WAT     H166065   9.271   2.574   5.673
21941WAT     H266066   9.432   2.588   5.650
21942WAT      O66067   1.159   3.344   2.877
21942WAT     H166068   1.101   3.274   2.836
21942WAT     H266069   1.216   3.302   2.948
21943WAT      O66070   2.895   8.445   0.970
21943WAT     H166071   2.987   8.454   0.933
21943WAT     H266072   2.844   8.529   0.952
21944WAT      O66073   8.789   8.363   9.606
21944WAT     H166074   8.758   8.283   9.656
21944WAT     H266075   8.712   8.427   9.594
21945WAT      O66076   4.775   0.937   0.888
21945WAT     H166077   4.774   0.962   0.985
21945WAT     H266078   4.815   0.847   0.877
21946WAT      O66079   4.776   4.754   5.337
21946WAT     H166080   4.796   4.839   5.387
21946WAT     H266081   4.838   4.682   5.369
21947WAT      O66082   4.065   3.948   6.930
21947WAT     H166083   4.003   3.911   7.000
21947WAT     H266084   4.117   3.873   6.890
21948WAT      O66085   0.840   4.285   5.004
21948WAT     H166086   0.893   4.211   4.964
21948WAT     H266087   0.813   4.349   4.931
21949WAT      O66088   6.949   9.668   5.638
21949WAT     H166089   7.048   9.658   5.649
21949WAT     H266090   6.904   9.651   5.725
21950WAT      O66091   6.506   1.794   5.547
21950WAT     H166092   6.552   1.818   5.633
21950WAT     H266093   6.416   1.756   5.567
21951WAT      O66094   2.063   9.765   7.400
21951WAT     H166095   2.013   9.685   7.434
21951WAT     H266096   2.152   9.770   7.446
21952WAT      O66097   2.172   4.630   7.924
21952WAT     H166098   2.088   4.601   7.969
21952WAT     H266099   2.151   4.695   7.851
21953WAT      O66100   1.619   0.999   1.874
21953WAT     H166101   1.583   0.984   1.966
21953WAT     H266102   1.551   0.970   1.807
21954WAT      O66103   5.759   5.299   5.427
21954WAT     H166104   5.797   5.282   5.336
21954WAT     H266105   5.659   5.302   5.421
21955WAT      O66106   5.275   9.213   2.355
21955WAT     H166107   5.349   9.149   2.339
21955WAT     H266108   5.189   9.163   2.363
21956WAT      O66109   6.392   1.186   9.824
21956WAT     H166110   6.401   1.283   9.847
21956WAT     H266111   6.458   1.132   9.877
21957WAT      O66112   9.357   6.647   2.785
21957WAT     H166113   9.286   6.612   2.846
21957WAT     H266114   9.441   6.593   2.798
21958WAT      O66115   2.096   2.066   6.565
21958WAT     H166116   2.172   2.067   6.630
21958WAT     H266117   2.095   2.152   6.514
21959WAT      O66118   3.448   0.752   9.732
21959WAT     H166119   3.495   0.699   9.802
21959WAT     H266120   3.370   0.699   9.698
21960WAT      O66121   8.568   8.910   5.351
21960WAT     H166122   8.501   8.843   5.319
21960WAT     H266123   8.638   8.922   5.281
21961WAT      O66124   3.604   0.649   2.162
21961WAT     H166125   3.679   0.688   2.215
21961WAT     H266126   3.598   0.551   2.180
21962WAT      O66127   9.084   5.218   1.463
21962WAT     H166128   9.031   5.302   1.454
21962WAT     H266129   9.023   5.142   1.486
21963WAT      O66130   3.228   3.882   7.049
21963WAT     H166131   3.155   3.855   7.111
21963WAT     H266132   3.305   3.920   7.101
21964WAT      O66133   2.221   2.789   8.042
21964WAT     H166134   2.231   2.888   8.048
21964WAT     H266135   2.123   2.766   8.035
21965WAT      O66136   6.796   5.763   0.176
21965WAT     H166137   6.877   5.796   0.224
21965WAT     H266138   6.823   5.692   0.110
21966WAT      O66139   8.762   2.259   7.616
21966WAT     H166140   8.669   2.289   7.596
21966WAT     H266141   8.814   2.251   7.531
21967WAT      O66142   3.011   4.720   9.331
21967WAT     H166143   3.083   4.651   9.329
21967WAT     H266144   3.026   4.785   9.257
21968WAT      O66145   8.393   5.670   8.710
21968WAT     H166146   8.445   5.668   8.624
21968WAT     H266147   8.369   5.576   8.735
21969WAT      O66148   5.013   9.677   1.598
21969WAT     H166149   4.966   9.672   1.510
21969WAT     H266150   4.973   9.750   1.654
21970WAT      O66151   6.523   7.431   1.872
21970WAT     H166152   6.465   7.511   1.864
21970WAT     H266153   6.600   7.439   1.808
21971WAT      O66154   3.923   7.130   7.746
21971WAT     H166155   3.840   7.174   7.780
21971WAT     H266156   3.948   7.055   7.807
21972WAT      O66157   7.608   8.212   9.227
21972WAT     H166158   7.516   8.195   9.264
21972WAT     H266159   7.634   8.135   9.168
21973WAT      O66160   3.387   2.319   8.927
21973WAT     H166161   3.429   2.230   8.945
21973WAT     H266162   3.393   2.339   8.829
21974WAT      O66163   2.459   6.573   0.145
21974WAT     H166164   2.481   6.537   0.236
21974WAT     H266165   2.473   6.671   0.143
21975WAT      O66166   9.475   1.715   8.480
21975WAT     H166167   9.481   1.802   8.431
21975WAT     H266168   9.523   1.644   8.428
21976WAT      O66169   4.736   5.586   8.365
21976WAT     H166170   4.690   5.499   8.347
21976WAT     H266171   4.733   5.643   8.282
21977WAT      O66172   3.139   8.864   9.617
21977WAT     H166173   3.065   8.927   9.640
21977WAT     H266174   3.102   8.782   9.575
21978WAT      O66175   0.486   5.171   7.815
21978WAT     H166176   0.555   5.136   7.879
21978WAT     H266177   0.429   5.239   7.862
21979WAT      O66178   2.033   5.559   5.379
21979WAT     H166179   2.129   5.557   5.352
21979WAT     H266180   1.991   5.471   5.360
21980WAT      O66181   1.409   8.823   9.133
21980WAT     H166182   1.439   8.772   9.053
21980WAT     H266183   1.357   8.762   9.194
21981WAT      O66184   9.363   4.300   9.609
21981WAT     H166185   9.296   4.374   9.614
21981WAT     H266186   9.406   4.300   9.519
21982WAT      O66187   6.178   6.806   1.089
21982WAT     H166188   6.263   6.774   1.048
21982WAT     H266189   6.101   6.780   1.031
21983WAT      O66190   8.232   2.962   6.658
21983WAT     H166191   8.332   2.965   6.650
21983WAT     H266192   8.206   2.970   6.754
21984WAT      O66193   8.189   0.976   5.573
21984WAT     H166194   8.262   1.028   5.617
21984WAT     H266195   8.218   0.947   5.482
21985WAT      O66196   8.542   2.412   8.300
21985WAT     H166197   8.553   2.314   8.285
21985WAT     H266198   8.614   2.446   8.360
21986WAT      O66199   7.538   3.570   3.815
21986WAT     H166200   7.623   3.591   3.863
21986WAT     H266201   7.491   3.655   3.791
21987WAT      O66202   1.194   4.452   8.583
21987WAT     H166203   1.094   4.448   8.589
21987WAT     H266204   1.233   4.456   8.674
21988WAT      O66205   3.070   7.342   7.769
21988WAT     H166206   3.147   7.319   7.710
21988WAT     H266207   2.985   7.314   7.725
21989WAT      O66208   0.256   9.130   4.113
21989WAT     H166209   0.302   9.206   4.066
21989WAT     H266210   0.306   9.108   4.197
21990WAT      O66211   7.569   0.608   5.703
21990WAT     H166212   7.668   0.618   5.712
21990WAT     H266213   7.532   0.686   5.652
21991WAT      O66214   9.605   0.839   4.499
21991WAT     H166215   9.563   0.757   4.461
21991WAT     H266216   9.534   0.904   4.524
21992WAT      O66217   2.075   8.745   8.569
21992WAT     H166218   2.079   8.785   8.660
21992WAT     H266219   2.092   8.815   8.500
21993WAT      O66220   9.347   6.385   1.226
21993WAT     H166221   9.283   6.459   1.204
21993WAT     H266222   9.301   6.297   1.215
21994WAT      O66223   2.142   8.339   7.811
21994WAT     H166224   2.116   8.430   7.844
21994WAT     H266225   2.192   8.292   7.884
21995WAT      O66226   1.823   9.779   1.353
21995WAT     H166227   1.819   9.793   1.254
21995WAT     H266228   1.871   9.855   1.396
21996WAT      O66229   7.388   9.406   1.665
21996WAT     H166230   7.314   9.338   1.663
21996WAT     H266231   7.473   9.364   1.635
21997WAT      O66232   6.393   7.633   3.781
21997WAT     H166233   6.470   7.669   3.833
21997WAT     H266234   6.400   7.534   3.774
21998WAT      O66235   2.856   3.514   0.902
21998WAT     H166236   2.868   3.609   0.930
21998WAT     H266237   2.946   3.470   0.896
21999WAT      O66238   8.833   9.607   8.633
21999WAT     H166239   8.870   9.624   8.541
21999WAT     H266240   8.825   9.694   8.682
22000WAT      O66241   0.506   2.406   6.578
22000WAT     H166242   0.591   2.431   6.623
22000WAT     H266243   0.489   2.309   6.591
22001WAT      O66244   4.997   5.646   1.926
22001WAT     H166245   4.916   5.674   1.977
22001WAT     H266246   5.063   5.721   1.924
22002WAT      O66247   4.280   8.650   5.396
22002WAT     H166248   4.245   8.658   5.303
22002WAT     H266249   4.349   8.578   5.400
22003WAT      O66250   7.374   5.574   3.806
22003WAT     H166251   7.291   5.624   3.780
22003WAT     H266252   7.360   5.476   3.789
22004WAT      O66253   5.683   1.037   1.723
22004WAT     H166254   5.641   1.088   1.798
22004WAT     H266255   5.619   1.032   1.646
22005WAT      O66256   9.670   9.323   3.513
22005WAT     H166257   9.655   9.408   3.562
22005WAT     H266258   9.701   9.344   3.420
22006WAT      O66259   1.668   3.636   1.330
22006WAT     H166260   1.590   3.579   1.304
22006WAT     H266261   1.646   3.732   1.312
22007WAT      O66262   6.089   1.920   3.436
22007WAT     H166263   6.168   1.979   3.423
22007WAT     H266264   6.095   1.875   3.525
22008WAT      O66265   0.441   4.699   9.713
22008WAT     H166266   0.368   4.767   9.720
22008WAT     H266267   0.417   4.619   9.768
22009WAT      O66268   3.401   5.768   7.109
22009WAT     H166269   3.474   5.704   7.134
22009WAT     H266270   3.420   5.807   7.019
22010WAT      O66271   3.660   1.804   2.387
22010WAT     H166272   3.749   1.847   2.378
22010WAT     H266273   3.643   1.782   2.483
22011WAT      O66274   3.123   6.663   8.972
22011WAT     H166275   3.112   6.607   9.054
22011WAT     H266276   3.184   6.739   8.991
22012WAT      O66277   3.030   9.068   7.730
22012WAT     H166278   3.027   9.124   7.647
22012WAT     H266279   2.982   9.115   7.804
22013WAT      O66280   8.402   3.872   1.955
22013WAT     H166281   8.401   3.867   1.855
22013WAT     H266282   8.342   3.947   1.984
22014WAT      O66283   9.740   4.151   6.106
22014WAT     H166284   9.708   4.059   6.082
22014WAT     H266285   9.733   4.164   6.205
22015WAT      O66286   0.339   1.154   2.851
22015WAT     H166287   0.267   1.087   2.834
22015WAT     H266288   0.363   1.200   2.765
22016WAT      O66289   7.786   9.802   9.066
22016WAT     H166290   7.752   9.718   9.024
22016WAT     H266291   7.838   9.855   8.998
22017WAT      O66292   4.913   1.742   3.090
22017WAT     H166293   4.826   1.790   3.104
22017WAT     H266294   4.899   1.664   3.030
22018WAT      O66295   0.349   7.308   3.644
22018WAT     H166296   0.304   7.274   3.727
22018WAT     H266297   0.406   7.387   3.667
22019WAT      O66298   7.864   1.406   1.461
22019WAT     H166299   7.902   1.493   1.492
22019WAT     H266300   7.892   1.388   1.367
22020WAT      O66301   6.432   9.586   5.394
22020WAT     H166302   6.427   9.563   5.491
22020WAT     H266303   6.340   9.590   5.356
22021WAT      O66304   5.082   3.005   2.816
22021WAT     H166305   5.083   3.089   2.870
22021WAT     H266306   5.094   2.927   2.876
22022WAT      O66307   9.306   8.419   5.060
22022WAT     H166308   9.260   8.426   5.148
22022WAT     H266309   9.305   8.324   5.029
22023WAT      O66310   5.594   2.222   4.236
22023WAT     H166311   5.565   2.307   4.280
22023WAT     H266312   5.552   2.215   4.146
22024WAT      O66313   1.399   2.609   6.051
22024WAT     H166314   1.394   2.623   5.952
22024WAT     H266315   1.435   2.692   6.094
22025WAT      O66316   4.909   2.787   2.432
22025WAT     H166317   4.937   2.863   2.491
22025WAT     H266318   4.810   2.791   2.418
22026WAT      O66319   4.100   9.258   5.487
22026WAT     H166320   4.196   9.239   5.464
22026WAT     H266321   4.096   9.325   5.561
22027WAT      O66322   1.943   1.012   2.119
22027WAT     H166323   1.862   1.066   2.144
22027WAT     H266324   1.916   0.939   2.055
22028WAT      O66325   2.222   2.850   5.889
22028WAT     H166326   2.206   2.868   5.792
22028WAT     H266327   2.204   2.754   5.909
22029WAT      O66328   6.161   0.812   8.405
22029WAT     H166329   6.182   0.717   8.384
22029WAT     H266330   6.123   0.857   8.323
22030WAT      O66331   3.128   6.329   8.357
22030WAT     H166332   3.108   6.324   8.455
22030WAT     H266333   3.086   6.251   8.310
22031WAT      O66334   9.564   3.681   3.803
22031WAT     H166335   9.601   3.659   3.894
22031WAT     H266336   9.464   3.676   3.806
22032WAT      O66337   5.926   6.445   0.759
22032WAT     H166338   5.890   6.522   0.706
22032WAT     H266339   6.009   6.474   0.806
22033WAT      O66340   3.058   1.039   0.814
22033WAT     H166341   2.990   1.044   0.741
22033WAT     H266342   3.036   0.963   0.875
22034WAT      O66343   9.124   4.373   3.436
22034WAT     H166344   9.191   4.357   3.363
22034WAT     H266345   9.109   4.288   3.486
22035WAT      O66346   0.169   5.912   0.212
22035WAT     H166347   0.167   5.936   0.309
22035WAT     H266348   0.085   5.864   0.188
22036WAT      O66349   5.931   9.572   2.549
22036WAT     H166350   5.868   9.614   2.485
22036WAT     H266351   6.022   9.611   2.538
22037WAT      O66352   7.982   4.010   9.734
22037WAT     H166353   7.986   4.066   9.652
22037WAT     H266354   8.051   3.937   9.729
22038WAT      O66355   9.738   9.704   9.733
22038WAT     H166356   9.800   9.639   9.776
22038WAT     H266357   9.777   9.737   9.647
22039WAT      O66358   5.783   7.074   1.738
22039WAT     H166359   5.816   7.140   1.806
22039WAT     H266360   5.861   7.031   1.693
22040WAT      O66361   1.612   7.465   6.400
22040WAT     H166362   1.559   7.525   6.460
22040WAT     H266363   1.708   7.493   6.401
22041WAT      O66364   8.923   0.305   7.369
22041WAT     H166365   8.976   0.309   7.284
22041WAT     H266366   8.981   0.268   7.442
22042WAT      O66367   1.752   1.199   7.166
22042WAT     H166368   1.783   1.152   7.249
22042WAT     H266369   1.796   1.159   7.086
22043WAT      O66370   9.335   5.501   6.896
22043WAT     H166371   9.410   5.551   6.852
22043WAT     H266372   9.333   5.407   6.861
22044WAT      O66373   0.535   2.448   9.476
22044WAT     H166374   0.467   2.460   9.548
22044WAT     H266375   0.594   2.529   9.472
22045WAT      O66376   2.187   1.081   4.566
22045WAT     H166377   2.124   1.050   4.637
22045WAT     H266378   2.151   1.057   4.476
22046WAT      O66379   2.233   4.276   1.532
22046WAT     H166380   2.287   4.331   1.596
22046WAT     H266381   2.180   4.208   1.584
22047WAT      O66382   3.086   2.718   5.666
22047WAT     H166383   3.104   2.640   5.606
22047WAT     H266384   2.995   2.709   5.707
22048WAT      O66385   5.795   2.369   6.157
22048WAT     H166386   5.794   2.315   6.073
22048WAT     H266387   5.757   2.460   6.139
22049WAT      O66388   1.998   6.062   0.786
22049WAT     H166389   1.972   6.026   0.696
22049WAT     H266390   1.921   6.110   0.827
22050WAT      O66391   3.534   6.043   2.438
22050WAT     H166392   3.583   6.090   2.364
22050WAT     H266393   3.588   6.047   2.522
22051WAT      O66394   9.363   0.955   3.792
22051WAT     H166395   9.328   1.046   3.815
22051WAT     H266396   9.310   0.885   3.840
22052WAT      O66397   4.275   3.587   6.934
22052WAT     H166398   4.313   3.509   6.985
22052WAT     H266399   4.324   3.670   6.960
22053WAT      O66400   4.281   4.083   2.868
22053WAT     H166401   4.304   3.992   2.832
22053WAT     H266402   4.347   4.108   2.939
22054WAT      O66403   6.086   4.392   2.636
22054WAT     H166404   6.003   4.356   2.593
22054WAT     H266405   6.065   4.420   2.730
22055WAT      O66406   2.434   4.554   7.994
22055WAT     H166407   2.460   4.562   8.090
22055WAT     H266408   2.336   4.573   7.985
22056WAT      O66409   7.386   6.010   6.958
22056WAT     H166410   7.451   5.992   7.032
22056WAT     H266411   7.352   6.104   6.966
22057WAT      O66412   6.459   7.699   1.544
22057WAT     H166413   6.418   7.669   1.630
22057WAT     H266414   6.498   7.790   1.556
22058WAT      O66415   1.166   2.581   3.577
22058WAT     H166416   1.235   2.512   3.604
22058WAT     H266417   1.143   2.567   3.480
22059WAT      O66418   4.773   1.756   0.843
22059WAT     H166419   4.824   1.783   0.924
22059WAT     H266420   4.679   1.789   0.850
22060WAT      O66421   0.989   0.364   1.450
22060WAT     H166422   0.982   0.448   1.503
22060WAT     H266423   1.062   0.307   1.488
22061WAT      O66424   2.230   9.484   7.389
22061WAT     H166425   2.158   9.486   7.320
22061WAT     H266426   2.231   9.572   7.438
22062WAT      O66427   3.706   8.789   7.146
22062WAT     H166428   3.795   8.792   7.191
22062WAT     H266429   3.703   8.855   7.072
22063WAT      O66430   4.750   3.623   1.202
22063WAT     H166431   4.655   3.592   1.206
22063WAT     H266432   4.763   3.699   1.265
22064WAT      O66433   7.766   1.839   0.024
22064WAT     H166434   7.723   1.923  -0.009
22064WAT     H266435   7.711   1.761  -0.004
22065WAT      O66436   3.519   2.330   3.255
22065WAT     H166437   3.606   2.295   3.221
22065WAT     H266438   3.532   2.423   3.290
22066WAT      O66439   0.257   3.635   8.629
22066WAT     H166440   0.249   3.564   8.559
22066WAT     H266441   0.233   3.597   8.718
22067WAT      O66442   0.774   8.903   1.574
22067WAT     H166443   0.681   8.872   1.553
22067WAT     H266444   0.838   8.855   1.514
22068WAT      O66445   3.613   1.641   4.103
22068WAT     H166446   3.567   1.595   4.179
22068WAT     H266447   3.660   1.573   4.047
22069WAT      O66448   8.690   2.079   7.825
22069WAT     H166449   8.729   2.083   7.917
22069WAT     H266450   8.719   2.160   7.774
22070WAT      O66451   6.484   8.932   1.918
22070WAT     H166452   6.481   9.010   1.980
22070WAT     H266453   6.423   8.949   1.841
22071WAT      O66454   3.919   1.514   6.459
22071WAT     H166455   3.911   1.417   6.483
22071WAT     H266456   3.961   1.563   6.536
22072WAT      O66457   8.195   0.179   0.353
22072WAT     H166458   8.134   0.146   0.281
22072WAT     H266459   8.150   0.167   0.442
22073WAT      O66460   8.743   7.402   3.784
22073WAT     H166461   8.675   7.390   3.712
22073WAT     H266462   8.835   7.396   3.745
22074WAT      O66463   8.571   6.676   5.754
22074WAT     H166464   8.546   6.745   5.686
22074WAT     H266465   8.508   6.681   5.831
22075WAT      O66466   7.114   4.806   8.467
22075WAT     H166467   7.051   4.744   8.513
22075WAT     H266468   7.155   4.760   8.389
22076WAT      O66469   4.026   3.310   0.824
22076WAT     H166470   4.105   3.352   0.779
22076WAT     H266471   3.947   3.370   0.815
22077WAT      O66472   8.711   8.119   6.711
22077WAT     H166473   8.677   8.201   6.665
22077WAT     H266474   8.637   8.052   6.719
22078WAT      O66475   0.439   7.852   3.713
22078WAT     H166476   0.371   7.882   3.646
22078WAT     H266477   0.526   7.898   3.696
22079WAT      O66478   4.154   1.028   8.171
22079WAT     H166479   4.079   1.022   8.105
22079WAT     H266480   4.125   0.985   8.257
22080WAT      O66481   4.504   3.482   0.952
22080WAT     H166482   4.527   3.409   1.015
22080WAT     H266483   4.407   3.505   0.960
22081WAT      O66484   4.843   3.315   3.853
22081WAT     H166485   4.833   3.249   3.928
22081WAT     H266486   4.808   3.404   3.882
22082WAT      O66487   5.164   8.779   2.503
22082WAT     H166488   5.157   8.865   2.452
22082WAT     H266489   5.239   8.785   2.568
22083WAT      O66490   9.557   7.057   3.370
22083WAT     H166491   9.563   6.964   3.406
22083WAT     H266492   9.649   7.092   3.353
22084WAT      O66493   5.127   5.370   5.999
22084WAT     H166494   5.146   5.445   5.937
22084WAT     H266495   5.053   5.396   6.061
22085WAT      O66496   8.843   3.630   9.177
22085WAT     H166497   8.870   3.593   9.266
22085WAT     H266498   8.756   3.679   9.187
22086WAT      O66499   6.979   1.427   0.991
22086WAT     H166500   6.891   1.443   1.035
22086WAT     H266501   6.995   1.328   0.985
22087WAT      O66502   0.260   8.097   1.285
22087WAT     H166503   0.183   8.044   1.250
22087WAT     H266504   0.333   8.035   1.313
22088WAT      O66505   1.824   6.802   6.467
22088WAT     H166506   1.798   6.709   6.440
22088WAT     H266507   1.745   6.863   6.455
22089WAT      O66508   2.603   6.381   7.181
22089WAT     H166509   2.654   6.467   7.175
22089WAT     H266510   2.573   6.367   7.275
22090WAT      O66511   2.661   7.693   4.463
22090WAT     H166512   2.584   7.630   4.474
22090WAT     H266513   2.744   7.640   4.444
22091WAT      O66514   3.146   9.635   6.102
22091WAT     H166515   3.212   9.564   6.126
22091WAT     H266516   3.156   9.712   6.164
22092WAT      O66517   9.509   2.901   9.264
22092WAT     H166518   9.472   2.821   9.310
22092WAT     H266519   9.518   2.977   9.329
22093WAT      O66520   6.558   0.414   6.291
22093WAT     H166521   6.478   0.438   6.346
22093WAT     H266522   6.576   0.316   6.301
22094WAT      O66523   6.808   6.013   1.143
22094WAT     H166524   6.822   6.085   1.210
22094WAT     H266525   6.895   5.991   1.098
22095WAT      O66526   9.682   6.236   0.970
22095WAT     H166527   9.584   6.218   0.966
22095WAT     H266528   9.723   6.178   1.041
22096WAT      O66529   3.204   1.754   4.485
22096WAT     H166530   3.181   1.699   4.565
22096WAT     H266531   3.303   1.759   4.474
22097WAT      O66532   0.499   6.580   5.482
22097WAT     H166533   0.432   6.652   5.498
22097WAT     H266534   0.466   6.519   5.409
22098WAT      O66535   3.375   7.369   7.173
22098WAT     H166536   3.381   7.357   7.074
22098WAT     H266537   3.447   7.317   7.218
22099WAT      O66538   9.734   0.879   2.287
22099WAT     H166539   9.781   0.965   2.309
22099WAT     H266540   9.656   0.898   2.227
22100WAT      O66541   4.996   1.688   2.746
22100WAT     H166542   4.937   1.617   2.785
22100WAT     H266543   4.941   1.753   2.695
22101WAT      O66544   7.107   0.906   1.536
22101WAT     H166545   7.048   0.975   1.579
22101WAT     H266546   7.182   0.883   1.598
22102WAT      O66547   5.659   0.789   1.875
22102WAT     H166548   5.597   0.840   1.934
22102WAT     H266549   5.719   0.853   1.827
22103WAT      O66550   6.417   7.235   5.521
22103WAT     H166551   6.414   7.135   5.510
22103WAT     H266552   6.477   7.275   5.452
22104WAT      O66553   5.551   0.075   3.000
22104WAT     H166554   5.508  -0.014   3.014
22104WAT     H266555   5.647   0.072   3.028
22105WAT      O66556   6.867   4.863   6.093
22105WAT     H166557   6.964   4.866   6.069
22105WAT     H266558   6.819   4.804   6.028
22106WAT      O66559   5.968   6.693   3.515
22106WAT     H166560   6.011   6.777   3.547
22106WAT     H266561   6.038   6.632   3.478
22107WAT      O66562   0.116   9.360   3.374
22107WAT     H166563   0.143   9.369   3.470
22107WAT     H266564   0.197   9.368   3.315
22108WAT      O66565   1.298   9.143   1.753
22108WAT     H166566   1.368   9.165   1.686
22108WAT     H266567   1.321   9.057   1.798
22109WAT      O66568   5.377   9.405   6.589
22109WAT     H166569   5.278   9.423   6.594
22109WAT     H266570   5.418   9.417   6.679
22110WAT      O66571   8.399   6.192   1.841
22110WAT     H166572   8.498   6.203   1.831
22110WAT     H266573   8.377   6.094   1.843
22111WAT      O66574   7.859   0.735   5.399
22111WAT     H166575   7.874   0.791   5.318
22111WAT     H266576   7.762   0.711   5.405
22112WAT      O66577   1.115   7.999   1.466
22112WAT     H166578   1.143   7.943   1.388
22112WAT     H266579   1.194   8.052   1.499
22113WAT      O66580   3.747   6.881   6.963
22113WAT     H166581   3.794   6.814   7.020
22113WAT     H266582   3.800   6.899   6.881
22114WAT      O66583   8.124   1.001   4.199
22114WAT     H166584   8.099   0.952   4.116
22114WAT     H266585   8.224   0.998   4.211
22115WAT      O66586   8.517   1.663   1.974
22115WAT     H166587   8.492   1.566   1.974
22115WAT     H266588   8.470   1.710   2.048
22116WAT      O66589   2.578   6.314   5.315
22116WAT     H166590   2.569   6.292   5.412
22116WAT     H266591   2.592   6.230   5.262
22117WAT      O66592   0.456   1.822   5.682
22117WAT     H166593   0.414   1.910   5.703
22117WAT     H266594   0.436   1.757   5.756
22118WAT      O66595   5.495   9.369   1.874
22118WAT     H166596   5.455   9.372   1.783
22118WAT     H266597   5.432   9.323   1.937
22119WAT      O66598   6.346   8.349   8.895
22119WAT     H166599   6.397   8.419   8.945
22119WAT     H266600   6.253   8.343   8.932
22120WAT      O66601   5.975   7.491   8.409
22120WAT     H166602   5.912   7.569   8.412
22120WAT     H266603   5.981   7.456   8.316
22121WAT      O66604   9.746   7.726   1.671
22121WAT     H166605   9.765   7.800   1.736
22121WAT     H266606   9.649   7.730   1.644
22122WAT      O66607   9.883   0.963   1.700
22122WAT     H166608   9.926   1.049   1.724
22122WAT     H266609   9.882   0.902   1.779
22123WAT      O66610   2.136   7.648   4.926
22123WAT     H166611   2.088   7.723   4.971
22123WAT     H266612   2.209   7.615   4.986
22124WAT      O66613   4.869   8.256   7.277
22124WAT     H166614   4.965   8.253   7.304
22124WAT     H266615   4.850   8.179   7.216
22125WAT      O66616   0.233   9.795   0.675
22125WAT     H166617   0.293   9.719   0.700
22125WAT     H266618   0.198   9.782   0.583
22126WAT      O66619   8.464   0.129   2.406
22126WAT     H166620   8.548   0.168   2.445
22126WAT     H266621   8.481   0.105   2.310
22127WAT      O66622   4.725   1.279   3.446
22127WAT     H166623   4.681   1.326   3.523
22127WAT     H266624   4.824   1.280   3.459
22128WAT      O66625   0.513   0.926   9.387
22128WAT     H166626   0.597   0.969   9.422
22128WAT     H266627   0.434   0.962   9.436
22129WAT      O66628   1.185   7.118   0.162
22129WAT     H166629   1.092   7.140   0.194
22129WAT     H266630   1.249   7.128   0.238
22130WAT      O66631   9.176   1.136   6.486
22130WAT     H166632   9.266   1.165   6.452
22130WAT     H266633   9.175   1.141   6.586
22131WAT      O66634   5.107   5.398   6.359
22131WAT     H166635   5.059   5.446   6.286
22131WAT     H266636   5.042   5.347   6.414
22132WAT      O66637   5.518   2.039   5.743
22132WAT     H166638   5.597   2.056   5.685
22132WAT     H266639   5.481   1.948   5.724
22133WAT      O66640   3.590   0.480   3.611
22133WAT     H166641   3.556   0.421   3.538
22133WAT     H266642   3.632   0.561   3.570
22134WAT      O66643   4.494   2.817   6.255
22134WAT     H166644   4.468   2.859   6.342
22134WAT     H266645   4.516   2.721   6.270
22135WAT      O66646   0.478   4.933   5.777
22135WAT     H166647   0.410   4.982   5.723
22135WAT     H266648   0.570   4.960   5.747
22136WAT      O66649   3.794   5.779   5.996
22136WAT     H166650   3.835   5.856   5.946
22136WAT     H266651   3.852   5.699   5.986
22137WAT      O66652   1.920   0.362   1.186
22137WAT     H166653   1.821   0.366   1.171
22137WAT     H266654   1.965   0.431   1.131
22138WAT      O66655   9.873   4.048   5.608
22138WAT     H166656   9.781   4.017   5.631
22138WAT     H266657   9.939   4.008   5.672
22139WAT      O66658   2.617   2.827   1.327
22139WAT     H166659   2.572   2.863   1.409
22139WAT     H266660   2.577   2.870   1.246
22140WAT      O66661   4.402   5.705   8.247
22140WAT     H166662   4.322   5.765   8.241
22140WAT     H266663   4.475   5.740   8.189
22141WAT      O66664   6.926   8.984   4.394
22141WAT     H166665   7.010   9.032   4.422
22141WAT     H266666   6.949   8.910   4.331
22142WAT      O66667   9.827   9.117   3.475
22142WAT     H166668   9.924   9.131   3.498
22142WAT     H266669   9.771   9.183   3.526
22143WAT      O66670   6.476   2.057   4.816
22143WAT     H166671   6.569   2.076   4.846
22143WAT     H266672   6.448   1.967   4.850
22144WAT      O66673   0.817   3.424   5.135
22144WAT     H166674   0.889   3.378   5.188
22144WAT     H266675   0.772   3.492   5.192
22145WAT      O66676   8.921   0.895   3.992
22145WAT     H166677   8.865   0.865   3.915
22145WAT     H266678   9.007   0.844   3.993
22146WAT      O66679   3.836   1.216   7.087
22146WAT     H166680   3.935   1.221   7.105
22146WAT     H266681   3.801   1.308   7.067
22147WAT      O66682   2.602   3.393   6.222
22147WAT     H166683   2.506   3.373   6.201
22147WAT     H266684   2.623   3.486   6.193
22148WAT      O66685   7.386   8.762   5.326
22148WAT     H166686   7.339   8.753   5.238
22148WAT     H266687   7.484   8.746   5.313
22149WAT      O66688   5.761   1.965   0.318
22149WAT     H166689   5.786   1.870   0.336
22149WAT     H266690   5.843   2.023   0.322
22150WAT      O66691   9.072   0.349   8.537
22150WAT     H166692   9.029   0.362   8.448
22150WAT     H266693   9.080   0.252   8.557
22151WAT      O66694   4.607   3.858   5.352
22151WAT     H166695   4.541   3.868   5.427
22151WAT     H266696   4.684   3.920   5.368
22152WAT      O66697   9.732   9.117   8.036
22152WAT     H166698   9.677   9.089   7.957
22152WAT     H266699   9.724   9.216   8.047
22153WAT      O66700   1.725   8.342   0.353
22153WAT     H166701   1.786   8.318   0.278
22153WAT     H266702   1.779   8.363   0.435
22154WAT      O66703   3.792   6.072   4.983
22154WAT     H166704   3.772   6.160   4.940
22154WAT     H266705   3.854   6.019   4.924
22155WAT      O66706   6.457   9.843   1.701
22155WAT     H166707   6.415   9.757   1.730
22155WAT     H266708   6.538   9.824   1.646
22156WAT      O66709   2.113   7.210   3.574
22156WAT     H166710   2.147   7.281   3.512
22156WAT     H266711   2.080   7.132   3.520
22157WAT      O66712   5.852   0.753   6.657
22157WAT     H166713   5.875   0.839   6.611
22157WAT     H266714   5.771   0.713   6.614
22158WAT      O66715   1.303   1.957   3.886
22158WAT     H166716   1.297   1.859   3.903
22158WAT     H266717   1.222   2.003   3.923
22159WAT      O66718   3.268   4.206   1.722
22159WAT     H166719   3.182   4.205   1.772
22159WAT     H266720   3.307   4.298   1.724
22160WAT      O66721   6.094   7.063   2.709
22160WAT     H166722   6.047   6.986   2.752
22160WAT     H266723   6.174   7.031   2.659
22161WAT      O66724   0.545   1.046   3.429
22161WAT     H166725   0.612   1.070   3.500
22161WAT     H266726   0.576   1.081   3.341
22162WAT      O66727   4.275   8.736   0.452
22162WAT     H166728   4.355   8.734   0.393
22162WAT     H266729   4.241   8.643   0.467
22163WAT      O66730   4.062   5.060   0.191
22163WAT     H166731   4.099   5.150   0.171
22163WAT     H266732   4.040   5.053   0.288
22164WAT      O66733   6.390   2.909   6.400
22164WAT     H166734   6.404   2.889   6.497
22164WAT     H266735   6.436   2.840   6.345
22165WAT      O66736   6.267   2.080   4.320
22165WAT     H166737   6.218   1.993   4.318
22165WAT     H266738   6.326   2.083   4.400
22166WAT      O66739   7.565   2.188   1.432
22166WAT     H166740   7.547   2.185   1.530
22166WAT     H266741   7.576   2.283   1.403
22167WAT      O66742   0.824   2.787   5.754
22167WAT     H166743   0.919   2.772   5.783
22167WAT     H266744   0.779   2.851   5.815
22168WAT      O66745   8.573   5.970   3.007
22168WAT     H166746   8.596   5.919   3.090
22168WAT     H266747   8.557   5.905   2.932
22169WAT      O66748   3.664   1.828   7.730
22169WAT     H166749   3.696   1.734   7.741
22169WAT     H266750   3.730   1.880   7.675
22170WAT      O66751   5.713   1.430   6.831
22170WAT     H166752   5.769   1.349   6.847
22170WAT     H266753   5.698   1.478   6.917
22171WAT      O66754   4.034   3.532   4.716
22171WAT     H166755   3.944   3.532   4.673
22171WAT     H266756   4.081   3.618   4.697
22172WAT      O66757   5.535   8.398   5.599
22172WAT     H166758   5.438   8.419   5.609
22172WAT     H266759   5.568   8.435   5.512
22173WAT      O66760   6.804   4.861   8.783
22173WAT     H166761   6.896   4.865   8.822
22173WAT     H266762   6.749   4.937   8.817
22174WAT      O66763   2.683   3.668   6.177
22174WAT     H166764   2.597   3.673   6.229
22174WAT     H266765   2.681   3.735   6.102
22175WAT      O66766   1.778   2.218   6.215
22175WAT     H166767   1.730   2.212   6.303
22175WAT     H266768   1.843   2.142   6.208
22176WAT      O66769   1.752   1.177   6.476
22176WAT     H166770   1.696   1.237   6.420
22176WAT     H266771   1.703   1.092   6.494
22177WAT      O66772   3.721   3.098   0.961
22177WAT     H166773   3.782   3.108   1.039
22177WAT     H266774   3.771   3.054   0.886
22178WAT      O66775   5.746   7.982   8.508
22178WAT     H166776   5.647   7.988   8.520
22178WAT     H266777   5.772   8.024   8.421
22179WAT      O66778   7.295   3.315   2.960
22179WAT     H166779   7.297   3.328   3.059
22179WAT     H266780   7.372   3.258   2.933
22180WAT      O66781   0.950   9.486   1.280
22180WAT     H166782   0.859   9.522   1.299
22180WAT     H266783   0.945   9.417   1.208
22181WAT      O66784   1.417   0.046   3.959
22181WAT     H166785   1.355   0.018   4.032
22181WAT     H266786   1.365   0.096   3.889
22182WAT      O66787   1.306   2.695   8.360
22182WAT     H166788   1.378   2.629   8.338
22182WAT     H266789   1.331   2.785   8.325
22183WAT      O66790   7.404   7.874   4.971
22183WAT     H166791   7.320   7.886   4.918
22183WAT     H266792   7.380   7.851   5.065
22184WAT      O66793   5.696   5.633   5.277
22184WAT     H166794   5.604   5.663   5.253
22184WAT     H266795   5.716   5.659   5.372
22185WAT      O66796   8.121   3.491   2.104
22185WAT     H166797   8.215   3.519   2.082
22185WAT     H266798   8.120   3.444   2.192
22186WAT      O66799   7.565   7.702   2.138
22186WAT     H166800   7.571   7.729   2.041
22186WAT     H266801   7.470   7.709   2.169
22187WAT      O66802   5.563   2.557   4.305
22187WAT     H166803   5.658   2.582   4.287
22187WAT     H266804   5.556   2.518   4.397
22188WAT      O66805   8.445   1.736   0.218
22188WAT     H166806   8.366   1.795   0.200
22188WAT     H266807   8.414   1.652   0.263
22189WAT      O66808   5.046   6.873   5.408
22189WAT     H166809   5.093   6.790   5.377
22189WAT     H266810   5.027   6.932   5.330
22190WAT      O66811   8.002   6.766   0.321
22190WAT     H166812   8.043   6.831   0.385
22190WAT     H266813   7.975   6.683   0.371
22191WAT      O66814   2.197   8.626   3.888
22191WAT     H166815   2.240   8.561   3.826
22191WAT     H266816   2.262   8.652   3.959
22192WAT      O66817   7.000   4.889   3.943
22192WAT     H166818   6.955   4.959   3.998
22192WAT     H266819   6.937   4.857   3.872
22193WAT      O66820   0.850   7.471   7.953
22193WAT     H166821   0.845   7.504   8.047
22193WAT     H266822   0.819   7.544   7.891
22194WAT      O66823   3.050   5.110   4.685
22194WAT     H166824   3.102   5.024   4.690
22194WAT     H266825   2.959   5.096   4.724
22195WAT      O66826   0.338   9.407   8.507
22195WAT     H166827   0.326   9.438   8.601
22195WAT     H266828   0.265   9.445   8.450
22196WAT      O66829   5.857   4.095   5.048
22196WAT     H166830   5.894   4.040   4.973
22196WAT     H266831   5.758   4.080   5.054
22197WAT      O66832   4.315   2.207   1.387
22197WAT     H166833   4.225   2.218   1.430
22197WAT     H266834   4.330   2.282   1.323
22198WAT      O66835   2.519   3.252   6.781
22198WAT     H166836   2.486   3.347   6.776
22198WAT     H266837   2.619   3.252   6.789
22199WAT      O66838   4.478   3.790   8.363
22199WAT     H166839   4.399   3.792   8.301
22199WAT     H266840   4.562   3.794   8.309
22200WAT      O66841   9.100   0.048   9.632
22200WAT     H166842   9.150   0.132   9.654
22200WAT     H266843   9.081  -0.002   9.717
22201WAT      O66844   3.297   0.459   2.434
22201WAT     H166845   3.394   0.462   2.411
22201WAT     H266846   3.244   0.514   2.370
22202WAT      O66847   6.743   7.144   9.478
22202WAT     H166848   6.694   7.083   9.539
22202WAT     H266849   6.830   7.172   9.520
22203WAT      O66850   7.373   0.722   8.545
22203WAT     H166851   7.443   0.735   8.474
22203WAT     H266852   7.318   0.805   8.554
22204WAT      O66853   9.488   4.433   5.004
22204WAT     H166854   9.526   4.422   5.096
22204WAT     H266855   9.450   4.346   4.973
22205WAT      O66856   9.124   9.663   9.831
22205WAT     H166857   9.211   9.632   9.793
22205WAT     H266858   9.055   9.591   9.819
22206WAT      O66859   5.336   0.802   9.576
22206WAT     H166860   5.367   0.730   9.638
22206WAT     H266861   5.386   0.886   9.596
22207WAT      O66862   2.616   5.477   7.113
22207WAT     H166863   2.664   5.410   7.169
22207WAT     H266864   2.518   5.474   7.135
22208WAT      O66865   0.087   5.544   7.179
22208WAT     H166866   0.067   5.558   7.276
22208WAT     H266867   0.034   5.466   7.145
22209WAT      O66868   4.169   1.182   2.407
22209WAT     H166869   4.248   1.133   2.444
22209WAT     H266870   4.097   1.186   2.476
22210WAT      O66871   9.386   1.270   0.684
22210WAT     H166872   9.345   1.229   0.766
22210WAT     H266873   9.351   1.225   0.603
22211WAT      O66874   6.130   0.770   2.910
22211WAT     H166875   6.081   0.683   2.910
22211WAT     H266876   6.136   0.805   2.817
22212WAT      O66877   8.019   7.466   1.045
22212WAT     H166878   8.011   7.369   1.068
22212WAT     H266879   8.080   7.477   0.966
22213WAT      O66880   2.276   1.430   2.120
22213WAT     H166881   2.342   1.359   2.096
22213WAT     H266882   2.318   1.520   2.106
22214WAT      O66883   7.504   6.502   5.803
22214WAT     H166884   7.407   6.511   5.828
22214WAT     H266885   7.528   6.406   5.798
22215WAT      O66886   8.457   6.426   7.345
22215WAT     H166887   8.404   6.496   7.394
22215WAT     H266888   8.397   6.350   7.320
22216WAT      O66889   6.090   8.273   9.726
22216WAT     H166890   6.057   8.365   9.707
22216WAT     H266891   6.014   8.209   9.723
22217WAT      O66892   6.749   5.950   6.818
22217WAT     H166893   6.682   6.023   6.828
22217WAT     H266894   6.763   5.905   6.907
22218WAT      O66895   5.917   9.433   8.607
22218WAT     H166896   5.972   9.489   8.669
22218WAT     H266897   5.871   9.492   8.540
22219WAT      O66898   4.001   4.504   9.250
22219WAT     H166899   3.935   4.489   9.177
22219WAT     H266900   4.072   4.434   9.246
22220WAT      O66901   2.776   3.242   7.623
22220WAT     H166902   2.831   3.325   7.624
22220WAT     H266903   2.748   3.218   7.716
22221WAT      O66904   1.666   4.666   3.969
22221WAT     H166905   1.663   4.600   3.894
22221WAT     H266906   1.758   4.703   3.977
22222WAT      O66907   8.901   5.904   2.810
22222WAT     H166908   8.917   5.805   2.810
22222WAT     H266909   8.914   5.940   2.902
22223WAT      O66910   8.081   1.230   3.914
22223WAT     H166911   8.121   1.151   3.867
22223WAT     H266912   8.083   1.309   3.852
22224WAT      O66913   6.513   8.463   9.715
22224WAT     H166914   6.611   8.448   9.728
22224WAT     H266915   6.473   8.498   9.800
22225WAT      O66916   9.816   6.121   6.439
22225WAT     H166917   9.719   6.141   6.441
22225WAT     H266918   9.865   6.185   6.497
22226WAT      O66919   2.224   1.865   2.027
22226WAT     H166920   2.179   1.782   1.995
22226WAT     H266921   2.177   1.899   2.109
22227WAT      O66922   0.757   2.147   7.642
22227WAT     H166923   0.750   2.047   7.636
22227WAT     H266924   0.822   2.172   7.714
22228WAT      O66925   4.274   4.924   0.856
22228WAT     H166926   4.337   4.961   0.924
22228WAT     H266927   4.180   4.950   0.879
22229WAT      O66928   5.121   1.918   1.465
22229WAT     H166929   5.051   1.970   1.515
22229WAT     H266930   5.077   1.845   1.412
22230WAT      O66931   4.337   7.048   5.300
22230WAT     H166932   4.261   7.106   5.272
22230WAT     H266933   4.334   7.035   5.399
22231WAT      O66934   1.483   0.082   5.756
22231WAT     H166935   1.563   0.093   5.698
22231WAT     H266936   1.474  -0.014   5.784
22232WAT      O66937   0.071   6.920   6.241
22232WAT     H166938   0.025   6.915   6.330
22232WAT     H266939   0.069   6.830   6.198
22233WAT      O66940   9.056   9.157   9.493
22233WAT     H166941   9.135   9.218   9.497
22233WAT     H266942   9.056   9.098   9.573
22234WAT      O66943   7.660   7.787   8.378
22234WAT     H166944   7.631   7.882   8.391
22234WAT     H266945   7.760   7.783   8.374
22235WAT      O66946   4.659   7.935   3.523
22235WAT     H166947   4.703   8.015   3.563
22235WAT     H266948   4.626   7.958   3.431
22236WAT      O66949   4.417   4.614   7.945
22236WAT     H166950   4.476   4.665   8.008
22236WAT     H266951   4.469   4.588   7.864
22237WAT      O66952   7.124   6.777   6.344
22237WAT     H166953   7.197   6.800   6.409
22237WAT     H266954   7.067   6.705   6.383
22238WAT      O66955   0.681   4.438   7.955
22238WAT     H166956   0.653   4.520   7.906
22238WAT     H266957   0.620   4.423   8.033
22239WAT      O66958   5.636   1.282   0.539
22239WAT     H166959   5.652   1.185   0.558
22239WAT     H266960   5.720   1.333   0.554
22240WAT      O66961   5.043   3.231   3.000
22240WAT     H166962   5.022   3.159   3.065
22240WAT     H266963   4.968   3.298   2.998
22241WAT      O66964   2.573   4.040   5.102
22241WAT     H166965   2.563   4.135   5.070
22241WAT     H266966   2.493   3.988   5.075
22242WAT      O66967   4.867   2.742   7.583
22242WAT     H166968   4.891   2.655   7.626
22242WAT     H266969   4.779   2.774   7.619
22243WAT      O66970   0.817   3.048   3.704
22243WAT     H166971   0.782   2.958   3.675
22243WAT     H266972   0.880   3.083   3.634
22244WAT      O66973   4.881   6.788   3.378
22244WAT     H166974   4.936   6.711   3.346
22244WAT     H266975   4.935   6.842   3.444
22245WAT      O66976   1.760   4.612   6.220
22245WAT     H166977   1.804   4.611   6.130
22245WAT     H266978   1.821   4.570   6.288
22246WAT      O66979   1.052   9.488   2.914
22246WAT     H166980   0.971   9.451   2.959
22246WAT     H266981   1.123   9.418   2.911
22247WAT      O66982   1.323   0.730   5.893
22247WAT     H166983   1.353   0.818   5.930
22247WAT     H266984   1.341   0.658   5.960
22248WAT      O66985   4.910   2.166   5.167
22248WAT     H166986   4.903   2.127   5.259
22248WAT     H266987   4.999   2.209   5.155
22249WAT      O66988   6.212   3.860   7.854
22249WAT     H166989   6.276   3.932   7.828
22249WAT     H266990   6.186   3.870   7.950
22250WAT      O66991   8.598   3.666   6.907
22250WAT     H166992   8.520   3.673   6.969
22250WAT     H266993   8.679   3.702   6.951
22251WAT      O66994   8.194   0.803   8.659
22251WAT     H166995   8.156   0.877   8.603
22251WAT     H266996   8.156   0.808   8.752
22252WAT      O66997   4.613   5.711   3.106
22252WAT     H166998   4.578   5.751   3.191
22252WAT     H266999   4.588   5.614   3.103
22253WAT      O67000   7.240   1.097   5.878
22253WAT     H167001   7.196   1.148   5.953
22253WAT     H267002   7.262   1.005   5.908
22254WAT      O67003   0.702   5.098   2.131
22254WAT     H167004   0.681   5.106   2.228
22254WAT     H267005   0.649   5.024   2.091
22255WAT      O67006   2.643   7.656   5.751
22255WAT     H167007   2.589   7.688   5.829
22255WAT     H267008   2.585   7.651   5.670
22256WAT      O67009   2.256   7.687   0.269
22256WAT     H167010   2.251   7.655   0.364
22256WAT     H267011   2.243   7.609   0.207
22257WAT      O67012   3.124   4.140   6.614
22257WAT     H167013   3.039   4.101   6.649
22257WAT     H267014   3.138   4.110   6.519
22258WAT      O67015   1.270   6.997   7.311
22258WAT     H167016   1.295   7.003   7.214
22258WAT     H267017   1.351   6.975   7.365
22259WAT      O67018   2.537   3.275   7.509
22259WAT     H167019   2.623   3.260   7.557
22259WAT     H267020   2.465   3.221   7.554
22260WAT      O67021   0.868   4.112   0.214
22260WAT     H167022   0.799   4.049   0.249
22260WAT     H267023   0.917   4.154   0.291
22261WAT      O67024   7.536   9.517   6.362
22261WAT     H167025   7.482   9.460   6.425
22261WAT     H267026   7.575   9.460   6.290
22262WAT      O67027   3.871   0.332   2.132
22262WAT     H167028   3.823   0.295   2.052
22262WAT     H267029   3.809   0.332   2.210
22263WAT      O67030   4.375   1.014   6.704
22263WAT     H167031   4.337   1.001   6.612
22263WAT     H267032   4.459   1.067   6.698
22264WAT      O67033   2.393   1.652   5.159
22264WAT     H167034   2.438   1.632   5.246
22264WAT     H267035   2.294   1.638   5.168
22265WAT      O67036   5.488   5.051   3.863
22265WAT     H167037   5.570   4.994   3.850
22265WAT     H267038   5.458   5.046   3.958
22266WAT      O67039   7.812   4.299   3.143
22266WAT     H167040   7.874   4.313   3.220
22266WAT     H267041   7.750   4.377   3.136
22267WAT      O67042   7.899   3.592   4.694
22267WAT     H167043   7.975   3.602   4.630
22267WAT     H267044   7.819   3.641   4.659
22268WAT      O67045   7.155   8.654   7.723
22268WAT     H167046   7.146   8.745   7.764
22268WAT     H267047   7.162   8.663   7.624
22269WAT      O67048   7.809   1.840   9.043
22269WAT     H167049   7.887   1.827   9.103
22269WAT     H267050   7.840   1.877   8.955
22270WAT      O67051   2.913   5.040   1.576
22270WAT     H167052   2.978   4.985   1.628
22270WAT     H267053   2.829   5.052   1.629
22271WAT      O67054   1.631   9.554   1.358
22271WAT     H167055   1.545   9.605   1.349
22271WAT     H267056   1.705   9.618   1.381
22272WAT      O67057   0.592   3.227   2.633
22272WAT     H167058   0.576   3.239   2.731
22272WAT     H267059   0.594   3.316   2.588
22273WAT      O67060   7.678   3.978   1.624
22273WAT     H167061   7.619   4.049   1.662
22273WAT     H267062   7.651   3.889   1.661
22274WAT      O67063   0.847   7.597   4.425
22274WAT     H167064   0.858   7.679   4.480
22274WAT     H267065   0.810   7.622   4.335
22275WAT      O67066   7.557   9.011   8.440
22275WAT     H167067   7.523   8.990   8.532
22275WAT     H267068   7.581   8.926   8.394
22276WAT      O67069   7.214   6.123   5.659
22276WAT     H167070   7.209   6.024   5.645
22276WAT     H267071   7.266   6.164   5.584
22277WAT      O67072   4.845   8.601   8.894
22277WAT     H167073   4.869   8.504   8.888
22277WAT     H267074   4.930   8.655   8.899
22278WAT      O67075   4.645   4.665   8.607
22278WAT     H167076   4.585   4.640   8.531
22278WAT     H267077   4.603   4.739   8.660
22279WAT      O67078   9.314   2.524   6.567
22279WAT     H167079   9.282   2.619   6.566
22279WAT     H267080   9.249   2.468   6.618
22280WAT      O67081   6.157   2.522   2.758
22280WAT     H167082   6.244   2.501   2.804
22280WAT     H267083   6.082   2.483   2.811
22281WAT      O67084   1.531   0.334   2.292
22281WAT     H167085   1.620   0.297   2.265
22281WAT     H267086   1.521   0.427   2.256
22282WAT      O67087   2.866   8.977   1.699
22282WAT     H167088   2.902   8.934   1.617
22282WAT     H267089   2.887   8.921   1.779
22283WAT      O67090   9.025   0.218   8.162
22283WAT     H167091   9.066   0.134   8.128
22283WAT     H267092   8.968   0.198   8.242
22284WAT      O67093   4.700   8.659   5.486
22284WAT     H167094   4.762   8.590   5.521
22284WAT     H267095   4.636   8.618   5.420
22285WAT      O67096   2.121   5.940   5.500
22285WAT     H167097   2.049   6.003   5.472
22285WAT     H267098   2.164   5.900   5.418
22286WAT      O67099   5.761   7.082   6.319
22286WAT     H167100   5.699   7.007   6.295
22286WAT     H267101   5.784   7.134   6.236
22287WAT      O67102   0.332   9.525   7.401
22287WAT     H167103   0.385   9.603   7.433
22287WAT     H267104   0.236   9.538   7.425
22288WAT      O67105   2.177   2.929   7.617
22288WAT     H167106   2.081   2.953   7.630
22288WAT     H267107   2.194   2.836   7.650
22289WAT      O67108   3.348   8.560   8.232
22289WAT     H167109   3.330   8.658   8.248
22289WAT     H267110   3.431   8.550   8.179
22290WAT      O67111   4.137   8.032   8.971
22290WAT     H167112   4.126   8.004   8.875
22290WAT     H267113   4.084   7.970   9.029
22291WAT      O67114   8.156   9.571   5.509
22291WAT     H167115   8.182   9.492   5.564
22291WAT     H267116   8.204   9.652   5.543
22292WAT      O67117   9.882   6.254   5.766
22292WAT     H167118   9.905   6.213   5.679
22292WAT     H267119   9.965   6.277   5.816
22293WAT      O67120   5.186   7.241   4.640
22293WAT     H167121   5.280   7.208   4.646
22293WAT     H267122   5.127   7.168   4.606
22294WAT      O67123   6.374   1.639   1.350
22294WAT     H167124   6.351   1.577   1.276
22294WAT     H267125   6.306   1.631   1.423
22295WAT      O67126   4.584   2.479   8.091
22295WAT     H167127   4.643   2.495   8.011
22295WAT     H267128   4.640   2.450   8.168
22296WAT      O67129   4.802   8.006   8.553
22296WAT     H167130   4.835   8.000   8.459
22296WAT     H267131   4.709   8.043   8.554
22297WAT      O67132   5.842   6.383   1.547
22297WAT     H167133   5.913   6.390   1.617
22297WAT     H267134   5.884   6.381   1.457
22298WAT      O67135   3.746   6.691   4.226
22298WAT     H167136   3.683   6.688   4.303
22298WAT     H267137   3.839   6.677   4.259
22299WAT      O67138   7.956   1.444   7.066
22299WAT     H167139   7.867   1.466   7.107
22299WAT     H267140   8.026   1.442   7.137
22300WAT      O67141   8.834   9.653   1.682
22300WAT     H167142   8.778   9.734   1.667
22300WAT     H267143   8.913   9.678   1.739
22301WAT      O67144   4.006   0.895   1.012
22301WAT     H167145   4.036   0.949   1.091
22301WAT     H267146   3.914   0.925   0.985
22302WAT      O67147   1.190   6.728   4.594
22302WAT     H167148   1.095   6.757   4.582
22302WAT     H267149   1.197   6.668   4.673
22303WAT      O67150   9.349   6.137   6.273
22303WAT     H167151   9.353   6.203   6.198
22303WAT     H267152   9.253   6.118   6.295
22304WAT      O67153   5.087   8.765   4.243
22304WAT     H167154   5.166   8.817   4.277
22304WAT     H267155   5.047   8.812   4.165
22305WAT      O67156   9.856   2.589   3.780
22305WAT     H167157   9.763   2.579   3.816
22305WAT     H267158   9.883   2.505   3.734
22306WAT      O67159   5.582   6.559   8.407
22306WAT     H167160   5.562   6.467   8.439
22306WAT     H267161   5.547   6.626   8.473
22307WAT      O67162   8.355   2.172   3.093
22307WAT     H167163   8.302   2.160   3.177
22307WAT     H267164   8.362   2.270   3.072
22308WAT      O67165   4.657   7.807   7.655
22308WAT     H167166   4.566   7.797   7.694
22308WAT     H267167   4.660   7.761   7.566
22309WAT      O67168   8.278   7.784   1.145
22309WAT     H167169   8.286   7.813   1.240
22309WAT     H267170   8.329   7.699   1.132
22310WAT      O67171   9.206   1.962   7.758
22310WAT     H167172   9.224   1.915   7.672
22310WAT     H267173   9.197   2.060   7.740
22311WAT      O67174   3.159   5.795   9.534
22311WAT     H167175   3.135   5.845   9.617
22311WAT     H267176   3.238   5.838   9.491
22312WAT      O67177   2.115   7.444   6.684
22312WAT     H167178   2.158   7.525   6.644
22312WAT     H267179   2.053   7.472   6.757
22313WAT      O67180   7.437   9.149   6.230
22313WAT     H167181   7.355   9.207   6.226
22313WAT     H267182   7.480   9.159   6.320
22314WAT      O67183   8.851   4.685   7.530
22314WAT     H167184   8.899   4.629   7.597
22314WAT     H267185   8.800   4.625   7.468
22315WAT      O67186   6.233   5.708   9.456
22315WAT     H167187   6.206   5.687   9.550
22315WAT     H267188   6.196   5.640   9.394
22316WAT      O67189   4.611   4.889   7.811
22316WAT     H167190   4.586   4.872   7.907
22316WAT     H267191   4.683   4.826   7.783
22317WAT      O67192   1.137   5.812   1.756
22317WAT     H167193   1.087   5.758   1.824
22317WAT     H267194   1.235   5.806   1.773
22318WAT      O67195   9.118   3.908   7.012
22318WAT     H167196   9.163   3.859   7.087
22318WAT     H267197   9.187   3.959   6.961
22319WAT      O67198   1.020   8.782   8.109
22319WAT     H167199   1.061   8.697   8.076
22319WAT     H267200   0.925   8.788   8.077
22320WAT      O67201   8.025   8.033   2.980
22320WAT     H167202   8.037   7.945   2.933
22320WAT     H267203   8.029   8.107   2.913
22321WAT      O67204   8.174   4.267   2.821
22321WAT     H167205   8.098   4.205   2.842
22321WAT     H267206   8.173   4.343   2.886
22322WAT      O67207   4.341   7.334   4.630
22322WAT     H167208   4.309   7.380   4.547
22322WAT     H267209   4.334   7.235   4.618
22323WAT      O67210   4.827   3.834   7.075
22323WAT     H167211   4.866   3.744   7.057
22323WAT     H267212   4.878   3.904   7.026
22324WAT      O67213   1.105   8.740   3.334
22324WAT     H167214   1.082   8.797   3.254
22324WAT     H267215   1.021   8.703   3.373
22325WAT      O67216   6.155   1.161   7.469
22325WAT     H167217   6.202   1.082   7.429
22325WAT     H267218   6.209   1.196   7.545
22326WAT      O67219   3.044   0.152   1.359
22326WAT     H167220   3.030   0.185   1.453
22326WAT     H267221   3.077   0.057   1.362
22327WAT      O67222   6.149   7.776   4.818
22327WAT     H167223   6.114   7.693   4.860
22327WAT     H267224   6.248   7.769   4.809
22328WAT      O67225   3.909   8.426   2.304
22328WAT     H167226   3.832   8.379   2.260
22328WAT     H267227   3.952   8.488   2.239
22329WAT      O67228   7.358   6.262   5.185
22329WAT     H167229   7.324   6.261   5.091
22329WAT     H267230   7.424   6.336   5.195
22330WAT      O67231   8.494   7.849   7.846
22330WAT     H167232   8.421   7.916   7.857
22330WAT     H267233   8.538   7.863   7.757
22331WAT      O67234   4.023   0.250   8.924
22331WAT     H167235   4.102   0.195   8.949
22331WAT     H267236   3.946   0.189   8.902
22332WAT      O67237   6.438   4.629   6.745
22332WAT     H167238   6.446   4.622   6.646
22332WAT     H267239   6.366   4.695   6.769
22333WAT      O67240   9.252   7.338   6.617
22333WAT     H167241   9.225   7.434   6.614
22333WAT     H267242   9.200   7.291   6.689
22334WAT      O67243   8.226   6.250   9.242
22334WAT     H167244   8.271   6.166   9.212
22334WAT     H267245   8.198   6.303   9.162
22335WAT      O67246   2.552   3.047   6.302
22335WAT     H167247   2.528   3.113   6.231
22335WAT     H267248   2.523   3.083   6.391
22336WAT      O67249   8.443   4.328   9.240
22336WAT     H167250   8.462   4.402   9.305
22336WAT     H267251   8.355   4.285   9.264
22337WAT      O67252   0.247   5.246   5.114
22337WAT     H167253   0.318   5.286   5.056
22337WAT     H267254   0.157   5.262   5.073
22338WAT      O67255   5.935   4.459   2.269
22338WAT     H167256   6.021   4.460   2.218
22338WAT     H267257   5.918   4.550   2.308
22339WAT      O67258   1.548   8.367   5.468
22339WAT     H167259   1.615   8.300   5.434
22339WAT     H267260   1.572   8.458   5.434
22340WAT      O67261   0.193   7.583   2.121
22340WAT     H167262   0.198   7.497   2.070
22340WAT     H267263   0.103   7.624   2.107
22341WAT      O67264   1.875   1.572   7.647
22341WAT     H167265   1.811   1.634   7.602
22341WAT     H267266   1.956   1.622   7.676
22342WAT      O67267   2.944   4.582   8.875
22342WAT     H167268   2.906   4.614   8.789
22342WAT     H267269   3.025   4.636   8.898
22343WAT      O67270   1.851   1.398   2.627
22343WAT     H167271   1.892   1.489   2.633
22343WAT     H267272   1.853   1.354   2.717
22344WAT      O67273   7.946   0.404   1.215
22344WAT     H167274   7.961   0.322   1.158
22344WAT     H267275   7.850   0.431   1.210
22345WAT      O67276   8.493   0.820   5.548
22345WAT     H167277   8.548   0.900   5.523
22345WAT     H267278   8.552   0.740   5.556
22346WAT      O67279   9.487   9.239   0.141
22346WAT     H167280   9.512   9.162   0.201
22346WAT     H267281   9.395   9.269   0.163
22347WAT      O67282   9.256   3.398   4.819
22347WAT     H167283   9.248   3.305   4.854
22347WAT     H267284   9.308   3.396   4.733
22348WAT      O67285   5.421   6.921   4.935
22348WAT     H167286   5.467   6.854   4.993
22348WAT     H267287   5.471   6.930   4.848
22349WAT      O67288   8.316   8.043   7.855
22349WAT     H167289   8.353   8.136   7.848
22349WAT     H267290   8.224   8.047   7.896
22350WAT      O67291   6.518   8.261   5.958
22350WAT     H167292   6.541   8.347   5.911
22350WAT     H267293   6.590   8.194   5.941
22351WAT      O67294   1.625   4.751   7.360
22351WAT     H167295   1.644   4.709   7.448
22351WAT     H267296   1.679   4.835   7.350
22352WAT      O67297   6.126   0.323   1.594
22352WAT     H167298   6.117   0.415   1.633
22352WAT     H267299   6.200   0.274   1.641
22353WAT      O67300   2.670   6.725   1.212
22353WAT     H167301   2.712   6.815   1.199
22353WAT     H267302   2.590   6.735   1.271
22354WAT      O67303   5.380   7.855   7.168
22354WAT     H167304   5.318   7.846   7.246
22354WAT     H267305   5.395   7.952   7.149
22355WAT      O67306   9.267   5.243   6.758
22355WAT     H167307   9.337   5.243   6.688
22355WAT     H267308   9.267   5.156   6.806
22356WAT      O67309   7.214   3.242   5.427
22356WAT     H167310   7.252   3.185   5.354
22356WAT     H267311   7.115   3.226   5.433
22357WAT      O67312   7.259   7.597   7.930
22357WAT     H167313   7.232   7.608   8.025
22357WAT     H267314   7.256   7.687   7.884
22358WAT      O67315   3.050   6.035   2.751
22358WAT     H167316   3.055   5.974   2.672
22358WAT     H267317   3.077   5.985   2.834
22359WAT      O67318   9.475   5.670   0.802
22359WAT     H167319   9.419   5.590   0.782
22359WAT     H267320   9.569   5.653   0.771
22360WAT      O67321   2.136   5.450   5.093
22360WAT     H167322   2.218   5.394   5.084
22360WAT     H267323   2.129   5.484   5.187
22361WAT      O67324   3.285   7.744   3.621
22361WAT     H167325   3.317   7.798   3.543
22361WAT     H267326   3.194   7.707   3.601
22362WAT      O67327   4.611   6.980   0.532
22362WAT     H167328   4.533   7.026   0.574
22362WAT     H267329   4.636   6.900   0.587
22363WAT      O67330   8.192   7.997   0.713
22363WAT     H167331   8.138   8.036   0.787
22363WAT     H267332   8.137   7.931   0.662
22364WAT      O67333   9.850   4.334   8.557
22364WAT     H167334   9.846   4.428   8.523
22364WAT     H267335   9.789   4.276   8.502
22365WAT      O67336   2.368   6.477   5.308
22365WAT     H167337   2.301   6.423   5.359
22365WAT     H267338   2.458   6.434   5.314
22366WAT      O67339   7.578   6.194   0.417
22366WAT     H167340   7.651   6.126   0.427
22366WAT     H267341   7.604   6.262   0.349
22367WAT      O67342   6.991   6.764   0.737
22367WAT     H167343   7.046   6.683   0.718
22367WAT     H267344   6.934   6.785   0.658
22368WAT      O67345   2.398   3.552   3.152
22368WAT     H167346   2.362   3.511   3.236
22368WAT     H267347   2.415   3.649   3.167
22369WAT      O67348   7.997   9.331   1.978
22369WAT     H167349   7.917   9.274   1.961
22369WAT     H267350   7.978   9.425   1.948
22370WAT      O67351   8.653   7.140   9.011
22370WAT     H167352   8.575   7.080   8.997
22370WAT     H267353   8.640   7.225   8.960
22371WAT      O67354   8.967   5.094   8.357
22371WAT     H167355   8.923   5.030   8.420
22371WAT     H267356   8.943   5.069   8.263
22372WAT      O67357   7.334   3.258   8.676
22372WAT     H167358   7.273   3.185   8.708
22372WAT     H267359   7.386   3.294   8.754
22373WAT      O67360   5.549   1.145   2.669
22373WAT     H167361   5.642   1.113   2.654
22373WAT     H267362   5.492   1.124   2.590
22374WAT      O67363   1.847   6.789   7.296
22374WAT     H167364   1.768   6.755   7.347
22374WAT     H267365   1.922   6.808   7.358
22375WAT      O67366   5.659   1.266   9.396
22375WAT     H167367   5.586   1.258   9.464
22375WAT     H267368   5.638   1.208   9.317
22376WAT      O67369   5.760   8.766   7.710
22376WAT     H167370   5.736   8.714   7.792
22376WAT     H267371   5.774   8.703   7.634
22377WAT      O67372   1.232   8.250   8.011
22377WAT     H167373   1.286   8.189   7.953
22377WAT     H267374   1.191   8.322   7.955
22378WAT      O67375   0.929   3.301   1.641
22378WAT     H167376   0.956   3.394   1.615
22378WAT     H267377   0.875   3.260   1.567
22379WAT      O67378   1.966   5.839   7.070
22379WAT     H167379   2.047   5.839   7.012
22379WAT     H267380   1.992   5.835   7.166
22380WAT      O67381   8.612   0.442   5.870
22380WAT     H167382   8.597   0.343   5.878
22380WAT     H267383   8.646   0.463   5.778
22381WAT      O67384   9.061   4.218   6.684
22381WAT     H167385   8.965   4.232   6.659
22381WAT     H267386   9.110   4.176   6.608
22382WAT      O67387   9.757   4.094   6.408
22382WAT     H167388   9.775   4.047   6.494
22382WAT     H267389   9.840   4.141   6.377
22383WAT      O67390   2.081   6.747   1.750
22383WAT     H167391   1.993   6.700   1.750
22383WAT     H267392   2.092   6.797   1.837
22384WAT      O67393   5.824   1.596   7.051
22384WAT     H167394   5.814   1.693   7.031
22384WAT     H267395   5.910   1.562   7.013
22385WAT      O67396   1.306   0.736   2.008
22385WAT     H167397   1.362   0.810   2.045
22385WAT     H267398   1.235   0.775   1.949
22386WAT      O67399   4.818   7.554   0.587
22386WAT     H167400   4.798   7.586   0.495
22386WAT     H267401   4.762   7.474   0.608
22387WAT      O67402   5.963   8.129   2.650
22387WAT     H167403   6.061   8.114   2.640
22387WAT     H267404   5.919   8.125   2.560
22388WAT      O67405   1.624   7.282   1.753
22388WAT     H167406   1.687   7.309   1.826
22388WAT     H267407   1.615   7.356   1.686
22389WAT      O67408   2.701   8.462   4.301
22389WAT     H167409   2.770   8.533   4.287
22389WAT     H267410   2.735   8.395   4.367
22390WAT      O67411   3.092   6.111   7.951
22390WAT     H167412   3.079   6.012   7.957
22390WAT     H267413   3.003   6.155   7.934
22391WAT      O67414   1.319   6.945   6.354
22391WAT     H167415   1.343   6.864   6.301
22391WAT     H267416   1.333   6.927   6.451
22392WAT      O67417   2.601   8.075   9.750
22392WAT     H167418   2.611   8.103   9.654
22392WAT     H267419   2.507   8.044   9.766
22393WAT      O67420   9.054   3.413   1.209
22393WAT     H167421   8.982   3.475   1.179
22393WAT     H267422   9.141   3.462   1.209
22394WAT      O67423   8.372   3.418   9.259
22394WAT     H167424   8.388   3.517   9.248
22394WAT     H267425   8.365   3.375   9.169
22395WAT      O67426   6.530   2.126   7.232
22395WAT     H167427   6.477   2.136   7.316
22395WAT     H267428   6.475   2.153   7.154
22396WAT      O67429   9.072   4.767   9.150
22396WAT     H167430   9.146   4.711   9.188
22396WAT     H267431   9.066   4.753   9.051
22397WAT      O67432   9.192   2.194   5.765
22397WAT     H167433   9.291   2.182   5.761
22397WAT     H267434   9.150   2.114   5.809
22398WAT      O67435   9.479   1.356   8.166
22398WAT     H167436   9.434   1.410   8.094
22398WAT     H267437   9.410   1.323   8.230
22399WAT      O67438   0.472   3.153   2.149
22399WAT     H167439   0.417   3.094   2.208
22399WAT     H267440   0.478   3.114   2.058
22400WAT      O67441   6.425   0.657   3.111
22400WAT     H167442   6.524   0.658   3.121
22400WAT     H267443   6.385   0.734   3.160
22401WAT      O67444   6.460   7.280   7.418
22401WAT     H167445   6.403   7.315   7.344
22401WAT     H267446   6.534   7.224   7.380
22402WAT      O67447   7.139   0.380   6.435
22402WAT     H167448   7.131   0.375   6.534
22402WAT     H267449   7.235   0.376   6.409
22403WAT      O67450   1.357   8.780   7.630
22403WAT     H167451   1.274   8.825   7.663
22403WAT     H267452   1.361   8.686   7.666
22404WAT      O67453   3.380   6.556   4.167
22404WAT     H167454   3.430   6.581   4.250
22404WAT     H267455   3.333   6.469   4.181
22405WAT      O67456   4.361   9.115   6.268
22405WAT     H167457   4.288   9.129   6.201
22405WAT     H267458   4.396   9.022   6.260
22406WAT      O67459   3.829   0.128   3.689
22406WAT     H167460   3.924   0.097   3.691
22406WAT     H267461   3.827   0.228   3.684
22407WAT      O67462   9.830   5.582   8.533
22407WAT     H167463   9.736   5.608   8.510
22407WAT     H267464   9.880   5.663   8.565
22408WAT      O67465   6.624   1.253   2.307
22408WAT     H167466   6.687   1.195   2.360
22408WAT     H267467   6.671   1.338   2.283
22409WAT      O67468   1.164   2.188   1.792
22409WAT     H167469   1.209   2.267   1.833
22409WAT     H267470   1.110   2.217   1.713
22410WAT      O67471   4.654   6.995   1.734
22410WAT     H167472   4.650   7.095   1.733
22410WAT     H267473   4.567   6.959   1.768
22411WAT      O67474   2.650   2.821   7.935
22411WAT     H167475   2.685   2.727   7.940
22411WAT     H267476   2.556   2.819   7.901
22412WAT      O67477   0.172   0.058   1.388
22412WAT     H167478   0.199   0.148   1.424
22412WAT     H267479   0.080   0.036   1.419
22413WAT      O67480   6.851   6.310   9.069
22413WAT     H167481   6.948   6.296   9.088
22413WAT     H267482   6.842   6.366   8.986
22414WAT      O67483   5.388   6.431   8.141
22414WAT     H167484   5.438   6.349   8.167
22414WAT     H267485   5.295   6.428   8.179
22415WAT      O67486   4.554   2.434   5.429
22415WAT     H167487   4.519   2.347   5.394
22415WAT     H267488   4.515   2.510   5.376
22416WAT      O67489   1.867   8.946   8.631
22416WAT     H167490   1.914   8.877   8.685
22416WAT     H267491   1.799   8.902   8.572
22417WAT      O67492   9.478   7.646   7.822
22417WAT     H167493   9.406   7.585   7.856
22417WAT     H267494   9.546   7.592   7.773
22418WAT      O67495   1.595   5.851   5.034
22418WAT     H167496   1.684   5.812   5.058
22418WAT     H267497   1.580   5.934   5.088
22419WAT      O67498   5.969   9.641   0.825
22419WAT     H167499   5.880   9.664   0.787
22419WAT     H267500   6.041   9.682   0.768
22420WAT      O67501   6.573   4.695   2.884
22420WAT     H167502   6.624   4.758   2.827
22420WAT     H267503   6.559   4.609   2.835
22421WAT      O67504   6.518   3.831   8.278
22421WAT     H167505   6.475   3.910   8.234
22421WAT     H267506   6.447   3.765   8.304
22422WAT      O67507   5.957   3.925   6.507
22422WAT     H167508   5.966   4.024   6.494
22422WAT     H267509   6.003   3.899   6.592
22423WAT      O67510   9.000   7.549   2.790
22423WAT     H167511   8.961   7.463   2.756
22423WAT     H267512   8.945   7.583   2.866
22424WAT      O67513   8.154   3.594   6.115
22424WAT     H167514   8.158   3.623   6.019
22424WAT     H267515   8.235   3.540   6.137
22425WAT      O67516   2.157   1.505   8.477
22425WAT     H167517   2.173   1.603   8.466
22425WAT     H267518   2.059   1.487   8.480
22426WAT      O67519   8.424   2.588   0.723
22426WAT     H167520   8.501   2.533   0.757
22426WAT     H267521   8.341   2.533   0.724
22427WAT      O67522   6.450   8.152   1.568
22427WAT     H167523   6.501   8.069   1.548
22427WAT     H267524   6.371   8.129   1.625
22428WAT      O67525   8.460   8.056   3.796
22428WAT     H167526   8.373   8.009   3.810
22428WAT     H267527   8.535   7.990   3.799
22429WAT      O67528   4.603   7.403   6.643
22429WAT     H167529   4.649   7.486   6.612
22429WAT     H267530   4.506   7.422   6.656
22430WAT      O67531   3.276   2.655   8.006
22430WAT     H167532   3.325   2.608   7.933
22430WAT     H267533   3.213   2.590   8.050
22431WAT      O67534   2.496   9.813   8.620
22431WAT     H167535   2.449   9.787   8.704
22431WAT     H267536   2.590   9.777   8.621
22432WAT      O67537   9.690   8.475   1.973
22432WAT     H167538   9.594   8.451   1.986
22432WAT     H267539   9.703   8.513   1.882
22433WAT      O67540   9.419   0.333   7.598
22433WAT     H167541   9.416   0.237   7.569
22433WAT     H267542   9.347   0.384   7.551
22434WAT      O67543   4.052   0.397   9.303
22434WAT     H167544   4.146   0.406   9.271
22434WAT     H267545   3.991   0.448   9.242
22435WAT      O67546   7.033   9.326   2.946
22435WAT     H167547   7.033   9.360   2.852
22435WAT     H267548   7.092   9.245   2.952
22436WAT      O67549   3.549   3.127   7.228
22436WAT     H167550   3.570   3.214   7.183
22436WAT     H267551   3.633   3.086   7.263
22437WAT      O67552   6.473   3.981   0.916
22437WAT     H167553   6.556   3.925   0.914
22437WAT     H267554   6.393   3.921   0.922
22438WAT      O67555   6.512   7.599   4.570
22438WAT     H167556   6.456   7.663   4.518
22438WAT     H267557   6.543   7.525   4.510
22439WAT      O67558   9.690   3.200   4.094
22439WAT     H167559   9.700   3.260   4.015
22439WAT     H267560   9.734   3.112   4.074
22440WAT      O67561   3.533   1.991   1.620
22440WAT     H167562   3.594   1.932   1.672
22440WAT     H267563   3.522   2.078   1.668
22441WAT      O67564   1.863   8.449   6.485
22441WAT     H167565   1.897   8.359   6.509
22441WAT     H267566   1.765   8.443   6.463
22442WAT      O67567   5.929   5.623   6.150
22442WAT     H167568   6.005   5.616   6.086
22442WAT     H267569   5.962   5.657   6.238
22443WAT      O67570   2.900   4.005   2.228
22443WAT     H167571   2.996   3.987   2.211
22443WAT     H267572   2.890   4.063   2.309
22444WAT      O67573   3.759   0.840   0.448
22444WAT     H167574   3.784   0.835   0.545
22444WAT     H267575   3.741   0.935   0.423
22445WAT      O67576   9.252   9.754   5.091
22445WAT     H167577   9.313   9.811   5.146
22445WAT     H267578   9.184   9.811   5.045
22446WAT      O67579   4.670   6.578   9.352
22446WAT     H167580   4.685   6.613   9.445
22446WAT     H267581   4.751   6.596   9.296
22447WAT      O67582   9.156   4.026   0.034
22447WAT     H167583   9.153   4.050  -0.063
22447WAT     H267584   9.080   3.964   0.055
22448WAT      O67585   9.837   0.325   1.932
22448WAT     H167586   9.845   0.285   1.841
22448WAT     H267587   9.783   0.264   1.990
22449WAT      O67588   9.836   5.539   9.102
22449WAT     H167589   9.897   5.488   9.042
22449WAT     H267590   9.753   5.564   9.051
22450WAT      O67591   8.239   0.822   8.010
22450WAT     H167592   8.181   0.824   7.929
22450WAT     H267593   8.192   0.866   8.086
22451WAT      O67594   3.361   1.170   2.349
22451WAT     H167595   3.326   1.124   2.267
22451WAT     H267596   3.343   1.113   2.429
22452WAT      O67597   4.770   2.964   2.983
22452WAT     H167598   4.784   2.972   2.884
22452WAT     H267599   4.729   3.047   3.019
22453WAT      O67600   1.324   7.119   7.643
22453WAT     H167601   1.380   7.073   7.574
22453WAT     H267602   1.246   7.060   7.667
22454WAT      O67603   9.760   5.771   5.172
22454WAT     H167604   9.712   5.843   5.223
22454WAT     H267605   9.780   5.803   5.080
22455WAT      O67606   0.045   5.649   2.998
22455WAT     H167607   0.077   5.573   3.055
22455WAT     H267608  -0.029   5.697   3.045
22456WAT      O67609   8.790   7.345   5.002
22456WAT     H167610   8.743   7.260   4.976
22456WAT     H267611   8.756   7.420   4.945
22457WAT      O67612   0.909   2.230   1.268
22457WAT     H167613   0.864   2.143   1.251
22457WAT     H267614   1.003   2.226   1.233
22458WAT      O67615   6.024   8.081   3.134
22458WAT     H167616   6.000   8.069   3.038
22458WAT     H267617   6.058   8.173   3.149
22459WAT      O67618   6.855   4.541   3.012
22459WAT     H167619   6.948   4.558   3.044
22459WAT     H267620   6.796   4.616   3.042
22460WAT      O67621   1.354   0.930   7.962
22460WAT     H167622   1.345   0.958   7.867
22460WAT     H267623   1.272   0.879   7.990
22461WAT      O67624   2.983   5.225   6.081
22461WAT     H167625   2.919   5.267   6.146
22461WAT     H267626   3.075   5.260   6.098
22462WAT      O67627   5.686   6.035   9.380
22462WAT     H167628   5.784   6.045   9.398
22462WAT     H267629   5.655   6.113   9.325
22463WAT      O67630   7.103   1.873   7.198
22463WAT     H167631   7.075   1.876   7.102
22463WAT     H267632   7.031   1.911   7.256
22464WAT      O67633   2.015   4.092   8.475
22464WAT     H167634   1.945   4.100   8.404
22464WAT     H267635   2.096   4.047   8.436
22465WAT      O67636   3.643   7.596   8.865
22465WAT     H167637   3.590   7.510   8.869
22465WAT     H267638   3.739   7.576   8.879
22466WAT      O67639   3.428   4.396   1.882
22466WAT     H167640   3.424   4.460   1.806
22466WAT     H267641   3.522   4.393   1.918
22467WAT      O67642   5.608   5.221   1.020
22467WAT     H167643   5.639   5.315   1.032
22467WAT     H267644   5.524   5.220   0.965
22468WAT      O67645   5.022   1.397   9.689
22468WAT     H167646   4.987   1.322   9.745
22468WAT     H267647   5.037   1.478   9.746
22469WAT      O67648   5.909   9.536   5.615
22469WAT     H167649   5.963   9.452   5.611
22469WAT     H267650   5.910   9.572   5.708
22470WAT      O67651   8.382   6.546   4.818
22470WAT     H167652   8.457   6.609   4.799
22470WAT     H267653   8.397   6.502   4.907
22471WAT      O67654   7.844   5.012   0.745
22471WAT     H167655   7.912   5.085   0.751
22471WAT     H267656   7.825   4.993   0.648
22472WAT      O67657   3.677   4.500   3.717
22472WAT     H167658   3.584   4.516   3.683
22472WAT     H267659   3.681   4.520   3.815
22473WAT      O67660   8.008   0.599   4.937
22473WAT     H167661   8.106   0.614   4.951
22473WAT     H267662   7.993   0.508   4.901
22474WAT      O67663   4.433   0.799   6.864
22474WAT     H167664   4.438   0.851   6.949
22474WAT     H267665   4.399   0.858   6.791
22475WAT      O67666   9.581   4.024   3.100
22475WAT     H167667   9.631   4.085   3.039
22475WAT     H267668   9.529   3.958   3.046
22476WAT      O67669   4.569   5.134   7.690
22476WAT     H167670   4.594   5.038   7.696
22476WAT     H267671   4.615   5.176   7.612
22477WAT      O67672   2.160   9.411   0.429
22477WAT     H167673   2.147   9.494   0.483
22477WAT     H267674   2.233   9.356   0.469
22478WAT      O67675   5.102   0.891   2.320
22478WAT     H167676   5.030   0.926   2.261
22478WAT     H267677   5.158   0.968   2.353
22479WAT      O67678   8.638   1.150   3.837
22479WAT     H167679   8.597   1.154   3.929
22479WAT     H267680   8.643   1.055   3.807
22480WAT      O67681   3.889   2.973   8.017
22480WAT     H167682   3.970   2.961   8.074
22480WAT     H267683   3.809   2.935   8.064
22481WAT      O67684   3.281   5.967   0.880
22481WAT     H167685   3.283   5.875   0.918
22481WAT     H267686   3.297   5.964   0.782
22482WAT      O67687   1.633   0.523   0.173
22482WAT     H167688   1.554   0.571   0.211
22482WAT     H267689   1.716   0.574   0.194
22483WAT      O67690   1.686   1.122   0.010
22483WAT     H167691   1.747   1.043   0.005
22483WAT     H267692   1.592   1.092  -0.010
22484WAT      O67693   5.778   7.272   4.022
22484WAT     H167694   5.869   7.308   4.040
22484WAT     H267695   5.712   7.347   4.020
22485WAT      O67696   5.380   5.826   7.635
22485WAT     H167697   5.287   5.812   7.600
22485WAT     H267698   5.398   5.759   7.708
22486WAT      O67699   3.612   3.073   0.176
22486WAT     H167700   3.635   3.140   0.106
22486WAT     H267701   3.610   3.118   0.266
22487WAT      O67702   9.861   9.456   8.584
22487WAT     H167703   9.902   9.475   8.495
22487WAT     H267704   9.888   9.365   8.615
22488WAT      O67705   2.517   4.837   6.622
22488WAT     H167706   2.559   4.785   6.697
22488WAT     H267707   2.589   4.882   6.569
22489WAT      O67708   0.281   6.317   5.788
22489WAT     H167709   0.343   6.394   5.769
22489WAT     H267710   0.237   6.288   5.703
22490WAT      O67711   7.263   4.364   4.988
22490WAT     H167712   7.291   4.402   4.899
22490WAT     H267713   7.201   4.429   5.033
22491WAT      O67714   0.707   4.299   6.557
22491WAT     H167715   0.756   4.339   6.635
22491WAT     H267716   0.744   4.207   6.539
22492WAT      O67717   5.115   3.147   2.426
22492WAT     H167718   5.154   3.210   2.494
22492WAT     H267719   5.065   3.075   2.473
22493WAT      O67720   1.470   3.443   1.371
22493WAT     H167721   1.508   3.496   1.446
22493WAT     H267722   1.481   3.346   1.390
22494WAT      O67723   5.531   0.536   4.634
22494WAT     H167724   5.530   0.525   4.535
22494WAT     H267725   5.558   0.450   4.677
22495WAT      O67726   5.262   0.675   2.141
22495WAT     H167727   5.213   0.736   2.204
22495WAT     H267728   5.206   0.659   2.060
22496WAT      O67729   9.603   6.354   0.056
22496WAT     H167730   9.578   6.300   0.137
22496WAT     H267731   9.672   6.304   0.003
22497WAT      O67732   8.741   4.117   8.338
22497WAT     H167733   8.676   4.191   8.357
22497WAT     H267734   8.830   4.156   8.313
22498WAT      O67735   0.566   4.347   0.154
22498WAT     H167736   0.552   4.301   0.067
22498WAT     H267737   0.501   4.311   0.221
22499WAT      O67738   3.922   1.394   8.083
22499WAT     H167739   3.899   1.300   8.056
22499WAT     H267740   3.851   1.430   8.143
22500WAT      O67741   6.815   7.377   6.430
22500WAT     H167742   6.716   7.366   6.419
22500WAT     H267743   6.834   7.459   6.483
22501WAT      O67744   1.817   7.145   3.925
22501WAT     H167745   1.886   7.202   3.881
22501WAT     H267746   1.813   7.166   4.023
22502WAT      O67747   5.097   1.949   8.053
22502WAT     H167748   5.107   1.954   7.953
22502WAT     H267749   5.076   1.854   8.079
22503WAT      O67750   8.536   1.899   1.445
22503WAT     H167751   8.618   1.856   1.407
22503WAT     H267752   8.520   1.987   1.401
22504WAT      O67753   2.183   6.179   4.088
22504WAT     H167754   2.190   6.112   4.014
22504WAT     H267755   2.146   6.136   4.170
22505WAT      O67756   1.822   3.142   9.071
22505WAT     H167757   1.791   3.237   9.072
22505WAT     H267758   1.800   3.098   9.159
22506WAT      O67759   7.186   0.398   2.877
22506WAT     H167760   7.256   0.340   2.836
22506WAT     H267761   7.152   0.355   2.961
22507WAT      O67762   2.345   0.262   6.845
22507WAT     H167763   2.313   0.357   6.842
22507WAT     H267764   2.345   0.223   6.753
22508WAT      O67765   8.638   8.188   5.165
22508WAT     H167766   8.592   8.234   5.089
22508WAT     H267767   8.721   8.238   5.189
22509WAT      O67768   4.397   9.308   1.031
22509WAT     H167769   4.414   9.213   1.057
22509WAT     H267770   4.462   9.368   1.077
22510WAT      O67771   2.633   2.328   0.944
22510WAT     H167772   2.632   2.252   1.009
22510WAT     H267773   2.590   2.408   0.986
22511WAT      O67774   9.088   5.008   1.972
22511WAT     H167775   9.139   4.951   2.036
22511WAT     H267776   9.018   4.952   1.926
22512WAT      O67777   9.455   9.652   9.745
22512WAT     H167778   9.554   9.646   9.738
22512WAT     H267779   9.430   9.685   9.836
22513WAT      O67780   2.868   4.038   3.641
22513WAT     H167781   2.796   3.986   3.595
22513WAT     H267782   2.918   4.092   3.573
22514WAT      O67783   7.184   8.124   4.129
22514WAT     H167784   7.282   8.141   4.119
22514WAT     H267785   7.145   8.101   4.040
22515WAT      O67786   7.925   1.218   1.611
22515WAT     H167787   7.900   1.302   1.562
22515WAT     H267788   7.864   1.144   1.581
22516WAT      O67789   6.117   1.587   4.473
22516WAT     H167790   6.156   1.586   4.381
22516WAT     H267791   6.042   1.653   4.476
22517WAT      O67792   8.655   7.094   8.490
22517WAT     H167793   8.668   7.046   8.577
22517WAT     H267794   8.618   7.030   8.423
22518WAT      O67795   2.424   2.673   6.289
22518WAT     H167796   2.508   2.713   6.252
22518WAT     H267797   2.420   2.576   6.265
22519WAT      O67798   3.428   9.420   6.789
22519WAT     H167799   3.397   9.515   6.794
22519WAT     H267800   3.496   9.403   6.861
22520WAT      O67801   3.630   8.203   0.852
22520WAT     H167802   3.587   8.181   0.940
22520WAT     H267803   3.587   8.150   0.779
22521WAT      O67804   4.766   7.833   4.209
22521WAT     H167805   4.745   7.742   4.246
22521WAT     H267806   4.709   7.850   4.128
22522WAT      O67807   5.530   1.874   2.341
22522WAT     H167808   5.562   1.851   2.433
22522WAT     H267809   5.438   1.838   2.328
22523WAT      O67810   6.219   4.533   5.418
22523WAT     H167811   6.174   4.614   5.380
22523WAT     H267812   6.156   4.456   5.415
22524WAT      O67813   2.879   5.762   1.002
22524WAT     H167814   2.788   5.721   1.007
22524WAT     H267815   2.870   5.860   0.982
22525WAT      O67816   7.957   7.563   9.432
22525WAT     H167817   7.931   7.650   9.391
22525WAT     H267818   7.885   7.532   9.493
22526WAT      O67819   0.579   6.062   8.069
22526WAT     H167820   0.644   6.054   7.993
22526WAT     H267821   0.530   6.149   8.062
22527WAT      O67822   3.074   3.667   6.659
22527WAT     H167823   2.979   3.636   6.663
22527WAT     H267824   3.111   3.649   6.567
22528WAT      O67825   1.692   6.199   0.516
22528WAT     H167826   1.723   6.279   0.464
22528WAT     H267827   1.628   6.146   0.460
22529WAT      O67828   8.171   2.916   2.827
22529WAT     H167829   8.191   2.994   2.767
22529WAT     H267830   8.118   2.948   2.906
22530WAT      O67831   6.768   9.066   6.946
22530WAT     H167832   6.805   9.142   7.000
22530WAT     H267833   6.843   9.008   6.914
22531WAT      O67834   6.273   3.334   8.765
22531WAT     H167835   6.239   3.247   8.801
22531WAT     H267836   6.373   3.333   8.763
22532WAT      O67837   1.577   8.367   8.042
22532WAT     H167838   1.552   8.289   8.099
22532WAT     H267839   1.508   8.439   8.053
22533WAT      O67840   5.040   2.801   3.738
22533WAT     H167841   5.003   2.830   3.826
22533WAT     H267842   5.044   2.701   3.734
22534WAT      O67843   5.419   4.086   8.184
22534WAT     H167844   5.368   4.169   8.205
22534WAT     H267845   5.411   4.066   8.086
22535WAT      O67846   7.126   1.842   0.184
22535WAT     H167847   7.201   1.793   0.140
22535WAT     H267848   7.094   1.788   0.262
22536WAT      O67849   6.615   0.599   0.075
22536WAT     H167850   6.690   0.579   0.138
22536WAT     H267851   6.534   0.625   0.128
22537WAT      O67852   1.198   6.607   0.279
22537WAT     H167853   1.223   6.686   0.334
22537WAT     H267854   1.272   6.539   0.283
22538WAT      O67855   3.242   3.380   6.847
22538WAT     H167856   3.256   3.476   6.869
22538WAT     H267857   3.281   3.323   6.919
22539WAT      O67858   6.518   4.107   3.490
22539WAT     H167859   6.506   4.116   3.588
22539WAT     H267860   6.429   4.111   3.444
22540WAT      O67861   7.366   1.754   0.473
22540WAT     H167862   7.417   1.746   0.387
22540WAT     H267863   7.430   1.771   0.548
22541WAT      O67864   0.328   6.849   1.616
22541WAT     H167865   0.388   6.773   1.641
22541WAT     H267866   0.288   6.889   1.698
22542WAT      O67867   4.766   2.401   7.485
22542WAT     H167868   4.710   2.369   7.409
22542WAT     H267869   4.786   2.499   7.473
22543WAT      O67870   8.020   4.390   7.140
22543WAT     H167871   7.927   4.374   7.108
22543WAT     H267872   8.021   4.469   7.201
22544WAT      O67873   8.013   6.367   5.223
22544WAT     H167874   8.027   6.461   5.254
22544WAT     H267875   8.015   6.305   5.302
22545WAT      O67876   7.113   9.533   5.914
22545WAT     H167877   7.019   9.547   5.943
22545WAT     H267878   7.168   9.613   5.937
22546WAT      O67879   5.272   7.145   7.667
22546WAT     H167880   5.198   7.198   7.707
22546WAT     H267881   5.272   7.157   7.567
22547WAT      O67882   9.689   2.410   2.918
22547WAT     H167883   9.741   2.480   2.869
22547WAT     H267884   9.635   2.356   2.853
22548WAT      O67885   6.701   7.586   8.243
22548WAT     H167886   6.651   7.562   8.160
22548WAT     H267887   6.774   7.519   8.259
22549WAT      O67888   1.776   0.760   5.380
22549WAT     H167889   1.839   0.728   5.310
22549WAT     H267890   1.790   0.858   5.395
22550WAT      O67891   6.118   7.417   7.761
22550WAT     H167892   6.177   7.479   7.710
22550WAT     H267893   6.155   7.404   7.853
22551WAT      O67894   9.866   5.094   2.434
22551WAT     H167895   9.903   5.109   2.342
22551WAT     H267896   9.877   5.177   2.488
22552WAT      O67897   8.097   9.286   5.684
22552WAT     H167898   8.187   9.294   5.641
22552WAT     H267899   8.107   9.289   5.783
22553WAT      O67900   1.788   9.769   4.064
22553WAT     H167901   1.854   9.723   4.125
22553WAT     H267902   1.718   9.704   4.035
22554WAT      O67903   9.660   6.279   3.201
22554WAT     H167904   9.741   6.338   3.191
22554WAT     H267905   9.619   6.263   3.111
22555WAT      O67906   3.799   7.093   6.394
22555WAT     H167907   3.897   7.087   6.412
22555WAT     H267908   3.782   7.065   6.299
22556WAT      O67909   3.422   7.080   7.116
22556WAT     H167910   3.498   7.118   7.167
22556WAT     H267911   3.452   6.997   7.068
22557WAT      O67912   5.478   7.619   0.933
22557WAT     H167913   5.526   7.697   0.973
22557WAT     H267914   5.478   7.628   0.833
22558WAT      O67915   2.345   0.428   2.166
22558WAT     H167916   2.380   0.412   2.074
22558WAT     H267917   2.395   0.504   2.208
22559WAT      O67918   9.382   4.841   3.619
22559WAT     H167919   9.468   4.842   3.568
22559WAT     H267920   9.353   4.746   3.634
22560WAT      O67921   0.580   9.069   2.448
22560WAT     H167922   0.561   8.976   2.481
22560WAT     H267923   0.641   9.115   2.512
22561WAT      O67924   0.979   7.789   8.858
22561WAT     H167925   0.937   7.875   8.831
22561WAT     H267926   1.039   7.804   8.937
22562WAT      O67927   5.799   9.652   6.640
22562WAT     H167928   5.836   9.559   6.638
22562WAT     H267929   5.752   9.667   6.728
22563WAT      O67930   6.352   7.389   2.804
22563WAT     H167931   6.445   7.394   2.840
22563WAT     H267932   6.352   7.339   2.718
22564WAT      O67933   1.056   0.846   9.865
22564WAT     H167934   1.141   0.810   9.827
22564WAT     H267935   1.055   0.946   9.855
22565WAT      O67936   5.798   4.153   6.951
22565WAT     H167937   5.825   4.195   6.864
22565WAT     H267938   5.763   4.061   6.934
22566WAT      O67939   9.279   6.081   5.902
22566WAT     H167940   9.342   6.133   5.959
22566WAT     H267941   9.330   6.035   5.830
22567WAT      O67942   2.362   7.125   4.229
22567WAT     H167943   2.280   7.096   4.181
22567WAT     H267944   2.423   7.173   4.165
22568WAT      O67945   7.677   5.303   2.251
22568WAT     H167946   7.739   5.261   2.185
22568WAT     H267947   7.727   5.326   2.334
22569WAT      O67948   6.553   1.317   3.009
22569WAT     H167949   6.560   1.344   2.913
22569WAT     H267950   6.457   1.321   3.038
22570WAT      O67951   5.690   3.135   7.564
22570WAT     H167952   5.757   3.140   7.638
22570WAT     H267953   5.644   3.224   7.554
22571WAT      O67954   9.023   3.841   7.472
22571WAT     H167955   8.965   3.917   7.445
22571WAT     H267956   9.059   3.857   7.564
22572WAT      O67957   7.656   5.175   6.489
22572WAT     H167958   7.639   5.269   6.519
22572WAT     H267959   7.729   5.135   6.544
22573WAT      O67960   5.348   3.957   2.559
22573WAT     H167961   5.318   3.899   2.483
22573WAT     H267962   5.447   3.967   2.556
22574WAT      O67963   6.915   1.663   3.984
22574WAT     H167964   7.009   1.675   4.017
22574WAT     H267965   6.910   1.580   3.928
22575WAT      O67966   7.455   4.628   4.163
22575WAT     H167967   7.496   4.707   4.207
22575WAT     H267968   7.409   4.657   4.078
22576WAT      O67969   7.721   6.175   5.753
22576WAT     H167970   7.626   6.166   5.783
22576WAT     H267971   7.760   6.259   5.791
22577WAT      O67972   7.748   5.951   2.986
22577WAT     H167973   7.834   5.995   3.012
22577WAT     H267974   7.711   5.902   3.065
22578WAT      O67975   4.283   7.282   5.000
22578WAT     H167976   4.229   7.278   5.084
22578WAT     H267977   4.379   7.293   5.022
22579WAT      O67978   8.310   4.048   2.853
22579WAT     H167979   8.265   4.137   2.856
22579WAT     H267980   8.283   4.000   2.769
22580WAT      O67981   6.993   4.154   2.810
22580WAT     H167982   6.978   4.235   2.753
22580WAT     H267983   7.071   4.171   2.871
22581WAT      O67984   9.459   1.187   6.527
22581WAT     H167985   9.503   1.241   6.598
22581WAT     H267986   9.473   1.231   6.438
22582WAT      O67987   3.334   3.129   0.805
22582WAT     H167988   3.363   3.221   0.777
22582WAT     H267989   3.238   3.132   0.833
22583WAT      O67990   9.215   9.554   4.576
22583WAT     H167991   9.240   9.498   4.655
22583WAT     H267992   9.215   9.497   4.494
22584WAT      O67993   2.875   3.372   6.614
22584WAT     H167994   2.788   3.327   6.594
22584WAT     H267995   2.935   3.367   6.533
22585WAT      O67996   0.021   5.496   1.221
22585WAT     H167997  -0.007   5.545   1.303
22585WAT     H267998   0.022   5.397   1.240
22586WAT      O67999   2.791   6.913   4.803
22586WAT     H168000   2.740   6.834   4.769
22586WAT     H268001   2.727   6.980   4.841
22587WAT      O68002   4.148   3.661   2.496
22587WAT     H168003   4.237   3.670   2.541
22587WAT     H268004   4.162   3.648   2.398
22588WAT      O68005   3.108   8.527   9.850
22588WAT     H168006   3.190   8.570   9.889
22588WAT     H268007   3.072   8.459   9.914
22589WAT      O68008   3.552   9.154   3.123
22589WAT     H168009   3.523   9.083   3.187
22589WAT     H268010   3.507   9.140   3.035
22590WAT      O68011   2.642   8.684   9.829
22590WAT     H168012   2.634   8.738   9.746
22590WAT     H268013   2.717   8.720   9.885
22591WAT      O68014   4.270   2.659   0.558
22591WAT     H168015   4.327   2.588   0.516
22591WAT     H268016   4.312   2.690   0.643
22592WAT      O68017   5.659   7.161   7.120
22592WAT     H168018   5.685   7.065   7.104
22592WAT     H268019   5.738   7.211   7.157
22593WAT      O68020   7.777   6.734   2.458
22593WAT     H168021   7.841   6.699   2.390
22593WAT     H268022   7.797   6.830   2.477
22594WAT      O68023   8.421   7.440   3.757
22594WAT     H168024   8.473   7.390   3.687
22594WAT     H268025   8.410   7.535   3.728
22595WAT      O68026   5.537   8.393   1.684
22595WAT     H168027   5.575   8.312   1.638
22595WAT     H268028   5.586   8.474   1.652
22596WAT      O68029   6.086   1.577   7.206
22596WAT     H168030   6.152   1.649   7.227
22596WAT     H268031   5.996   1.602   7.240
22597WAT      O68032   8.040   9.483   1.694
22597WAT     H168033   8.020   9.387   1.675
22597WAT     H268034   7.954   9.534   1.704
22598WAT      O68035   2.640   8.244   6.746
22598WAT     H168036   2.618   8.156   6.789
22598WAT     H268037   2.673   8.227   6.653
22599WAT      O68038   7.818   0.861   1.688
22599WAT     H168039   7.768   0.930   1.635
22599WAT     H268040   7.764   0.833   1.766
22600WAT      O68041   4.770   7.449   6.062
22600WAT     H168042   4.688   7.505   6.053
22600WAT     H268043   4.744   7.352   6.068
22601WAT      O68044   9.675   7.410   7.192
22601WAT     H168045   9.709   7.504   7.184
22601WAT     H268046   9.706   7.357   7.113
22602WAT      O68047   4.760   6.505   7.936
22602WAT     H168048   4.725   6.414   7.917
22602WAT     H268049   4.758   6.522   8.034
22603WAT      O68050   8.435   9.791   3.596
22603WAT     H168051   8.504   9.851   3.555
22603WAT     H268052   8.467   9.697   3.595
22604WAT      O68053   8.929   4.487   6.629
22604WAT     H168054   9.011   4.468   6.684
22604WAT     H268055   8.898   4.580   6.647
22605WAT      O68056  -0.002   8.540   0.824
22605WAT     H168057   0.080   8.597   0.820
22605WAT     H268058   0.018   8.450   0.786
22606WAT      O68059   5.269   0.975   7.048
22606WAT     H168060   5.218   0.896   7.083
22606WAT     H268061   5.237   1.058   7.095
22607WAT      O68062   0.212   9.103   6.097
22607WAT     H168063   0.297   9.100   6.149
22607WAT     H268064   0.229   9.071   6.004
22608WAT      O68065   8.644   5.644   2.339
22608WAT     H168066   8.601   5.603   2.258
22608WAT     H268067   8.652   5.743   2.326
22609WAT      O68068   1.670   1.979   3.054
22609WAT     H168069   1.664   1.974   3.154
22609WAT     H268070   1.594   1.926   3.014
22610WAT      O68071   9.017   5.606   1.680
22610WAT     H168072   8.994   5.700   1.705
22610WAT     H268073   8.937   5.563   1.637
22611WAT      O68074   4.944   3.226   8.038
22611WAT     H168075   4.947   3.226   8.138
22611WAT     H268076   4.922   3.134   8.005
22612WAT      O68077   1.637   2.115   6.611
22612WAT     H168078   1.593   2.175   6.545
22612WAT     H268079   1.611   2.020   6.592
22613WAT      O68080   7.394   7.166   1.958
22613WAT     H168081   7.349   7.239   1.907
22613WAT     H268082   7.485   7.197   1.986
22614WAT      O68083   5.946   0.678   6.246
22614WAT     H168084   5.991   0.687   6.158
22614WAT     H268085   5.986   0.602   6.297
22615WAT      O68086   3.228   2.015   8.218
22615WAT     H168087   3.268   2.105   8.231
22615WAT     H268088   3.139   2.025   8.173
22616WAT      O68089   4.960   0.882   6.727
22616WAT     H168090   5.060   0.893   6.719
22616WAT     H268091   4.930   0.912   6.817
22617WAT      O68092   6.428   4.068   8.195
22617WAT     H168093   6.337   4.056   8.155
22617WAT     H268094   6.474   4.145   8.151
22618WAT      O68095   6.808   2.823   5.665
22618WAT     H168096   6.721   2.869   5.686
22618WAT     H268097   6.848   2.863   5.583
22619WAT      O68098   6.270   0.885   3.118
22619WAT     H168099   6.330   0.965   3.109
22619WAT     H268100   6.267   0.836   3.031
22620WAT      O68101   6.161   7.592   5.167
22620WAT     H168102   6.193   7.530   5.096
22620WAT     H268103   6.239   7.637   5.210
22621WAT      O68104   0.592   2.451   2.537
22621WAT     H168105   0.668   2.398   2.501
22621WAT     H268106   0.543   2.398   2.606
22622WAT      O68107   1.445   9.043   8.787
22622WAT     H168108   1.510   8.967   8.794
22622WAT     H268109   1.483   9.123   8.834
22623WAT      O68110   0.907   7.922   0.148
22623WAT     H168111   0.808   7.926   0.161
22623WAT     H268112   0.938   7.827   0.150
22624WAT      O68113   9.142   2.145   2.947
22624WAT     H168114   9.227   2.118   2.901
22624WAT     H268115   9.064   2.110   2.895
22625WAT      O68116   8.535   8.629   1.512
22625WAT     H168117   8.460   8.591   1.457
22625WAT     H268118   8.497   8.694   1.578
22626WAT      O68119   4.976   6.114   1.712
22626WAT     H168120   5.042   6.130   1.638
22626WAT     H268121   4.888   6.090   1.672
22627WAT      O68122   7.230   8.499   3.308
22627WAT     H168123   7.283   8.424   3.268
22627WAT     H268124   7.132   8.480   3.298
22628WAT      O68125   9.289   0.746   1.514
22628WAT     H168126   9.384   0.766   1.493
22628WAT     H268127   9.267   0.778   1.606
22629WAT      O68128   5.554   1.503   4.326
22629WAT     H168129   5.626   1.444   4.361
22629WAT     H268130   5.477   1.504   4.391
22630WAT      O68131   6.059   6.149   3.993
22630WAT     H168132   6.112   6.229   4.020
22630WAT     H268133   6.002   6.172   3.914
22631WAT      O68134   3.422   2.489   9.456
22631WAT     H168135   3.467   2.537   9.381
22631WAT     H268136   3.486   2.426   9.500
22632WAT      O68137   3.499   4.435   7.382
22632WAT     H168138   3.456   4.491   7.311
22632WAT     H268139   3.568   4.489   7.430
22633WAT      O68140   0.373   2.084   1.809
22633WAT     H168141   0.321   2.005   1.777
22633WAT     H268142   0.378   2.082   1.909
22634WAT      O68143   1.148   9.836   3.660
22634WAT     H168144   1.072   9.807   3.601
22634WAT     H268145   1.233   9.798   3.625
22635WAT      O68146   0.544   5.131   8.514
22635WAT     H168147   0.632   5.138   8.560
22635WAT     H268148   0.482   5.200   8.549
22636WAT      O68149   9.775   4.489   7.877
22636WAT     H168150   9.696   4.472   7.937
22636WAT     H268151   9.821   4.573   7.907
22637WAT      O68152   0.364   3.399   3.895
22637WAT     H168153   0.346   3.459   3.818
22637WAT     H268154   0.361   3.452   3.980
22638WAT      O68155   4.609   9.643   2.892
22638WAT     H168156   4.556   9.700   2.955
22638WAT     H268157   4.685   9.695   2.856
22639WAT      O68158   9.740   1.929   5.933
22639WAT     H168159   9.691   1.984   6.000
22639WAT     H268160   9.836   1.921   5.960
22640WAT      O68161   1.960   4.794   6.512
22640WAT     H168162   1.943   4.743   6.428
22640WAT     H268163   1.963   4.892   6.493
22641WAT      O68164   4.139   3.035   6.959
22641WAT     H168165   4.064   3.061   7.019
22641WAT     H268166   4.197   2.968   7.004
22642WAT      O68167   9.370   3.137   9.220
22642WAT     H168168   9.417   3.050   9.206
22642WAT     H268169   9.309   3.155   9.143
22643WAT      O68170   0.576   5.623   7.732
22643WAT     H168171   0.522   5.690   7.783
22643WAT     H268172   0.661   5.665   7.701
22644WAT      O68173   5.178   5.560   5.827
22644WAT     H168174   5.138   5.546   5.736
22644WAT     H268175   5.277   5.547   5.821
22645WAT      O68176   4.147   1.628   4.531
22645WAT     H168177   4.223   1.651   4.471
22645WAT     H268178   4.146   1.529   4.547
22646WAT      O68179   0.789   8.250   3.945
22646WAT     H168180   0.882   8.215   3.935
22646WAT     H268181   0.730   8.177   3.978
22647WAT      O68182   8.924   9.600   5.969
22647WAT     H168183   8.835   9.602   6.015
22647WAT     H268184   8.976   9.520   5.999
22648WAT      O68185   5.026   0.336   4.283
22648WAT     H168186   5.112   0.339   4.334
22648WAT     H268187   4.964   0.406   4.319
22649WAT      O68188   4.455   3.203   4.633
22649WAT     H168189   4.412   3.290   4.607
22649WAT     H268190   4.426   3.132   4.569
22650WAT      O68191   7.365   3.386   1.944
22650WAT     H168192   7.362   3.339   1.856
22650WAT     H268193   7.354   3.485   1.930
22651WAT      O68194   1.223   9.057   9.585
22651WAT     H168195   1.297   9.068   9.519
22651WAT     H268196   1.210   8.960   9.606
22652WAT      O68197   5.600   0.748   1.094
22652WAT     H168198   5.636   0.832   1.051
22652WAT     H268199   5.518   0.770   1.146
22653WAT      O68200   8.425   7.855   3.197
22653WAT     H168201   8.487   7.920   3.154
22653WAT     H268202   8.441   7.855   3.296
22654WAT      O68203   5.786   9.665   9.504
22654WAT     H168204   5.805   9.647   9.600
22654WAT     H268205   5.738   9.587   9.464
22655WAT      O68206   3.108   0.800   7.281
22655WAT     H168207   3.104   0.879   7.342
22655WAT     H268208   3.198   0.757   7.287
22656WAT      O68209   6.014   6.896   0.700
22656WAT     H168210   6.114   6.899   0.702
22656WAT     H268211   5.980   6.960   0.630
22657WAT      O68212   3.470   3.004   5.551
22657WAT     H168213   3.375   2.979   5.568
22657WAT     H268214   3.491   2.995   5.454
22658WAT      O68215   2.038   4.415   3.531
22658WAT     H168216   2.104   4.452   3.466
22658WAT     H268217   1.967   4.483   3.549
22659WAT      O68218   9.439   2.268   6.086
22659WAT     H168219   9.435   2.336   6.158
22659WAT     H268220   9.356   2.212   6.088
22660WAT      O68221   2.793   0.408   3.375
22660WAT     H168222   2.774   0.460   3.292
22660WAT     H268223   2.782   0.467   3.455
22661WAT      O68224   0.528   1.990   1.519
22661WAT     H168225   0.550   2.049   1.442
22661WAT     H268226   0.584   2.015   1.598
22662WAT      O68227   7.882   0.353   1.785
22662WAT     H168228   7.958   0.348   1.849
22662WAT     H268229   7.870   0.264   1.741
22663WAT      O68230   4.328   9.088   3.767
22663WAT     H168231   4.362   9.011   3.713
22663WAT     H268232   4.257   9.136   3.715
22664WAT      O68233   7.058   2.677   0.709
22664WAT     H168234   7.057   2.748   0.780
22664WAT     H268235   7.035   2.589   0.751
22665WAT      O68236   8.223   7.737   1.825
22665WAT     H168237   8.307   7.792   1.823
22665WAT     H268238   8.245   7.643   1.850
22666WAT      O68239   6.028   6.119   1.497
22666WAT     H168240   5.978   6.042   1.537
22666WAT     H268241   6.062   6.178   1.570
22667WAT      O68242   0.671   6.135   9.445
22667WAT     H168243   0.770   6.122   9.440
22667WAT     H268244   0.635   6.158   9.355
22668WAT      O68245   7.698   8.441   9.102
22668WAT     H168246   7.721   8.501   9.178
22668WAT     H268247   7.687   8.347   9.136
22669WAT      O68248   8.874   5.785   9.246
22669WAT     H168249   8.807   5.859   9.237
22669WAT     H268250   8.935   5.787   9.166
22670WAT      O68251   2.518   1.990   8.254
22670WAT     H168252   2.614   1.965   8.242
22670WAT     H268253   2.496   1.990   8.352
22671WAT      O68254   7.596   0.457   9.663
22671WAT     H168255   7.624   0.410   9.579
22671WAT     H268256   7.560   0.547   9.639
22672WAT      O68257   8.218   1.861   4.225
22672WAT     H168258   8.169   1.820   4.148
22672WAT     H268259   8.295   1.915   4.190
22673WAT      O68260   0.686   4.485   2.589
22673WAT     H168261   0.701   4.399   2.539
22673WAT     H268262   0.773   4.535   2.595
22674WAT      O68263   4.752   7.470   3.983
22674WAT     H168264   4.820   7.529   4.027
22674WAT     H268265   4.797   7.413   3.915
22675WAT      O68266   4.618   8.309   2.962
22675WAT     H168267   4.551   8.371   3.003
22675WAT     H268268   4.608   8.309   2.863
22676WAT      O68269   8.022   4.664   1.693
22676WAT     H168270   7.954   4.590   1.703
22676WAT     H268271   8.111   4.624   1.669
22677WAT      O68272   6.422   1.756   2.094
22677WAT     H168273   6.470   1.759   2.181
22677WAT     H268274   6.488   1.765   2.019
22678WAT      O68275   4.124   1.093   0.164
22678WAT     H168276   4.157   0.999   0.167
22678WAT     H268277   4.180   1.150   0.224
22679WAT      O68278   3.017   4.218   5.462
22679WAT     H168279   2.957   4.142   5.490
22679WAT     H268280   2.963   4.287   5.413
22680WAT      O68281   5.518   4.844   3.608
22680WAT     H168282   5.489   4.933   3.573
22680WAT     H268283   5.578   4.857   3.687
22681WAT      O68284   0.979   1.662   8.898
22681WAT     H168285   0.983   1.761   8.902
22681WAT     H268286   0.959   1.625   8.988
22682WAT      O68287   8.583   3.306   7.243
22682WAT     H168288   8.656   3.267   7.298
22682WAT     H268289   8.577   3.405   7.260
22683WAT      O68290   2.119   6.502   5.776
22683WAT     H168291   2.163   6.553   5.850
22683WAT     H268292   2.052   6.560   5.730
22684WAT      O68293   4.959   5.492   3.584
22684WAT     H168294   4.913   5.579   3.564
22684WAT     H268295   4.945   5.469   3.680
22685WAT      O68296   0.795   3.416   0.823
22685WAT     H168297   0.793   3.515   0.837
22685WAT     H268298   0.785   3.396   0.725
22686WAT      O68299   1.294   8.331   9.788
22686WAT     H168300   1.317   8.269   9.863
22686WAT     H268301   1.266   8.420   9.825
22687WAT      O68302   6.977   3.448   8.826
22687WAT     H168303   7.043   3.521   8.806
22687WAT     H268304   6.967   3.390   8.745
22688WAT      O68305   9.331   0.912   7.044
22688WAT     H168306   9.362   0.987   6.985
22688WAT     H268307   9.234   0.894   7.027
22689WAT      O68308   0.306   6.913   7.949
22689WAT     H168309   0.307   6.900   8.049
22689WAT     H268310   0.385   6.968   7.922
22690WAT      O68311   6.696   9.810   4.347
22690WAT     H168312   6.600   9.801   4.372
22690WAT     H268313   6.735   9.719   4.330
22691WAT      O68314   9.561   7.960   3.638
22691WAT     H168315   9.631   8.015   3.594
22691WAT     H268316   9.511   7.908   3.570
22692WAT      O68317   9.334   1.035   0.507
22692WAT     H168318   9.420   0.999   0.470
22692WAT     H268319   9.274   1.062   0.431
22693WAT      O68320   8.562   7.689   4.553
22693WAT     H168321   8.626   7.619   4.583
22693WAT     H268322   8.519   7.731   4.632
22694WAT      O68323   4.352   1.115   1.228
22694WAT     H168324   4.413   1.041   1.255
22694WAT     H268325   4.365   1.135   1.131
22695WAT      O68326   8.635   6.539   1.812
22695WAT     H168327   8.722   6.567   1.771
22695WAT     H268328   8.576   6.619   1.822
22696WAT      O68329   8.087   3.340   5.640
22696WAT     H168330   7.994   3.313   5.616
22696WAT     H268331   8.150   3.302   5.573
22697WAT      O68332   2.586   9.462   4.394
22697WAT     H168333   2.601   9.560   4.382
22697WAT     H268334   2.521   9.447   4.468
22698WAT      O68335   6.357   7.486   9.339
22698WAT     H168336   6.444   7.536   9.332
22698WAT     H268337   6.321   7.471   9.247
22699WAT      O68338   2.955   8.351   3.994
22699WAT     H168339   2.947   8.294   3.913
22699WAT     H268340   2.875   8.410   4.001
22700WAT      O68341   0.317   5.617   1.722
22700WAT     H168342   0.274   5.680   1.657
22700WAT     H268343   0.250   5.588   1.790
22701WAT      O68344   6.451   5.990   6.187
22701WAT     H168345   6.521   5.936   6.141
22701WAT     H268346   6.362   5.945   6.176
22702WAT      O68347   0.054   3.280   3.506
22702WAT     H168348   0.136   3.276   3.562
22702WAT     H268349   0.058   3.359   3.445
22703WAT      O68350   6.087   1.457   8.144
22703WAT     H168351   6.075   1.515   8.063
22703WAT     H268352   6.061   1.509   8.226
22704WAT      O68353   0.755   1.423   9.621
22704WAT     H168354   0.661   1.456   9.633
22704WAT     H268355   0.817   1.481   9.673
22705WAT      O68356   4.100   5.966   0.348
22705WAT     H168357   4.023   5.970   0.411
22705WAT     H268358   4.175   6.024   0.382
22706WAT      O68359   3.814   3.949   9.781
22706WAT     H168360   3.720   3.939   9.813
22706WAT     H268361   3.858   3.860   9.776
22707WAT      O68362   7.630   6.996   7.121
22707WAT     H168363   7.586   7.040   7.042
22707WAT     H268364   7.725   6.976   7.099
22708WAT      O68365   4.006   3.404   7.733
22708WAT     H168366   3.908   3.413   7.720
22708WAT     H268367   4.025   3.330   7.798
22709WAT      O68368   6.393   2.928   8.789
22709WAT     H168369   6.314   2.971   8.834
22709WAT     H268370   6.445   2.997   8.739
22710WAT      O68371   8.750   3.539   2.696
22710WAT     H168372   8.829   3.478   2.695
22710WAT     H268373   8.739   3.578   2.787
22711WAT      O68374   0.638   7.022   4.476
22711WAT     H168375   0.688   6.952   4.526
22711WAT     H268376   0.539   7.008   4.489
22712WAT      O68377   1.746   1.772   0.517
22712WAT     H168378   1.740   1.864   0.477
22712WAT     H268379   1.799   1.776   0.602
22713WAT      O68380   1.600   8.866   6.464
22713WAT     H168381   1.653   8.833   6.542
22713WAT     H268382   1.626   8.815   6.382
22714WAT      O68383   3.123   2.330   6.900
22714WAT     H168384   3.041   2.323   6.957
22714WAT     H268385   3.188   2.393   6.943
22715WAT      O68386   6.904   3.957   9.321
22715WAT     H168387   6.856   3.994   9.242
22715WAT     H268388   6.838   3.919   9.386
22716WAT      O68389   8.905   1.112   7.284
22716WAT     H168390   8.897   1.160   7.371
22716WAT     H268391   9.002   1.106   7.259
22717WAT      O68392   6.919   5.837   5.505
22717WAT     H168393   7.006   5.826   5.456
22717WAT     H268394   6.848   5.865   5.440
22718WAT      O68395   1.666   6.472   5.861
22718WAT     H168396   1.730   6.395   5.857
22718WAT     H268397   1.689   6.538   5.790
22719WAT      O68398   4.050   1.026   1.262
22719WAT     H168399   4.146   1.046   1.280
22719WAT     H268400   3.993   1.089   1.315
22720WAT      O68401   1.884   7.061   5.419
22720WAT     H168402   1.886   7.000   5.340
22720WAT     H268403   1.868   7.155   5.389
22721WAT      O68404   3.510   3.634   2.077
22721WAT     H168405   3.594   3.663   2.125
22721WAT     H268406   3.481   3.545   2.112
22722WAT      O68407   6.809   1.701   1.533
22722WAT     H168408   6.876   1.666   1.599
22722WAT     H268409   6.840   1.683   1.440
22723WAT      O68410   1.845   5.634   0.873
22723WAT     H168411   1.796   5.699   0.815
22723WAT     H268412   1.915   5.587   0.820
22724WAT      O68413   6.527   3.857   1.650
22724WAT     H168414   6.475   3.910   1.718
22724WAT     H268415   6.612   3.905   1.629
22725WAT      O68416   5.584   2.395   9.669
22725WAT     H168417   5.585   2.304   9.711
22725WAT     H268418   5.490   2.420   9.648
22726WAT      O68419   4.129   2.416   6.264
22726WAT     H168420   4.225   2.406   6.237
22726WAT     H268421   4.074   2.353   6.209
22727WAT      O68422   8.091   4.001   5.407
22727WAT     H168423   8.033   3.986   5.327
22727WAT     H268424   8.070   3.933   5.477
22728WAT      O68425   5.928   1.028   9.353
22728WAT     H168426   6.027   1.018   9.359
22728WAT     H268427   5.905   1.101   9.289
22729WAT      O68428   5.633   7.933   4.344
22729WAT     H168429   5.635   7.932   4.244
22729WAT     H268430   5.641   7.840   4.378
22730WAT      O68431   4.257   6.595   6.801
22730WAT     H168432   4.214   6.674   6.758
22730WAT     H268433   4.257   6.518   6.736
22731WAT      O68434   4.260   4.116   5.341
22731WAT     H168435   4.346   4.095   5.387
22731WAT     H268436   4.237   4.042   5.277
22732WAT      O68437   1.433   4.921   8.103
22732WAT     H168438   1.452   5.019   8.102
22732WAT     H268439   1.502   4.874   8.160
22733WAT      O68440   3.971   5.638   1.233
22733WAT     H168441   3.945   5.728   1.197
22733WAT     H268442   3.888   5.590   1.263
22734WAT      O68443   5.787   4.689   9.539
22734WAT     H168444   5.866   4.744   9.512
22734WAT     H268445   5.795   4.598   9.499
22735WAT      O68446   1.725   6.177   4.243
22735WAT     H168447   1.709   6.099   4.183
22735WAT     H268448   1.697   6.262   4.197
22736WAT      O68449   0.015   1.831   9.854
22736WAT     H168450  -0.047   1.848   9.931
22736WAT     H268451  -0.003   1.896   9.781
22737WAT      O68452   1.256   6.393   9.750
22737WAT     H168453   1.173   6.346   9.718
22737WAT     H268454   1.242   6.425   9.843
22738WAT      O68455   5.388   6.827   4.238
22738WAT     H168456   5.464   6.836   4.303
22738WAT     H268457   5.320   6.898   4.257
22739WAT      O68458   8.631   7.147   1.647
22739WAT     H168459   8.540   7.111   1.669
22739WAT     H268460   8.680   7.080   1.591
22740WAT      O68461   0.890   9.289   0.644
22740WAT     H168462   0.926   9.292   0.551
22740WAT     H268463   0.870   9.195   0.670
22741WAT      O68464   2.932   4.826   1.396
22741WAT     H168465   2.919   4.905   1.455
22741WAT     H268466   2.851   4.767   1.400
22742WAT      O68467   7.383   5.120   1.770
22742WAT     H168468   7.472   5.147   1.807
22742WAT     H268469   7.380   5.021   1.759
22743WAT      O68470   2.994   9.432   3.635
22743WAT     H168471   2.956   9.482   3.713
22743WAT     H268472   2.933   9.357   3.610
22744WAT      O68473   6.804   9.549   7.597
22744WAT     H168474   6.744   9.608   7.650
22744WAT     H268475   6.887   9.599   7.572
22745WAT      O68476   4.522   7.952   0.724
22745WAT     H168477   4.586   7.878   0.704
22745WAT     H268478   4.466   7.926   0.803
22746WAT      O68479   4.737   2.449   7.169
22746WAT     H168480   4.659   2.487   7.219
22746WAT     H268481   4.816   2.509   7.180
22747WAT      O68482   9.255   2.081   2.129
22747WAT     H168483   9.312   2.007   2.093
22747WAT     H268484   9.309   2.139   2.189
22748WAT      O68485   4.788   7.168   5.367
22748WAT     H168486   4.706   7.143   5.315
22748WAT     H268487   4.766   7.167   5.465
22749WAT      O68488   9.513   9.577   2.337
22749WAT     H168489   9.519   9.677   2.333
22749WAT     H268490   9.522   9.540   2.244
22750WAT      O68491   7.879   6.667   3.463
22750WAT     H168492   7.811   6.628   3.524
22750WAT     H268493   7.836   6.691   3.376
22751WAT      O68494   8.027   5.165   3.335
22751WAT     H168495   8.074   5.222   3.268
22751WAT     H268496   7.969   5.221   3.393
22752WAT      O68497   4.643   6.652   3.464
22752WAT     H168498   4.596   6.700   3.538
22752WAT     H268499   4.728   6.701   3.442
22753WAT      O68500   2.215   9.231   0.955
22753WAT     H168501   2.206   9.166   1.031
22753WAT     H268502   2.206   9.182   0.869
22754WAT      O68503   2.153   9.366   1.491
22754WAT     H168504   2.056   9.343   1.500
22754WAT     H268505   2.164   9.441   1.426
22755WAT      O68506   1.153   8.629   2.683
22755WAT     H168507   1.195   8.641   2.772
22755WAT     H268508   1.195   8.691   2.617
22756WAT      O68509   2.010   5.578   1.752
22756WAT     H168510   1.973   5.582   1.659
22756WAT     H268511   2.029   5.483   1.776
22757WAT      O68512   7.473   3.933   4.018
22757WAT     H168513   7.439   3.884   3.938
22757WAT     H268514   7.573   3.935   4.017
22758WAT      O68515   1.192   6.041   9.814
22758WAT     H168516   1.238   6.072   9.897
22758WAT     H268517   1.126   6.111   9.785
22759WAT      O68518   0.774   0.059   4.166
22759WAT     H168519   0.744  -0.000   4.241
22759WAT     H268520   0.770   0.154   4.196
22760WAT      O68521   6.843   8.649   2.495
22760WAT     H168522   6.866   8.629   2.400
22760WAT     H268523   6.842   8.749   2.508
22761WAT      O68524   0.277   5.345   4.075
22761WAT     H168525   0.312   5.264   4.028
22761WAT     H268526   0.200   5.319   4.133
22762WAT      O68527   7.635   3.830   6.073
22762WAT     H168528   7.715   3.889   6.089
22762WAT     H268529   7.658   3.763   6.003
22763WAT      O68530   4.284   8.843   9.576
22763WAT     H168531   4.311   8.923   9.629
22763WAT     H268532   4.362   8.780   9.569
22764WAT      O68533   2.662   0.618   5.097
22764WAT     H168534   2.661   0.553   5.021
22764WAT     H268535   2.584   0.599   5.157
22765WAT      O68536   9.539   4.778   7.387
22765WAT     H168537   9.584   4.848   7.331
22765WAT     H268538   9.460   4.817   7.433
22766WAT      O68539   8.269   1.883   7.858
22766WAT     H168540   8.327   1.940   7.800
22766WAT     H268541   8.323   1.807   7.895
22767WAT      O68542   6.712   2.523   8.851
22767WAT     H168543   6.705   2.617   8.886
22767WAT     H268544   6.769   2.470   8.914
22768WAT      O68545   5.196   7.561   2.885
22768WAT     H168546   5.187   7.473   2.931
22768WAT     H268547   5.149   7.632   2.938
22769WAT      O68548   6.660   4.126   4.202
22769WAT     H168549   6.620   4.214   4.176
22769WAT     H268550   6.703   4.134   4.292
22770WAT      O68551   8.952   4.569   7.790
22770WAT     H168552   8.991   4.636   7.854
22770WAT     H268553   8.870   4.529   7.829
22771WAT      O68554   4.891   0.249   2.251
22771WAT     H168555   4.972   0.308   2.255
22771WAT     H268556   4.832   0.268   2.329
22772WAT      O68557   0.882   3.983   0.864
22772WAT     H168558   0.851   3.897   0.904
22772WAT     H268559   0.828   4.059   0.901
22773WAT      O68560   1.417   0.491   4.303
22773WAT     H168561   1.501   0.490   4.357
22773WAT     H268562   1.353   0.422   4.338
22774WAT      O68563   4.914   5.060   2.992
22774WAT     H168564   4.987   4.995   3.010
22774WAT     H268565   4.911   5.080   2.894
22775WAT      O68566   3.190   6.502   0.642
22775WAT     H168567   3.221   6.448   0.720
22775WAT     H268568   3.196   6.600   0.664
22776WAT      O68569   3.742   1.132   9.462
22776WAT     H168570   3.700   1.064   9.522
22776WAT     H268571   3.688   1.216   9.463
22777WAT      O68572   4.182   2.866   1.649
22777WAT     H168573   4.166   2.940   1.714
22777WAT     H268574   4.115   2.873   1.574
22778WAT      O68575   5.207   3.331   9.003
22778WAT     H168576   5.261   3.307   8.923
22778WAT     H268577   5.152   3.413   8.982
22779WAT      O68578   0.643   9.211   3.065
22779WAT     H168579   0.566   9.205   3.002
22779WAT     H268580   0.697   9.127   3.061
22780WAT      O68581   7.164   8.796   6.294
22780WAT     H168582   7.162   8.871   6.228
22780WAT     H268583   7.132   8.712   6.251
22781WAT      O68584   9.143   2.255   0.052
22781WAT     H168585   9.048   2.242   0.023
22781WAT     H268586   9.154   2.345   0.093
22782WAT      O68587   2.534   2.951   1.087
22782WAT     H168588   2.542   3.050   1.100
22782WAT     H268589   2.481   2.932   1.004
22783WAT      O68590   3.242   5.393   4.060
22783WAT     H168591   3.210   5.485   4.083
22783WAT     H268592   3.314   5.400   3.991
22784WAT      O68593   0.279   6.819   3.075
22784WAT     H168594   0.250   6.783   2.986
22784WAT     H268595   0.372   6.857   3.067
22785WAT      O68596   7.406   8.602   0.486
22785WAT     H168597   7.469   8.625   0.413
22785WAT     H268598   7.401   8.677   0.552
22786WAT      O68599   1.423   4.139   7.720
22786WAT     H168600   1.350   4.181   7.775
22786WAT     H268601   1.458   4.206   7.655
22787WAT      O68602   0.419   0.734   7.738
22787WAT     H168603   0.334   0.683   7.737
22787WAT     H268604   0.450   0.748   7.644
22788WAT      O68605   0.107   8.405   2.566
22788WAT     H168606   0.020   8.421   2.518
22788WAT     H268607   0.183   8.429   2.506
22789WAT      O68608   6.654   0.720   7.877
22789WAT     H168609   6.614   0.806   7.908
22789WAT     H268610   6.604   0.643   7.916
22790WAT      O68611   6.785   5.601   9.846
22790WAT     H168612   6.864   5.634   9.794
22790WAT     H268613   6.793   5.503   9.859
22791WAT      O68614   7.327   1.646   2.665
22791WAT     H168615   7.292   1.736   2.690
22791WAT     H268616   7.375   1.652   2.577
22792WAT      O68617   1.251   8.626   4.069
22792WAT     H168618   1.247   8.564   3.990
22792WAT     H268619   1.161   8.669   4.082
22793WAT      O68620   5.948   2.392   7.610
22793WAT     H168621   6.029   2.357   7.563
22793WAT     H268622   5.885   2.317   7.629
22794WAT      O68623   8.799   2.045   2.914
22794WAT     H168624   8.700   2.058   2.921
22794WAT     H268625   8.821   1.948   2.926
22795WAT      O68626   7.542   8.056   2.192
22795WAT     H168627   7.453   8.048   2.237
22795WAT     H268628   7.600   7.979   2.220
22796WAT      O68629   6.892   4.141   5.363
22796WAT     H168630   6.912   4.055   5.409
22796WAT     H268631   6.972   4.171   5.313
22797WAT      O68632   1.058   9.367   2.620
22797WAT     H168633   1.049   9.273   2.653
22797WAT     H268634   1.073   9.428   2.698
22798WAT      O68635   9.189   3.765   0.794
22798WAT     H168636   9.212   3.861   0.776
22798WAT     H268637   9.176   3.753   0.893
22799WAT      O68638   7.158   2.731   1.654
22799WAT     H168639   7.207   2.755   1.739
22799WAT     H268640   7.162   2.632   1.641
22800WAT      O68641   7.038   5.304   6.809
22800WAT     H168642   6.949   5.307   6.764
22800WAT     H268643   7.037   5.363   6.889
22801WAT      O68644   7.931   3.871   9.105
22801WAT     H168645   7.939   3.850   9.008
22801WAT     H268646   7.951   3.789   9.159
22802WAT      O68647   3.499   8.521   2.449
22802WAT     H168648   3.405   8.518   2.483
22802WAT     H268649   3.559   8.563   2.518
22803WAT      O68650   2.765   1.264   2.397
22803WAT     H168651   2.827   1.187   2.412
22803WAT     H268652   2.806   1.347   2.435
22804WAT      O68653   3.550   3.842   5.663
22804WAT     H168654   3.551   3.938   5.692
22804WAT     H268655   3.610   3.788   5.722
22805WAT      O68656   9.060   1.937   3.921
22805WAT     H168657   8.977   1.884   3.900
22805WAT     H268658   9.132   1.875   3.951
22806WAT      O68659   2.864   4.018   9.362
22806WAT     H168660   2.771   4.039   9.331
22806WAT     H268661   2.930   4.059   9.299
22807WAT      O68662   7.523   3.860   8.496
22807WAT     H168663   7.578   3.787   8.535
22807WAT     H268664   7.539   3.944   8.548
22808WAT      O68665   3.939   6.618   1.409
22808WAT     H168666   3.963   6.618   1.312
22808WAT     H268667   3.912   6.526   1.436
22809WAT      O68668   9.795   0.857   1.468
22809WAT     H168669   9.866   0.905   1.417
22809WAT     H268670   9.806   0.875   1.566
22810WAT      O68671   2.802   0.847   6.786
22810WAT     H168672   2.734   0.872   6.855
22810WAT     H268673   2.774   0.885   6.698
22811WAT      O68674   9.427   4.829   9.578
22811WAT     H168675   9.330   4.843   9.557
22811WAT     H268676   9.481   4.902   9.536
22812WAT      O68677   5.036   7.469   5.064
22812WAT     H168678   5.044   7.398   5.134
22812WAT     H268679   5.009   7.426   4.978
22813WAT      O68680   9.821   2.372   2.465
22813WAT     H168681   9.818   2.452   2.405
22813WAT     H268682   9.756   2.303   2.432
22814WAT      O68683   0.203   2.717   2.432
22814WAT     H168684   0.121   2.682   2.387
22814WAT     H268685   0.252   2.778   2.370
22815WAT      O68686   4.084   4.185   4.666
22815WAT     H168687   4.108   4.255   4.734
22815WAT     H268688   3.996   4.144   4.692
22816WAT      O68689   4.967   9.315   5.583
22816WAT     H168690   5.005   9.271   5.502
22816WAT     H268691   5.003   9.270   5.665
22817WAT      O68692   3.518   8.151   1.103
22817WAT     H168693   3.508   8.248   1.126
22817WAT     H268694   3.568   8.104   1.176
22818WAT      O68695   1.127   2.767   7.482
22818WAT     H168696   1.093   2.861   7.471
22818WAT     H268697   1.076   2.721   7.554
22819WAT      O68698   3.235   9.084   1.928
22819WAT     H168699   3.292   9.037   1.996
22819WAT     H268700   3.263   9.179   1.920
22820WAT      O68701   4.513   1.693   6.269
22820WAT     H168702   4.587   1.634   6.235
22820WAT     H268703   4.486   1.662   6.360
22821WAT      O68704   3.310   2.000   5.938
22821WAT     H168705   3.384   2.065   5.920
22821WAT     H268706   3.222   2.049   5.938
22822WAT      O68707   2.504   8.684   6.738
22822WAT     H168708   2.523   8.592   6.773
22822WAT     H268709   2.430   8.725   6.791
22823WAT      O68710   3.990   8.881   9.699
22823WAT     H168711   4.076   8.875   9.648
22823WAT     H268712   3.980   8.973   9.738
22824WAT      O68713   4.035   8.543   6.630
22824WAT     H168714   4.019   8.601   6.550
22824WAT     H268715   3.997   8.452   6.613
22825WAT      O68716   9.342   5.000   4.812
22825WAT     H168717   9.390   4.962   4.733
22825WAT     H268718   9.286   4.929   4.854
22826WAT      O68719   8.574   7.741   4.148
22826WAT     H168720   8.640   7.688   4.095
22826WAT     H268721   8.483   7.729   4.108
22827WAT      O68722   9.012   4.355   0.724
22827WAT     H168723   9.041   4.351   0.819
22827WAT     H268724   9.090   4.380   0.666
22828WAT      O68725   6.575   6.313   2.116
22828WAT     H168726   6.542   6.350   2.029
22828WAT     H268727   6.598   6.217   2.105
22829WAT      O68728   1.751   6.313   6.810
22829WAT     H168729   1.788   6.221   6.803
22829WAT     H268730   1.823   6.379   6.788
22830WAT      O68731   5.116   0.480   7.834
22830WAT     H168732   5.175   0.404   7.859
22830WAT     H268733   5.165   0.541   7.772
22831WAT      O68734   0.042   2.107   7.594
22831WAT     H168735   0.128   2.138   7.634
22831WAT     H268736   0.056   2.082   7.498
22832WAT      O68737   3.749   8.355   4.580
22832WAT     H168738   3.729   8.307   4.494
22832WAT     H268739   3.821   8.306   4.629
22833WAT      O68740   1.334   4.263   5.359
22833WAT     H168741   1.327   4.199   5.283
22833WAT     H268742   1.393   4.224   5.430
22834WAT      O68743   2.142   7.963   1.918
22834WAT     H168744   2.129   7.923   1.828
22834WAT     H268745   2.107   7.901   1.988
22835WAT      O68746   6.317   6.802   4.599
22835WAT     H168747   6.284   6.761   4.683
22835WAT     H268748   6.240   6.816   4.536
22836WAT      O68749   7.132   3.733   0.220
22836WAT     H168750   7.207   3.734   0.285
22836WAT     H268751   7.062   3.798   0.248
22837WAT      O68752   5.226   2.722   8.882
22837WAT     H168753   5.154   2.760   8.825
22837WAT     H268754   5.291   2.671   8.826
22838WAT      O68755   8.968   5.453   5.009
22838WAT     H168756   8.943   5.499   4.923
22838WAT     H268757   8.994   5.359   4.989
22839WAT      O68758   8.709   2.796   8.016
22839WAT     H168759   8.692   2.764   7.923
22839WAT     H268760   8.807   2.790   8.036
22840WAT      O68761   2.828   7.205   5.043
22840WAT     H168762   2.830   7.296   5.084
22840WAT     H268763   2.895   7.199   4.969
22841WAT      O68764   0.439   8.814   7.269
22841WAT     H168765   0.525   8.762   7.273
22841WAT     H268766   0.382   8.777   7.195
22842WAT      O68767   7.740   8.758   6.985
22842WAT     H168768   7.784   8.683   7.034
22842WAT     H268769   7.739   8.737   6.887
22843WAT      O68770   4.745   3.608   7.272
22843WAT     H168771   4.830   3.562   7.298
22843WAT     H268772   4.768   3.691   7.221
22844WAT      O68773   9.539   6.572   1.109
22844WAT     H168774   9.532   6.655   1.164
22844WAT     H268775   9.471   6.506   1.140
22845WAT      O68776   1.614   7.715   2.717
22845WAT     H168777   1.568   7.716   2.629
22845WAT     H268778   1.584   7.793   2.772
22846WAT      O68779   1.419   8.970   7.226
22846WAT     H168780   1.406   8.936   7.132
22846WAT     H268781   1.372   9.058   7.236
22847WAT      O68782   8.087   8.975   3.413
22847WAT     H168783   8.153   9.044   3.384
22847WAT     H268784   8.078   8.906   3.340
22848WAT      O68785   4.591   8.632   7.991
22848WAT     H168786   4.616   8.705   8.055
22848WAT     H268787   4.530   8.670   7.921
22849WAT      O68788   8.489   0.373   3.290
22849WAT     H168789   8.561   0.440   3.272
22849WAT     H268790   8.401   0.412   3.262
22850WAT      O68791   6.499   6.435   9.057
22850WAT     H168792   6.419   6.377   9.069
22850WAT     H268793   6.530   6.430   8.962
22851WAT      O68794   9.713   9.282   9.207
22851WAT     H168795   9.734   9.377   9.231
22851WAT     H268796   9.749   9.262   9.116
22852WAT      O68797   8.376   3.414   3.121
22852WAT     H168798   8.361   3.449   3.029
22852WAT     H268799   8.345   3.318   3.126
22853WAT      O68800   6.214   7.124   3.991
22853WAT     H168801   6.185   7.193   3.924
22853WAT     H268802   6.152   7.046   3.988
22854WAT      O68803   7.030   1.732   1.955
22854WAT     H168804   7.006   1.696   2.045
22854WAT     H268805   7.130   1.733   1.944
22855WAT      O68806   1.612   4.386   3.159
22855WAT     H168807   1.540   4.331   3.116
22855WAT     H268808   1.603   4.382   3.258
22856WAT      O68809   2.713   3.431   1.272
22856WAT     H168810   2.802   3.453   1.234
22856WAT     H268811   2.643   3.487   1.228
22857WAT      O68812   6.194   6.256   0.229
22857WAT     H168813   6.293   6.244   0.225
22857WAT     H268814   6.151   6.171   0.258
22858WAT      O68815   2.141   6.050   2.336
22858WAT     H168816   2.121   6.147   2.319
22858WAT     H268817   2.219   6.022   2.279
22859WAT      O68818   3.720   1.361   3.705
22859WAT     H168819   3.635   1.354   3.653
22859WAT     H268820   3.739   1.273   3.749
22860WAT      O68821   6.562   6.907   3.764
22860WAT     H168822   6.607   6.836   3.816
22860WAT     H268823   6.531   6.980   3.825
22861WAT      O68824   6.967   8.932   6.820
22861WAT     H168825   7.048   8.893   6.864
22861WAT     H268826   6.956   8.891   6.729
22862WAT      O68827   1.181   5.297   6.815
22862WAT     H168828   1.151   5.202   6.822
22862WAT     H268829   1.233   5.310   6.731
22863WAT      O68830   8.120   0.866   2.263
22863WAT     H168831   8.166   0.779   2.245
22863WAT     H268832   8.078   0.900   2.178
22864WAT      O68833   1.312   7.095   4.058
22864WAT     H168834   1.405   7.099   4.094
22864WAT     H268835   1.302   7.162   3.984
22865WAT      O68836   7.680   1.742   6.376
22865WAT     H168837   7.637   1.792   6.451
22865WAT     H268838   7.709   1.652   6.407
22866WAT      O68839   7.891   9.299   8.676
22866WAT     H168840   7.854   9.230   8.614
22866WAT     H268841   7.925   9.377   8.623
22867WAT      O68842   2.960   2.664   1.081
22867WAT     H168843   2.993   2.642   0.989
22867WAT     H268844   2.892   2.737   1.076
22868WAT      O68845   3.927   6.342   6.371
22868WAT     H168846   3.984   6.422   6.389
22868WAT     H268847   3.985   6.261   6.361
22869WAT      O68848   2.268   7.781   3.305
22869WAT     H168849   2.252   7.843   3.382
22869WAT     H268850   2.207   7.702   3.314
22870WAT      O68851   3.849   7.103   7.210
22870WAT     H168852   3.902   7.180   7.245
22870WAT     H268853   3.903   7.054   7.142
22871WAT      O68854   5.337   1.686   8.478
22871WAT     H168855   5.261   1.751   8.486
22871WAT     H268856   5.328   1.635   8.393
22872WAT      O68857   7.155   3.080   8.777
22872WAT     H168858   7.089   3.119   8.841
22872WAT     H268859   7.120   2.994   8.740
22873WAT      O68860   3.450   0.569   4.828
22873WAT     H168861   3.448   0.469   4.839
22873WAT     H268862   3.541   0.603   4.850
22874WAT      O68863   7.042   6.755   6.850
22874WAT     H168864   6.970   6.820   6.827
22874WAT     H268865   7.008   6.661   6.839
22875WAT      O68866   3.198   7.900   1.220
22875WAT     H168867   3.219   7.989   1.180
22875WAT     H268868   3.194   7.909   1.320
22876WAT      O68869   2.229   8.224   5.748
22876WAT     H168870   2.165   8.300   5.746
22876WAT     H268871   2.196   8.154   5.812
22877WAT      O68872   5.984   1.736   1.265
22877WAT     H168873   5.954   1.667   1.331
22877WAT     H268874   6.047   1.800   1.310
22878WAT      O68875   7.884   4.865   1.837
22878WAT     H168876   7.938   4.802   1.781
22878WAT     H268877   7.926   4.872   1.928
22879WAT      O68878   8.449   1.016   1.053
22879WAT     H168879   8.528   0.988   1.000
22879WAT     H268880   8.391   1.075   0.998
22880WAT      O68881   4.352   4.422   6.319
22880WAT     H168882   4.280   4.375   6.268
22880WAT     H268883   4.432   4.362   6.326
22881WAT      O68884   3.126   8.503   7.460
22881WAT     H168885   3.033   8.492   7.495
22881WAT     H268886   3.125   8.498   7.360
22882WAT      O68887   8.448   1.186   0.189
22882WAT     H168888   8.524   1.249   0.178
22882WAT     H268889   8.395   1.211   0.269
22883WAT      O68890   0.708   9.732   2.563
22883WAT     H168891   0.760   9.801   2.513
22883WAT     H268892   0.611   9.756   2.562
22884WAT      O68893   3.077   2.301   0.786
22884WAT     H168894   3.130   2.253   0.717
22884WAT     H268895   3.058   2.239   0.863
22885WAT      O68896   9.424   4.903   1.860
22885WAT     H168897   9.408   4.886   1.763
22885WAT     H268898   9.407   4.819   1.911
22886WAT      O68899   3.571   7.636   8.591
22886WAT     H168900   3.489   7.592   8.555
22886WAT     H268901   3.586   7.608   8.685
22887WAT      O68902   1.640   2.813   1.660
22887WAT     H168903   1.725   2.769   1.632
22887WAT     H268904   1.563   2.754   1.638
22888WAT      O68905   7.024   2.134   8.466
22888WAT     H168906   7.007   2.053   8.522
22888WAT     H268907   7.027   2.108   8.369
22889WAT      O68908   3.649   1.156   0.653
22889WAT     H168909   3.653   1.098   0.735
22889WAT     H268910   3.589   1.113   0.585
22890WAT      O68911   9.489   4.670   1.659
22890WAT     H168912   9.428   4.726   1.603
22890WAT     H268913   9.584   4.691   1.634
22891WAT      O68914   7.013   2.232   8.845
22891WAT     H168915   6.998   2.314   8.790
22891WAT     H268916   6.927   2.181   8.853
22892WAT      O68917   7.372   7.543   5.486
22892WAT     H168918   7.441   7.480   5.451
22892WAT     H268919   7.380   7.631   5.440
22893WAT      O68920   7.421   7.057   6.282
22893WAT     H168921   7.377   7.147   6.289
22893WAT     H268922   7.407   7.020   6.190
22894WAT      O68923   2.116   3.404   0.604
22894WAT     H168924   2.134   3.495   0.640
22894WAT     H268925   2.035   3.365   0.647
22895WAT      O68926   3.670   8.347   2.189
22895WAT     H168927   3.607   8.406   2.139
22895WAT     H268928   3.623   8.263   2.215
22896WAT      O68929   0.756   1.242   8.220
22896WAT     H168930   0.750   1.145   8.245
22896WAT     H268931   0.702   1.296   8.283
22897WAT      O68932   0.449   6.659   8.982
22897WAT     H168933   0.479   6.647   9.077
22897WAT     H268934   0.528   6.676   8.923
22898WAT      O68935   8.155   0.777   8.933
22898WAT     H168936   8.059   0.788   8.959
22898WAT     H268937   8.203   0.725   9.004
22899WAT      O68938   4.971   5.156   9.585
22899WAT     H168939   5.019   5.072   9.557
22899WAT     H268940   4.928   5.198   9.506
22900WAT      O68941   8.288   9.657   6.502
22900WAT     H168942   8.203   9.614   6.533
22900WAT     H268943   8.366   9.615   6.548
22901WAT      O68944   1.992   4.135   2.413
22901WAT     H168945   2.059   4.188   2.360
22901WAT     H268946   2.032   4.047   2.439
22902WAT      O68947   3.887   4.653   4.534
22902WAT     H168948   3.938   4.738   4.526
22902WAT     H268949   3.920   4.600   4.612
22903WAT      O68950   4.765   0.092   3.636
22903WAT     H168951   4.787   0.028   3.709
22903WAT     H268952   4.727   0.042   3.558
22904WAT      O68953   4.469   7.522   7.004
22904WAT     H168954   4.502   7.615   6.992
22904WAT     H268955   4.474   7.497   7.100
22905WAT      O68956   5.137   5.028   6.727
22905WAT     H168957   5.052   5.069   6.693
22905WAT     H268958   5.210   5.041   6.659
22906WAT      O68959   3.853   0.988   9.123
22906WAT     H168960   3.845   0.889   9.112
22906WAT     H268961   3.763   1.030   9.114
22907WAT      O68962   4.347   4.483   8.871
22907WAT     H168963   4.389   4.486   8.961
22907WAT     H268964   4.416   4.461   8.802
22908WAT      O68965   6.125   6.833   9.223
22908WAT     H168966   6.026   6.831   9.236
22908WAT     H268967   6.159   6.925   9.243
22909WAT      O68968   5.842   6.064   7.021
22909WAT     H168969   5.914   6.107   6.966
22909WAT     H268970   5.843   5.965   7.005
22910WAT      O68971   8.250   7.918   1.407
22910WAT     H168972   8.205   7.916   1.496
22910WAT     H268973   8.326   7.984   1.409
22911WAT      O68974   6.647   0.523   2.307
22911WAT     H168975   6.700   0.552   2.227
22911WAT     H268976   6.697   0.543   2.390
22912WAT      O68977   5.763   2.490   8.992
22912WAT     H168978   5.808   2.511   9.079
22912WAT     H268979   5.725   2.574   8.952
22913WAT      O68980   2.620   1.037   3.312
22913WAT     H168981   2.586   1.129   3.332
22913WAT     H268982   2.583   1.007   3.224
22914WAT      O68983   4.346   9.485   0.066
22914WAT     H168984   4.414   9.473   0.138
22914WAT     H268985   4.378   9.553  -0.000
22915WAT      O68986   7.534   4.660   7.985
22915WAT     H168987   7.588   4.675   7.903
22915WAT     H268988   7.457   4.600   7.964
22916WAT      O68989   8.217   3.575   1.055
22916WAT     H168990   8.255   3.581   0.962
22916WAT     H268991   8.222   3.664   1.099
22917WAT      O68992   2.181   8.610   1.583
22917WAT     H168993   2.195   8.698   1.538
22917WAT     H268994   2.124   8.551   1.525
22918WAT      O68995   5.146   6.010   4.582
22918WAT     H168996   5.239   5.977   4.593
22918WAT     H268997   5.122   6.069   4.659
22919WAT      O68998   2.540   6.131   0.689
22919WAT     H168999   2.461   6.175   0.733
22919WAT     H269000   2.579   6.193   0.621
22920WAT      O69001   4.570   0.132   7.036
22920WAT     H169002   4.620   0.163   6.954
22920WAT     H269003   4.557   0.033   7.031
22921WAT      O69004   0.363   4.621   2.261
22921WAT     H169005   0.287   4.659   2.209
22921WAT     H269006   0.347   4.523   2.276
22922WAT      O69007   9.512   1.115   1.559
22922WAT     H169008   9.434   1.158   1.514
22922WAT     H269009   9.576   1.186   1.589
22923WAT      O69010   5.978   3.590   0.755
22923WAT     H169011   5.998   3.575   0.851
22923WAT     H269012   5.984   3.503   0.705
22924WAT      O69013   4.672   3.059   7.773
22924WAT     H169014   4.594   3.109   7.809
22924WAT     H269015   4.743   3.050   7.843
22925WAT      O69016   8.921   4.216   0.223
22925WAT     H169017   8.930   4.116   0.221
22925WAT     H269018   8.842   4.241   0.279
22926WAT      O69019   7.624   1.340   8.743
22926WAT     H169020   7.688   1.318   8.817
22926WAT     H269021   7.579   1.427   8.763
22927WAT      O69022   8.144   4.100   5.783
22927WAT     H169023   8.183   4.149   5.860
22927WAT     H269024   8.198   4.119   5.701
22928WAT      O69025   4.417   0.650   7.799
22928WAT     H169026   4.431   0.713   7.876
22928WAT     H269027   4.506   0.624   7.762
22929WAT      O69028   1.366   8.238   8.885
22929WAT     H169029   1.365   8.148   8.843
22929WAT     H269030   1.456   8.256   8.924
22930WAT      O69031   5.632   6.311   0.323
22930WAT     H169032   5.585   6.240   0.376
22930WAT     H269033   5.724   6.325   0.361
22931WAT      O69034   7.706   5.966   6.960
22931WAT     H169035   7.788   5.934   6.913
22931WAT     H269036   7.716   6.063   6.984
22932WAT      O69037   6.713   8.885   7.717
22932WAT     H169038   6.803   8.919   7.744
22932WAT     H269039   6.701   8.792   7.750
22933WAT      O69040   5.629   8.731   1.728
22933WAT     H169041   5.531   8.716   1.735
22933WAT     H269042   5.660   8.707   1.635
22934WAT      O69043   3.059   4.930   7.442
22934WAT     H169044   3.157   4.934   7.462
22934WAT     H269045   3.043   4.962   7.348
22935WAT      O69046   6.138   5.522   0.895
22935WAT     H169047   6.081   5.485   0.821
22935WAT     H269048   6.198   5.450   0.930
22936WAT      O69049   9.262   6.671   8.268
22936WAT     H169050   9.343   6.729   8.265
22936WAT     H269051   9.193   6.714   8.327
22937WAT      O69052   2.680   8.480   6.320
22937WAT     H169053   2.680   8.532   6.235
22937WAT     H269054   2.610   8.409   6.316
22938WAT      O69055   7.717   2.782   2.246
22938WAT     H169056   7.650   2.800   2.318
22938WAT     H269057   7.686   2.704   2.191
22939WAT      O69058   8.282   8.979   2.248
22939WAT     H169059   8.235   9.044   2.188
22939WAT     H269060   8.215   8.916   2.287
22940WAT      O69061   6.720   6.640   5.361
22940WAT     H169062   6.648   6.580   5.326
22940WAT     H269063   6.722   6.636   5.460
22941WAT      O69064   4.262   0.323   7.958
22941WAT     H169065   4.212   0.403   7.925
22941WAT     H269066   4.338   0.351   8.016
22942WAT      O69067   5.187   0.039   0.495
22942WAT     H169068   5.182   0.137   0.515
22942WAT     H269069   5.113   0.014   0.433
22943WAT      O69070   6.733   0.999   2.156
22943WAT     H169071   6.656   1.043   2.109
22943WAT     H269072   6.721   1.007   2.255
22944WAT      O69073   3.854   0.392   3.680
22944WAT     H169074   3.763   0.431   3.689
22944WAT     H269075   3.920   0.465   3.662
22945WAT      O69076   5.296   9.576   0.766
22945WAT     H169077   5.272   9.578   0.864
22945WAT     H269078   5.389   9.542   0.755
22946WAT      O69079   1.115   6.673   3.512
22946WAT     H169080   1.024   6.703   3.540
22946WAT     H269081   1.173   6.753   3.494
22947WAT      O69082   9.152   3.077   0.882
22947WAT     H169083   9.217   3.152   0.874
22947WAT     H269084   9.103   3.084   0.969
22948WAT      O69085   1.477   6.611   4.661
22948WAT     H169086   1.463   6.680   4.590
22948WAT     H269087   1.409   6.623   4.733
22949WAT      O69088   0.634   0.957   8.278
22949WAT     H169089   0.549   0.995   8.313
22949WAT     H269090   0.689   0.924   8.355
22950WAT      O69091   5.096   2.818   9.633
22950WAT     H169092   5.135   2.854   9.548
22950WAT     H269093   5.087   2.893   9.699
22951WAT      O69094   7.071   9.460   2.704
22951WAT     H169095   7.153   9.463   2.647
22951WAT     H269096   7.019   9.545   2.693
22952WAT      O69097   2.984   3.322   6.877
22952WAT     H169098   3.080   3.347   6.865
22952WAT     H269099   2.935   3.340   6.792
22953WAT      O69100   0.451   9.665   3.370
22953WAT     H169101   0.357   9.690   3.393
22953WAT     H269102   0.488   9.730   3.303
22954WAT      O69103   4.289   6.689   9.300
22954WAT     H169104   4.320   6.612   9.244
22954WAT     H269105   4.287   6.772   9.244
22955WAT      O69106   6.577   9.391   3.210
22955WAT     H169107   6.495   9.396   3.267
22955WAT     H269108   6.588   9.298   3.175
22956WAT      O69109   2.014   6.321   5.960
22956WAT     H169110   2.038   6.384   5.886
22956WAT     H269111   2.006   6.371   6.046
22957WAT      O69112   8.938   9.830   0.844
22957WAT     H169113   8.894   9.919   0.829
22957WAT     H269114   9.021   9.843   0.897
22958WAT      O69115   0.901   1.496   1.148
22958WAT     H169116   0.909   1.582   1.097
22958WAT     H269117   0.814   1.452   1.125
22959WAT      O69118   0.223   5.932   8.809
22959WAT     H169119   0.163   5.892   8.878
22959WAT     H269120   0.315   5.944   8.847
22960WAT      O69121   1.071   9.652   3.259
22960WAT     H169122   1.131   9.720   3.217
22960WAT     H269123   1.054   9.578   3.194
22961WAT      O69124   3.753   7.025   2.956
22961WAT     H169125   3.716   7.093   2.893
22961WAT     H269126   3.847   7.003   2.930
22962WAT      O69127   5.988   8.682   4.694
22962WAT     H169128   6.048   8.760   4.676
22962WAT     H269129   6.033   8.597   4.664
22963WAT      O69130   8.004   9.524   9.691
22963WAT     H169131   7.987   9.461   9.767
22963WAT     H269132   8.081   9.491   9.637
22964WAT      O69133   0.843   7.786   4.198
22964WAT     H169134   0.754   7.777   4.153
22964WAT     H269135   0.910   7.731   4.149
22965WAT      O69136   5.615   5.317   9.677
22965WAT     H169137   5.657   5.246   9.621
22965WAT     H269138   5.632   5.407   9.636
22966WAT      O69139   2.455   0.441   7.078
22966WAT     H169140   2.462   0.527   7.029
22966WAT     H269141   2.406   0.374   7.022
22967WAT      O69142   6.347   4.882   7.139
22967WAT     H169143   6.258   4.857   7.178
22967WAT     H269144   6.416   4.882   7.212
22968WAT      O69145   5.793   8.638   9.166
22968WAT     H169146   5.695   8.619   9.166
22968WAT     H269147   5.809   8.727   9.210
22969WAT      O69148   0.149   5.469   6.789
22969WAT     H169149   0.163   5.432   6.881
22969WAT     H269150   0.235   5.465   6.738
22970WAT      O69151   7.164   4.028   3.742
22970WAT     H169152   7.196   4.116   3.706
22970WAT     H269153   7.236   3.960   3.734
22971WAT      O69154   5.601   9.453   2.350
22971WAT     H169155   5.608   9.360   2.386
22971WAT     H269156   5.598   9.450   2.250
22972WAT      O69157   7.659   8.592   5.434
22972WAT     H169158   7.600   8.514   5.456
22972WAT     H269159   7.737   8.593   5.496
22973WAT      O69160   4.051   2.228   0.363
22973WAT     H169161   4.070   2.300   0.297
22973WAT     H269162   4.031   2.143   0.314
22974WAT      O69163   3.572   9.239   8.924
22974WAT     H169164   3.622   9.160   8.960
22974WAT     H269165   3.518   9.211   8.845
22975WAT      O69166   0.761   2.988   2.621
22975WAT     H169167   0.705   3.071   2.630
22975WAT     H269168   0.737   2.941   2.536
22976WAT      O69169   5.260   7.325   9.796
22976WAT     H169170   5.311   7.262   9.854
22976WAT     H269171   5.311   7.341   9.712
22977WAT      O69172   2.393   7.405   9.261
22977WAT     H169173   2.371   7.461   9.341
22977WAT     H269174   2.448   7.327   9.291
22978WAT      O69175   0.717   1.950   8.321
22978WAT     H169176   0.618   1.944   8.336
22978WAT     H269177   0.765   1.904   8.396
22979WAT      O69178   8.233   4.365   2.559
22979WAT     H169179   8.171   4.310   2.504
22979WAT     H269180   8.238   4.328   2.652
22980WAT      O69181   6.779   8.518   4.073
22980WAT     H169182   6.809   8.600   4.121
22980WAT     H269183   6.833   8.506   3.990
22981WAT      O69184   2.043   0.969   4.331
22981WAT     H169185   1.984   1.023   4.271
22981WAT     H269186   2.041   0.873   4.302
22982WAT      O69187   3.061   7.826   2.442
22982WAT     H169188   3.028   7.806   2.534
22982WAT     H269189   3.034   7.753   2.380
22983WAT      O69190   0.767   8.607   1.028
22983WAT     H169191   0.711   8.599   0.945
22983WAT     H269192   0.708   8.599   1.108
22984WAT      O69193   5.744   9.686   0.668
22984WAT     H169194   5.700   9.775   0.680
22984WAT     H269195   5.677   9.614   0.684
22985WAT      O69196   5.438   1.745   2.854
22985WAT     H169197   5.413   1.779   2.763
22985WAT     H269198   5.461   1.648   2.848
22986WAT      O69199   3.541   2.199   0.753
22986WAT     H169200   3.601   2.261   0.702
22986WAT     H269201   3.485   2.251   0.817
22987WAT      O69202   4.104   4.119   0.444
22987WAT     H169203   4.037   4.192   0.458
22987WAT     H269204   4.144   4.128   0.352
22988WAT      O69205   6.332   3.866   3.031
22988WAT     H169206   6.405   3.849   3.097
22988WAT     H269207   6.251   3.812   3.056
22989WAT      O69208   4.035   2.694   2.964
22989WAT     H169209   4.117   2.684   2.907
22989WAT     H269210   4.026   2.615   3.023
22990WAT      O69211   4.487   2.649   0.736
22990WAT     H169212   4.575   2.611   0.708
22990WAT     H269213   4.497   2.697   0.824
22991WAT      O69214   2.708   0.932   3.639
22991WAT     H169215   2.756   0.851   3.672
22991WAT     H269216   2.769   0.985   3.581
22992WAT      O69217   4.164   8.866   3.201
22992WAT     H169218   4.204   8.902   3.286
22992WAT     H269219   4.065   8.855   3.212
22993WAT      O69220   9.098   9.330   5.242
22993WAT     H169221   9.100   9.428   5.262
22993WAT     H269222   9.185   9.303   5.200
22994WAT      O69223   5.498   7.795   2.017
22994WAT     H169224   5.555   7.755   2.089
22994WAT     H269225   5.404   7.760   2.025
22995WAT      O69226   2.652   9.747   1.703
22995WAT     H169227   2.732   9.778   1.754
22995WAT     H269228   2.670   9.756   1.605
22996WAT      O69229   2.494   9.626   3.547
22996WAT     H169230   2.475   9.701   3.611
22996WAT     H269231   2.591   9.625   3.523
22997WAT      O69232   9.141   1.297   1.934
22997WAT     H169233   9.233   1.322   1.965
22997WAT     H269234   9.087   1.380   1.919
22998WAT      O69235   8.716   4.005   1.406
22998WAT     H169236   8.721   3.936   1.477
22998WAT     H269237   8.685   3.963   1.320
22999WAT      O69238   8.408   0.413   8.827
22999WAT     H169239   8.387   0.374   8.916
22999WAT     H269240   8.328   0.461   8.791
23000WAT      O69241   6.492   3.011   7.187
23000WAT     H169242   6.490   2.938   7.256
23000WAT     H269243   6.405   3.013   7.138
23001WAT      O69244   0.435   9.080   6.304
23001WAT     H169245   0.383   9.020   6.364
23001WAT     H269246   0.503   9.026   6.254
23002WAT      O69247   9.256   6.416   0.340
23002WAT     H169248   9.334   6.360   0.369
23002WAT     H269249   9.211   6.454   0.420
23003WAT      O69250   8.345   6.637   9.784
23003WAT     H169251   8.369   6.728   9.751
23003WAT     H269252   8.291   6.590   9.714
23004WAT      O69253   3.450   3.931   9.475
23004WAT     H169254   3.532   3.874   9.466
23004WAT     H269255   3.471   4.012   9.529
23005WAT      O69256   3.834   2.041   6.273
23005WAT     H169257   3.888   2.057   6.356
23005WAT     H269258   3.748   2.092   6.278
23006WAT      O69259   8.892   6.173   7.762
23006WAT     H169260   8.967   6.232   7.733
23006WAT     H269261   8.813   6.229   7.788
23007WAT      O69262   6.085   9.508   1.237
23007WAT     H169263   6.130   9.503   1.325
23007WAT     H269264   6.099   9.599   1.198
23008WAT      O69265   6.345   1.862   6.118
23008WAT     H169266   6.404   1.783   6.134
23008WAT     H269267   6.291   1.880   6.200
23009WAT      O69268   9.563   0.600   1.996
23009WAT     H169269   9.594   0.522   1.942
23009WAT     H269270   9.611   0.601   2.084
23010WAT      O69271   5.141   9.039   6.430
23010WAT     H169272   5.199   9.065   6.506
23010WAT     H269273   5.094   8.953   6.451
23011WAT      O69274   5.603   4.418   3.760
23011WAT     H169275   5.512   4.423   3.718
23011WAT     H269276   5.608   4.483   3.835
23012WAT      O69277   5.593   5.166   3.401
23012WAT     H169278   5.531   5.182   3.478
23012WAT     H269279   5.539   5.147   3.319
23013WAT      O69280   6.965   6.123   3.088
23013WAT     H169281   7.023   6.156   3.014
23013WAT     H269282   6.924   6.200   3.136
23014WAT      O69283   8.808   4.380   3.478
23014WAT     H169284   8.880   4.394   3.547
23014WAT     H269285   8.845   4.403   3.387
23015WAT      O69286   6.430   7.715   4.800
23015WAT     H169287   6.487   7.678   4.873
23015WAT     H269288   6.445   7.663   4.716
23016WAT      O69289   0.965   5.393   7.601
23016WAT     H169290   0.913   5.458   7.545
23016WAT     H269291   0.905   5.355   7.672
23017WAT      O69292   2.591   6.399   5.989
23017WAT     H169293   2.503   6.352   5.999
23017WAT     H269294   2.629   6.418   6.079
23018WAT      O69295   6.581   6.795   4.517
23018WAT     H169296   6.540   6.828   4.432
23018WAT     H269297   6.509   6.758   4.577
23019WAT      O69298   5.913   1.265   7.161
23019WAT     H169299   5.913   1.321   7.078
23019WAT     H269300   5.989   1.201   7.158
23020WAT      O69301   6.079   8.870   5.081
23020WAT     H169302   6.162   8.823   5.052
23020WAT     H269303   6.003   8.845   5.020
23021WAT      O69304   2.880   6.364   3.424
23021WAT     H169305   2.911   6.326   3.337
23021WAT     H269306   2.941   6.334   3.498
23022WAT      O69307   9.124   9.598   8.485
23022WAT     H169308   9.185   9.577   8.408
23022WAT     H269309   9.178   9.638   8.559
23023WAT      O69310   4.828   9.792   3.846
23023WAT     H169311   4.915   9.757   3.881
23023WAT     H269312   4.753   9.740   3.885
23024WAT      O69313   8.308   5.767   4.406
23024WAT     H169314   8.221   5.797   4.369
23024WAT     H269315   8.343   5.836   4.470
23025WAT      O69316   7.660   3.519   5.448
23025WAT     H169317   7.649   3.568   5.534
23025WAT     H269318   7.750   3.475   5.445
23026WAT      O69319   3.728   3.301   5.831
23026WAT     H169320   3.725   3.347   5.920
23026WAT     H269321   3.823   3.294   5.801
23027WAT      O69322   0.483   0.737   8.539
23027WAT     H169323   0.441   0.819   8.578
23027WAT     H269324   0.421   0.696   8.472
23028WAT      O69325   6.907   4.955   6.964
23028WAT     H169326   6.917   4.919   7.057
23028WAT     H269327   6.878   4.881   6.903
23029WAT      O69328   9.289   2.453   7.883
23029WAT     H169329   9.363   2.439   7.818
23029WAT     H269330   9.319   2.516   7.955
23030WAT      O69331   4.529   6.497   0.806
23030WAT     H169332   4.463   6.486   0.881
23030WAT     H269333   4.530   6.414   0.751
23031WAT      O69334   8.272   2.935   1.440
23031WAT     H169335   8.274   3.033   1.459
23031WAT     H269336   8.345   2.912   1.376
23032WAT      O69337   5.888   0.739   9.229
23032WAT     H169338   5.860   0.686   9.309
23032WAT     H269339   5.875   0.836   9.247
23033WAT      O69340   1.755   5.787   4.529
23033WAT     H169341   1.677   5.799   4.590
23033WAT     H269342   1.812   5.711   4.562
23034WAT      O69343   2.974   2.290   0.367
23034WAT     H169344   3.029   2.221   0.321
23034WAT     H269345   3.030   2.340   0.432
23035WAT      O69346   4.980   9.008   1.585
23035WAT     H169347   4.964   9.100   1.621
23035WAT     H269348   5.046   9.013   1.510
23036WAT      O69349   4.059   3.907   9.041
23036WAT     H169350   4.069   3.818   8.998
23036WAT     H269351   4.047   3.977   8.971
23037WAT      O69352   4.068   1.553   4.200
23037WAT     H169353   4.045   1.560   4.103
23037WAT     H269354   3.990   1.581   4.255
23038WAT      O69355   1.892   4.741   1.303
23038WAT     H169356   1.944   4.825   1.324
23038WAT     H269357   1.864   4.697   1.388
23039WAT      O69358   8.495   7.485   0.660
23039WAT     H169359   8.440   7.414   0.705
23039WAT     H269360   8.470   7.575   0.698
23040WAT      O69361   1.437   2.123   0.758
23040WAT     H169362   1.421   2.204   0.702
23040WAT     H269363   1.398   2.138   0.849
23041WAT      O69364   6.937   9.754   2.970
23041WAT     H169365   6.864   9.816   2.941
23041WAT     H269366   7.026   9.795   2.951
23042WAT      O69367   7.971   2.206   7.351
23042WAT     H169368   8.037   2.156   7.408
23042WAT     H269369   8.017   2.238   7.268
23043WAT      O69370   2.794   1.851   1.162
23043WAT     H169371   2.700   1.881   1.175
23043WAT     H269372   2.855   1.903   1.222
23044WAT      O69373   7.031   8.445   0.335
23044WAT     H169374   7.086   8.461   0.417
23044WAT     H269375   7.085   8.468   0.254
23045WAT      O69376   2.653   2.788   5.134
23045WAT     H169377   2.666   2.789   5.035
23045WAT     H269378   2.575   2.730   5.157
23046WAT      O69379   5.630   7.758   2.253
23046WAT     H169380   5.635   7.756   2.352
23046WAT     H269381   5.699   7.696   2.215
23047WAT      O69382   9.197   4.669   0.451
23047WAT     H169383   9.284   4.622   0.445
23047WAT     H269384   9.124   4.609   0.419
23048WAT      O69385   6.912   3.618   4.174
23048WAT     H169386   6.965   3.666   4.243
23048WAT     H269387   6.908   3.673   4.090
23049WAT      O69388   4.528   8.470   4.904
23049WAT     H169389   4.469   8.492   4.982
23049WAT     H269390   4.496   8.386   4.861
23050WAT      O69391   9.835   4.218   7.350
23050WAT     H169392   9.769   4.287   7.379
23050WAT     H269393   9.926   4.259   7.345
23051WAT      O69394   1.004   9.584   0.007
23051WAT     H169395   0.944   9.660  -0.014
23051WAT     H269396   0.955   9.516   0.062
23052WAT      O69397   6.546   9.491   8.487
23052WAT     H169398   6.535   9.590   8.493
23052WAT     H269399   6.458   9.449   8.464
23053WAT      O69400   2.572   1.862   1.770
23053WAT     H169401   2.559   1.764   1.784
23053WAT     H269402   2.519   1.892   1.690
23054WAT      O69403   2.244   2.882   4.215
23054WAT     H169404   2.212   2.967   4.258
23054WAT     H269405   2.225   2.805   4.276
23055WAT      O69406   1.752   2.263   0.557
23055WAT     H169407   1.771   2.279   0.460
23055WAT     H269408   1.661   2.296   0.580
23056WAT      O69409   2.331   2.242   2.518
23056WAT     H169410   2.413   2.282   2.559
23056WAT     H269411   2.352   2.212   2.425
23057WAT      O69412   0.023   0.962   9.223
23057WAT     H169413  -0.072   0.990   9.236
23057WAT     H269414   0.026   0.864   9.203
23058WAT      O69415   1.598   3.093   3.428
23058WAT     H169416   1.572   3.001   3.457
23058WAT     H269417   1.523   3.156   3.445
23059WAT      O69418   4.522   0.477   8.740
23059WAT     H169419   4.462   0.400   8.762
23059WAT     H269420   4.486   0.527   8.662
23060WAT      O69421   9.337   5.471   8.265
23060WAT     H169422   9.305   5.439   8.176
23060WAT     H269423   9.297   5.415   8.337
23061WAT      O69424   8.426   1.606   5.401
23061WAT     H169425   8.343   1.652   5.370
23061WAT     H269426   8.499   1.674   5.411
23062WAT      O69427   6.392   5.848   5.219
23062WAT     H169428   6.377   5.818   5.314
23062WAT     H269429   6.395   5.948   5.217
23063WAT      O69430   1.112   4.069   0.072
23063WAT     H169431   1.037   4.100   0.129
23063WAT     H269432   1.188   4.134   0.079
23064WAT      O69433   8.835   2.526   9.366
23064WAT     H169434   8.849   2.588   9.289
23064WAT     H269435   8.744   2.543   9.405
23065WAT      O69436   7.394   5.475   5.370
23065WAT     H169437   7.476   5.519   5.406
23065WAT     H269438   7.387   5.383   5.407
23066WAT      O69439   1.438   1.718   1.281
23066WAT     H169440   1.521   1.710   1.336
23066WAT     H269441   1.381   1.791   1.318
23067WAT      O69442   2.042   3.276   5.802
23067WAT     H169443   2.036   3.374   5.786
23067WAT     H269444   1.985   3.251   5.881
23068WAT      O69445   3.256   9.719   0.816
23068WAT     H169446   3.210   9.807   0.810
23068WAT     H269447   3.344   9.724   0.769
23069WAT      O69448   1.800   2.932   4.687
23069WAT     H169449   1.849   2.921   4.774
23069WAT     H269450   1.717   2.877   4.689
23070WAT      O69451   7.939   9.543   0.454
23070WAT     H169452   7.853   9.559   0.406
23070WAT     H269453   7.981   9.631   0.477
23071WAT      O69454   1.110   3.329   7.808
23071WAT     H169455   1.125   3.309   7.905
23071WAT     H269456   1.196   3.358   7.766
23072WAT      O69457   7.007   7.207   9.556
23072WAT     H169458   7.061   7.194   9.639
23072WAT     H269459   7.057   7.265   9.492
23073WAT      O69460   5.781   7.212   4.291
23073WAT     H169461   5.790   7.114   4.306
23073WAT     H269462   5.801   7.233   4.195
23074WAT      O69463   9.079   9.792   2.933
23074WAT     H169464   8.994   9.810   2.885
23074WAT     H269465   9.124   9.712   2.893
23075WAT      O69466   8.796   6.138   4.413
23075WAT     H169467   8.892   6.123   4.390
23075WAT     H269468   8.774   6.235   4.405
23076WAT      O69469   6.948   1.585   9.731
23076WAT     H169470   6.890   1.506   9.712
23076WAT     H269471   6.894   1.669   9.726
23077WAT      O69472   2.886   1.321   5.874
23077WAT     H169473   2.888   1.290   5.779
23077WAT     H269474   2.957   1.274   5.926
23078WAT      O69475   3.601   8.434   1.880
23078WAT     H169476   3.656   8.449   1.798
23078WAT     H269477   3.519   8.382   1.856
23079WAT      O69478   6.847   9.314   7.125
23079WAT     H169479   6.823   9.271   7.213
23079WAT     H269480   6.790   9.394   7.111
23080WAT      O69481   6.238   2.795   5.581
23080WAT     H169482   6.165   2.799   5.649
23080WAT     H269483   6.215   2.728   5.510
23081WAT      O69484   2.147   0.555   3.377
23081WAT     H169485   2.232   0.557   3.429
23081WAT     H269486   2.167   0.533   3.281
23082WAT      O69487   7.507   0.008   6.039
23082WAT     H169488   7.487   0.058   6.124
23082WAT     H269489   7.585  -0.053   6.053
23083WAT      O69490   1.689   9.611   5.172
23083WAT     H169491   1.771   9.575   5.217
23083WAT     H269492   1.692   9.711   5.173
23084WAT      O69493   3.872   8.216   8.359
23084WAT     H169494   3.810   8.186   8.286
23084WAT     H269495   3.862   8.155   8.438
23085WAT      O69496   6.383   0.845   9.517
23085WAT     H169497   6.462   0.876   9.569
23085WAT     H269498   6.413   0.783   9.445
23086WAT      O69499   2.230   7.939   3.528
23086WAT     H169500   2.271   7.994   3.600
23086WAT     H269501   2.148   7.893   3.564
23087WAT      O69502   0.159   5.881   4.041
23087WAT     H169503   0.196   5.904   3.951
23087WAT     H269504   0.145   5.782   4.047
23088WAT      O69505   1.776   6.862   8.786
23088WAT     H169506   1.812   6.934   8.846
23088WAT     H269507   1.846   6.836   8.720
23089WAT      O69508   3.304   9.680   2.402
23089WAT     H169509   3.275   9.773   2.426
23089WAT     H269510   3.253   9.614   2.456
23090WAT      O69511   2.333   2.262   0.746
23090WAT     H169512   2.408   2.312   0.703
23090WAT     H269513   2.294   2.317   0.820
23091WAT      O69514   6.781   5.638   2.529
23091WAT     H169515   6.768   5.607   2.623
23091WAT     H269516   6.877   5.629   2.504
23092WAT      O69517   7.698   3.768   8.939
23092WAT     H169518   7.789   3.726   8.929
23092WAT     H269519   7.696   3.854   8.889
23093WAT      O69520   7.286   8.815   1.349
23093WAT     H169521   7.263   8.911   1.363
23093WAT     H269522   7.364   8.808   1.286
23094WAT      O69523   0.244   3.166   0.056
23094WAT     H169524   0.319   3.228   0.032
23094WAT     H269525   0.276   3.100   0.124
23095WAT      O69526   4.092   2.702   0.080
23095WAT     H169527   4.011   2.688   0.137
23095WAT     H269528   4.073   2.670  -0.013
23096WAT      O69529   8.447   1.153   1.680
23096WAT     H169530   8.377   1.197   1.624
23096WAT     H269531   8.416   1.150   1.775
23097WAT      O69532   3.022   8.969   4.454
23097WAT     H169533   3.089   8.916   4.506
23097WAT     H269534   3.067   9.044   4.407
23098WAT      O69535   7.306   1.944   4.071
23098WAT     H169536   7.340   2.001   4.146
23098WAT     H269537   7.362   1.960   3.989
23099WAT      O69538   0.880   7.063   3.176
23099WAT     H169539   0.888   7.088   3.080
23099WAT     H269540   0.802   7.111   3.216
23100WAT      O69541   1.650   3.440   9.356
23100WAT     H169542   1.670   3.404   9.265
23100WAT     H269543   1.723   3.503   9.384
23101WAT      O69544   6.670   8.613   7.958
23101WAT     H169545   6.732   8.561   7.899
23101WAT     H269546   6.609   8.550   8.006
23102WAT      O69547   8.088   7.507   8.243
23102WAT     H169548   8.187   7.508   8.246
23102WAT     H269549   8.052   7.479   8.332
23103WAT      O69550   3.708   2.844   8.153
23103WAT     H169551   3.759   2.782   8.213
23103WAT     H269552   3.658   2.911   8.209
23104WAT      O69553   0.752   9.555   8.547
23104WAT     H169554   0.695   9.479   8.517
23104WAT     H269555   0.741   9.568   8.646
23105WAT      O69556   9.699   6.309   4.202
23105WAT     H169557   9.663   6.262   4.122
23105WAT     H269558   9.624   6.324   4.267
23106WAT      O69559   8.703   6.795   7.984
23106WAT     H169560   8.679   6.776   8.079
23106WAT     H269561   8.765   6.874   7.981
23107WAT      O69562   7.307   6.689   8.673
23107WAT     H169563   7.306   6.604   8.620
23107WAT     H269564   7.402   6.719   8.685
23108WAT      O69565   5.175   1.325   7.852
23108WAT     H169566   5.243   1.392   7.881
23108WAT     H269567   5.084   1.366   7.859
23109WAT      O69568   7.338   2.027   0.532
23109WAT     H169569   7.333   1.928   0.517
23109WAT     H269570   7.433   2.053   0.551
23110WAT      O69571   1.958   7.576   7.133
23110WAT     H169572   1.958   7.676   7.138
23110WAT     H269573   1.887   7.540   7.194
23111WAT      O69574   5.941   0.192   0.121
23111WAT     H169575   5.872   0.120   0.126
23111WAT     H269576   6.029   0.155   0.151
23112WAT      O69577   3.035   4.694   6.620
23112WAT     H169578   3.098   4.619   6.600
23112WAT     H269579   3.001   4.685   6.713
23113WAT      O69580   2.581   9.334   4.913
23113WAT     H169581   2.628   9.320   4.826
23113WAT     H269582   2.484   9.349   4.896
23114WAT      O69583   0.255   8.449   4.683
23114WAT     H169584   0.274   8.547   4.681
23114WAT     H269585   0.163   8.432   4.646
23115WAT      O69586   6.337   3.503   5.339
23115WAT     H169587   6.392   3.507   5.423
23115WAT     H269588   6.297   3.592   5.320
23116WAT      O69589   3.195   8.830   7.264
23116WAT     H169590   3.172   8.827   7.167
23116WAT     H269591   3.293   8.812   7.275
23117WAT      O69592   2.622   4.580   7.138
23117WAT     H169593   2.696   4.647   7.149
23117WAT     H269594   2.595   4.546   7.228
23118WAT      O69595   8.970   3.376   3.652
23118WAT     H169596   8.972   3.355   3.555
23118WAT     H269597   9.064   3.380   3.687
23119WAT      O69598   1.773   0.493   6.746
23119WAT     H169599   1.760   0.397   6.722
23119WAT     H269600   1.683   0.535   6.763
23120WAT      O69601   6.546   5.908   4.963
23120WAT     H169602   6.521   5.880   5.055
23120WAT     H269603   6.645   5.923   4.958
23121WAT      O69604   8.672   9.686   4.951
23121WAT     H169605   8.592   9.712   5.006
23121WAT     H269606   8.703   9.595   4.978
23122WAT      O69607   0.240   1.771   0.971
23122WAT     H169608   0.280   1.682   0.950
23122WAT     H269609   0.246   1.830   0.891
23123WAT      O69610   1.371   6.749   5.035
23123WAT     H169611   1.325   6.816   5.092
23123WAT     H269612   1.420   6.683   5.092
23124WAT      O69613   2.975   1.521   7.777
23124WAT     H169614   3.031   1.444   7.807
23124WAT     H269615   3.034   1.593   7.739
23125WAT      O69616   6.583   8.308   1.975
23125WAT     H169617   6.554   8.219   2.010
23125WAT     H269618   6.504   8.369   1.967
23126WAT      O69619   6.466   6.658   5.240
23126WAT     H169620   6.427   6.625   5.326
23126WAT     H269621   6.470   6.582   5.175
23127WAT      O69622   0.802   0.276   4.309
23127WAT     H169623   0.736   0.323   4.368
23127WAT     H269624   0.806   0.323   4.220
23128WAT      O69625   3.909   4.014   0.138
23128WAT     H169626   3.912   3.977   0.045
23128WAT     H269627   3.968   4.095   0.143
23129WAT      O69628   3.990   5.954   9.383
23129WAT     H169629   4.029   5.886   9.445
23129WAT     H269630   3.892   5.964   9.402
23130WAT      O69631   4.880   5.411   3.340
23130WAT     H169632   4.785   5.445   3.342
23130WAT     H269633   4.930   5.451   3.417
23131WAT      O69634   4.944   5.303   0.975
23131WAT     H169635   4.942   5.389   0.924
23131WAT     H269636   4.946   5.323   1.073
23132WAT      O69637   1.093   7.615   2.540
23132WAT     H169638   1.060   7.522   2.552
23132WAT     H269639   1.126   7.650   2.628
23133WAT      O69640   5.840   5.991   2.733
23133WAT     H169641   5.802   6.000   2.825
23133WAT     H269642   5.847   5.894   2.709
23134WAT      O69643   7.837   4.014   6.168
23134WAT     H169644   7.930   3.983   6.189
23134WAT     H269645   7.840   4.108   6.134
23135WAT      O69646   3.126   2.033   8.633
23135WAT     H169647   3.027   2.029   8.615
23135WAT     H269648   3.142   2.022   8.731
23136WAT      O69649   7.927   3.458   3.659
23136WAT     H169650   7.920   3.401   3.578
23136WAT     H269651   7.863   3.534   3.653
23137WAT      O69652   5.204   5.802   1.223
23137WAT     H169653   5.168   5.880   1.172
23137WAT     H269654   5.277   5.833   1.284
23138WAT      O69655   4.335   9.576   4.808
23138WAT     H169656   4.269   9.552   4.879
23138WAT     H269657   4.300   9.549   4.719
23139WAT      O69658   0.623   7.632   6.272
23139WAT     H169659   0.630   7.535   6.246
23139WAT     H269660   0.666   7.688   6.201
23140WAT      O69661   6.764   3.999   9.079
23140WAT     H169662   6.831   3.926   9.064
23140WAT     H269663   6.672   3.961   9.081
23141WAT      O69664   1.417   6.885   9.601
23141WAT     H169665   1.374   6.836   9.676
23141WAT     H269666   1.457   6.819   9.537
23142WAT      O69667   3.292   3.019   6.497
23142WAT     H169668   3.204   2.973   6.479
23142WAT     H269669   3.288   3.113   6.464
23143WAT      O69670   9.644   3.884   8.779
23143WAT     H169671   9.587   3.829   8.840
23143WAT     H269672   9.629   3.981   8.798
23144WAT      O69673   7.129   5.569   8.207
23144WAT     H169674   7.086   5.568   8.117
23144WAT     H269675   7.059   5.558   8.278
23145WAT      O69676   2.281   0.206   5.694
23145WAT     H169677   2.371   0.231   5.659
23145WAT     H269678   2.221   0.286   5.693
23146WAT      O69679   5.385   6.018   3.038
23146WAT     H169680   5.309   6.080   3.060
23146WAT     H269681   5.357   5.955   2.966
23147WAT      O69682   9.314   0.990   2.243
23147WAT     H169683   9.242   0.983   2.311
23147WAT     H269684   9.336   0.899   2.208
23148WAT      O69685   4.841   4.282   8.692
23148WAT     H169686   4.902   4.305   8.616
23148WAT     H269687   4.884   4.213   8.750
23149WAT      O69688   3.650   5.659   8.891
23149WAT     H169689   3.625   5.674   8.795
23149WAT     H269690   3.749   5.669   8.902
23150WAT      O69691   5.888   8.736   3.741
23150WAT     H169692   5.858   8.808   3.678
23150WAT     H269693   5.906   8.652   3.690
23151WAT      O69694   2.537   4.722   4.055
23151WAT     H169695   2.599   4.672   4.116
23151WAT     H269696   2.445   4.684   4.061
23152WAT      O69697   0.720   2.522   9.069
23152WAT     H169698   0.711   2.606   9.016
23152WAT     H269699   0.630   2.496   9.106
23153WAT      O69700   8.596   1.915   6.958
23153WAT     H169701   8.645   1.830   6.937
23153WAT     H269702   8.596   1.929   7.057
23154WAT      O69703   8.269   6.536   8.246
23154WAT     H169704   8.178   6.500   8.266
23154WAT     H269705   8.263   6.604   8.173
23155WAT      O69706   5.404   0.324   8.486
23155WAT     H169707   5.376   0.374   8.404
23155WAT     H269708   5.388   0.382   8.567
23156WAT      O69709   6.366   6.552   6.930
23156WAT     H169710   6.374   6.585   6.837
23156WAT     H269711   6.337   6.626   6.990
23157WAT      O69712   0.669   6.628   2.979
23157WAT     H169713   0.574   6.617   3.009
23157WAT     H269714   0.676   6.607   2.881
23158WAT      O69715   9.403   7.271   9.419
23158WAT     H169716   9.321   7.224   9.387
23158WAT     H269717   9.377   7.342   9.485
23159WAT      O69718   5.884   3.758   2.884
23159WAT     H169719   5.792   3.783   2.916
23159WAT     H269720   5.947   3.758   2.961
23160WAT      O69721   0.332   0.145   7.555
23160WAT     H169722   0.295   0.125   7.645
23160WAT     H269723   0.290   0.227   7.518
23161WAT      O69724   9.113   2.290   9.298
23161WAT     H169725   9.104   2.340   9.384
23161WAT     H269726   9.066   2.202   9.306
23162WAT      O69727   9.359   6.897   2.486
23162WAT     H169728   9.282   6.855   2.533
23162WAT     H269729   9.328   6.940   2.402
23163WAT      O69730   7.063   1.857   5.348
23163WAT     H169731   7.019   1.944   5.326
23163WAT     H269732   7.088   1.855   5.444
23164WAT      O69733   3.263   9.055   5.892
23164WAT     H169734   3.260   9.155   5.890
23164WAT     H269735   3.169   9.020   5.895
23165WAT      O69736   8.479   5.292   3.518
23165WAT     H169737   8.483   5.263   3.423
23165WAT     H269738   8.517   5.221   3.577
23166WAT      O69739   0.312   6.880   8.237
23166WAT     H169740   0.228   6.901   8.285
23166WAT     H269741   0.373   6.959   8.239
23167WAT      O69742   8.921   6.548   5.569
23167WAT     H169743   9.006   6.539   5.517
23167WAT     H269744   8.846   6.506   5.517
23168WAT      O69745   3.312   1.995   7.850
23168WAT     H169746   3.248   1.920   7.866
23168WAT     H269747   3.337   2.036   7.938
23169WAT      O69748   4.508   5.573   1.385
23169WAT     H169749   4.446   5.579   1.307
23169WAT     H269750   4.595   5.616   1.361
23170WAT      O69751   2.686   6.049   3.541
23170WAT     H169752   2.742   6.010   3.468
23170WAT     H269753   2.638   6.130   3.507
23171WAT      O69754   3.493   3.386   1.342
23171WAT     H169755   3.454   3.477   1.359
23171WAT     H269756   3.446   3.343   1.265
23172WAT      O69757   6.733   4.656   3.950
23172WAT     H169758   6.724   4.664   4.049
23172WAT     H269759   6.684   4.731   3.906
23173WAT      O69760   5.557   0.819   5.156
23173WAT     H169761   5.582   0.753   5.227
23173WAT     H269762   5.574   0.780   5.066
23174WAT      O69763   6.294   1.545   6.839
23174WAT     H169764   6.293   1.495   6.753
23174WAT     H269765   6.298   1.644   6.821
23175WAT      O69766   0.125   9.435   5.209
23175WAT     H169767   0.109   9.337   5.197
23175WAT     H269768   0.062   9.472   5.277
23176WAT      O69769   5.079   8.500   1.487
23176WAT     H169770   5.118   8.412   1.510
23176WAT     H269771   5.152   8.564   1.463
23177WAT      O69772   9.766   9.514   4.064
23177WAT     H169773   9.668   9.530   4.054
23177WAT     H269774   9.805   9.488   3.975
23178WAT      O69775   4.993   1.021   9.445
23178WAT     H169776   5.001   1.120   9.447
23178WAT     H269777   4.902   0.995   9.413
23179WAT      O69778   0.242   4.100   6.132
23179WAT     H169779   0.196   4.146   6.056
23179WAT     H269780   0.335   4.076   6.105
23180WAT      O69781   4.612   5.546   2.062
23180WAT     H169782   4.539   5.497   2.110
23180WAT     H269783   4.634   5.499   1.976
23181WAT      O69784   9.324   6.029   4.010
23181WAT     H169785   9.416   6.026   4.049
23181WAT     H269786   9.328   6.002   3.914
23182WAT      O69787   6.869   9.403   8.893
23182WAT     H169788   6.874   9.458   8.810
23182WAT     H269789   6.955   9.411   8.944
23183WAT      O69790   6.228   1.275   1.447
23183WAT     H169791   6.166   1.199   1.466
23183WAT     H269792   6.315   1.239   1.413
23184WAT      O69793   5.013   1.269   3.688
23184WAT     H169794   5.011   1.264   3.588
23184WAT     H269795   5.089   1.214   3.722
23185WAT      O69796   5.857   6.647   0.575
23185WAT     H169797   5.820   6.726   0.623
23185WAT     H269798   5.885   6.674   0.483
23186WAT      O69799   8.063   2.345   8.309
23186WAT     H169800   8.119   2.428   8.303
23186WAT     H269801   7.993   2.357   8.379
23187WAT      O69802   7.553   8.702   8.584
23187WAT     H169803   7.454   8.695   8.572
23187WAT     H269804   7.588   8.615   8.619
23188WAT      O69805   1.077   2.347   7.106
23188WAT     H169806   1.174   2.330   7.123
23188WAT     H269807   1.043   2.415   7.171
23189WAT      O69808   4.196   3.528   3.356
23189WAT     H169809   4.229   3.621   3.364
23189WAT     H269810   4.208   3.480   3.443
23190WAT      O69811   9.601   1.613   3.591
23190WAT     H169812   9.614   1.548   3.516
23190WAT     H269813   9.662   1.690   3.579
23191WAT      O69814   0.314   4.374   1.379
23191WAT     H169815   0.346   4.356   1.472
23191WAT     H269816   0.321   4.472   1.360
23192WAT      O69817   4.820   2.894   9.603
23192WAT     H169818   4.822   2.993   9.617
23192WAT     H269819   4.909   2.855   9.626
23193WAT      O69820   4.992   7.223   1.747
23193WAT     H169821   5.041   7.296   1.795
23193WAT     H269822   5.040   7.203   1.661
23194WAT      O69823   4.728   1.367   4.224
23194WAT     H169824   4.731   1.357   4.324
23194WAT     H269825   4.820   1.386   4.190
23195WAT      O69826   5.766   3.813   3.854
23195WAT     H169827   5.834   3.844   3.921
23195WAT     H269828   5.703   3.749   3.898
23196WAT      O69829   2.623   2.052   3.429
23196WAT     H169830   2.617   2.009   3.519
23196WAT     H269831   2.718   2.052   3.398
23197WAT      O69832   2.299   5.638   9.842
23197WAT     H169833   2.295   5.701   9.919
23197WAT     H269834   2.222   5.656   9.780
23198WAT      O69835   0.728   7.460   5.152
23198WAT     H169836   0.765   7.503   5.235
23198WAT     H269837   0.729   7.361   5.163
23199WAT      O69838   3.731   9.108   5.014
23199WAT     H169839   3.756   9.036   4.948
23199WAT     H269840   3.731   9.197   4.968
23200WAT      O69841   3.673   7.399   1.478
23200WAT     H169842   3.740   7.436   1.544
23200WAT     H269843   3.585   7.443   1.493
23201WAT      O69844   7.325   8.480   3.638
23201WAT     H169845   7.367   8.571   3.643
23201WAT     H269846   7.393   8.414   3.607
23202WAT      O69847   8.558   8.835   0.082
23202WAT     H169848   8.610   8.808   0.163
23202WAT     H269849   8.468   8.869   0.110
23203WAT      O69850   1.297   0.468   9.885
23203WAT     H169851   1.303   0.455   9.984
23203WAT     H269852   1.247   0.392   9.844
23204WAT      O69853   3.541   4.178   9.603
23204WAT     H169854   3.537   4.204   9.506
23204WAT     H269855   3.589   4.249   9.654
23205WAT      O69856   5.410   9.610   9.516
23205WAT     H169857   5.455   9.677   9.457
23205WAT     H269858   5.348   9.657   9.579
23206WAT      O69859   3.305   9.032   0.346
23206WAT     H169860   3.274   9.040   0.251
23206WAT     H269861   3.240   8.976   0.398
23207WAT      O69862   4.492   4.511   8.415
23207WAT     H169863   4.421   4.567   8.373
23207WAT     H269864   4.451   4.430   8.457
23208WAT      O69865   8.276   6.039   4.168
23208WAT     H169866   8.368   6.032   4.207
23208WAT     H269867   8.279   6.015   4.071
23209WAT      O69868   9.538   7.160   1.987
23209WAT     H169869   9.625   7.177   2.033
23209WAT     H269870   9.532   7.063   1.962
23210WAT      O69871   5.201   2.641   7.737
23210WAT     H169872   5.250   2.689   7.809
23210WAT     H269873   5.262   2.572   7.697
23211WAT      O69874   8.649   0.617   3.258
23211WAT     H169875   8.637   0.695   3.197
23211WAT     H269876   8.685   0.648   3.346
23212WAT      O69877   3.873   3.107   3.077
23212WAT     H169878   3.926   3.172   3.022
23212WAT     H269879   3.780   3.142   3.089
23213WAT      O69880   4.261   1.277   7.688
23213WAT     H169881   4.231   1.335   7.764
23213WAT     H269882   4.194   1.203   7.675
23214WAT      O69883   0.406   4.285   5.700
23214WAT     H169884   0.315   4.261   5.665
23214WAT     H269885   0.442   4.362   5.648
23215WAT      O69886   7.918   4.559   6.285
23215WAT     H169887   7.959   4.605   6.207
23215WAT     H269888   7.989   4.509   6.335
23216WAT      O69889   7.620   3.732   8.193
23216WAT     H169890   7.622   3.643   8.149
23216WAT     H269891   7.559   3.729   8.273
23217WAT      O69892   7.953   8.169   9.101
23217WAT     H169893   7.995   8.249   9.144
23217WAT     H269894   8.023   8.115   9.055
23218WAT      O69895   8.036   4.324   8.341
23218WAT     H169896   8.014   4.352   8.248
23218WAT     H269897   8.082   4.399   8.389
23219WAT      O69898   4.651   5.235   5.893
23219WAT     H169899   4.551   5.230   5.887
23219WAT     H269900   4.684   5.163   5.954
23220WAT      O69901   3.866   7.635   5.299
23220WAT     H169902   3.896   7.730   5.308
23220WAT     H269903   3.766   7.631   5.305
23221WAT      O69904   7.784   0.028   6.944
23221WAT     H169905   7.750  -0.066   6.948
23221WAT     H269906   7.882   0.028   6.926
23222WAT      O69907   6.944   6.665   3.600
23222WAT     H169908   6.975   6.691   3.508
23222WAT     H269909   6.903   6.745   3.644
23223WAT      O69910   2.056   1.877   1.134
23223WAT     H169911   2.089   1.833   1.051
23223WAT     H269912   1.972   1.832   1.165
23224WAT      O69913   7.701   2.468   8.544
23224WAT     H169914   7.760   2.527   8.488
23224WAT     H269915   7.658   2.523   8.616
23225WAT      O69916   7.893   3.660   1.873
23225WAT     H169917   7.938   3.749   1.881
23225WAT     H269918   7.963   3.588   1.875
23226WAT      O69919   4.970   5.917   2.810
23226WAT     H169920   5.028   5.998   2.812
23226WAT     H269921   4.948   5.894   2.715
23227WAT      O69922   9.325   8.115   0.455
23227WAT     H169923   9.369   8.059   0.383
23227WAT     H269924   9.234   8.142   0.425
23228WAT      O69925   9.221   9.569   9.407
23228WAT     H169926   9.260   9.630   9.476
23228WAT     H269927   9.235   9.474   9.434
23229WAT      O69928   3.830   9.362   0.595
23229WAT     H169929   3.746   9.311   0.573
23229WAT     H269930   3.851   9.425   0.520
23230WAT      O69931   5.784   6.467   5.791
23230WAT     H169932   5.770   6.379   5.837
23230WAT     H269933   5.849   6.456   5.716
23231WAT      O69934   0.123   8.294   0.717
23231WAT     H169935   0.061   8.260   0.788
23231WAT     H269936   0.216   8.265   0.738
23232WAT      O69937   5.537   8.922   3.808
23232WAT     H169938   5.606   8.925   3.881
23232WAT     H269939   5.552   8.998   3.746
23233WAT      O69940   7.324   3.922   8.331
23233WAT     H169941   7.403   3.901   8.389
23233WAT     H269942   7.255   3.850   8.342
23234WAT      O69943   1.200   9.034   9.165
23234WAT     H169944   1.289   9.045   9.120
23234WAT     H269945   1.181   8.937   9.177
23235WAT      O69946   9.183   3.128   3.408
23235WAT     H169947   9.256   3.067   3.441
23235WAT     H269948   9.171   3.115   3.310
23236WAT      O69949   7.278   6.586   6.749
23236WAT     H169950   7.211   6.652   6.714
23236WAT     H269951   7.245   6.493   6.734
23237WAT      O69952   2.187   8.299   0.542
23237WAT     H169953   2.116   8.301   0.472
23237WAT     H269954   2.145   8.302   0.632
23238WAT      O69955   3.235   7.362   5.168
23238WAT     H169956   3.160   7.308   5.206
23238WAT     H269957   3.290   7.304   5.108
23239WAT      O69958   4.926   2.305   6.472
23239WAT     H169959   4.860   2.267   6.537
23239WAT     H269960   5.003   2.345   6.522
23240WAT      O69961   9.641   1.723   8.725
23240WAT     H169962   9.621   1.640   8.777
23240WAT     H269963   9.593   1.720   8.637
23241WAT      O69964   0.789   8.111   3.122
23241WAT     H169965   0.723   8.149   3.058
23241WAT     H269966   0.868   8.076   3.072
23242WAT      O69967   7.775   1.913   8.074
23242WAT     H169968   7.873   1.894   8.078
23242WAT     H269969   7.758   2.008   8.101
23243WAT      O69970   2.371   3.655   5.955
23243WAT     H169971   2.283   3.627   5.993
23243WAT     H269972   2.420   3.574   5.920
23244WAT      O69973   9.033   8.462   0.879
23244WAT     H169974   9.121   8.438   0.839
23244WAT     H269975   9.018   8.560   0.869
23245WAT      O69976   0.760   0.187   8.020
23245WAT     H169977   0.815   0.167   8.101
23245WAT     H269978   0.736   0.284   8.019
23246WAT      O69979   8.451   1.321   3.365
23246WAT     H169980   8.395   1.386   3.417
23246WAT     H269981   8.400   1.289   3.285
23247WAT      O69982   6.131   2.548   8.472
23247WAT     H169983   6.172   2.613   8.537
23247WAT     H269984   6.105   2.596   8.389
23248WAT      O69985   9.681   8.676   1.435
23248WAT     H169986   9.670   8.726   1.349
23248WAT     H269987   9.725   8.588   1.417
23249WAT      O69988   8.702   3.571   6.511
23249WAT     H169989   8.645   3.495   6.544
23249WAT     H269990   8.643   3.649   6.489
23250WAT      O69991   2.243   5.277   9.396
23250WAT     H169992   2.320   5.303   9.336
23250WAT     H269993   2.165   5.337   9.378
23251WAT      O69994   3.759   9.258   8.066
23251WAT     H169995   3.821   9.292   8.137
23251WAT     H269996   3.666   9.251   8.103
23252WAT      O69997   2.769   3.243   7.000
23252WAT     H169998   2.708   3.320   7.019
23252WAT     H269999   2.854   3.278   6.959
23253WAT      O70000   1.088   3.203   6.127
23253WAT     H170001   1.157   3.235   6.062
23253WAT     H270002   1.066   3.277   6.190
23254WAT      O70003   5.284   6.285   5.313
23254WAT     H170004   5.330   6.358   5.364
23254WAT     H270005   5.352   6.233   5.261
23255WAT      O70006   8.624   9.604   5.374
23255WAT     H170007   8.688   9.533   5.344
23255WAT     H270008   8.649   9.692   5.332
23256WAT      O70009   7.511   4.349   3.630
23256WAT     H170010   7.531   4.394   3.543
23256WAT     H270011   7.507   4.250   3.616
23257WAT      O70012   9.467   8.267   3.089
23257WAT     H170013   9.385   8.235   3.042
23257WAT     H270014   9.469   8.229   3.182
23258WAT      O70015   4.299   5.467   7.579
23258WAT     H170016   4.334   5.425   7.495
23258WAT     H270017   4.344   5.427   7.658
23259WAT      O70018   2.227   7.591   5.387
23259WAT     H170019   2.219   7.496   5.356
23259WAT     H270020   2.283   7.596   5.469
23260WAT      O70021   2.657   6.001   6.953
23260WAT     H170022   2.697   5.920   6.910
23260WAT     H270023   2.709   6.082   6.925
23261WAT      O70024   9.810   8.431   1.344
23261WAT     H170025   9.785   8.391   1.433
23261WAT     H270026   9.756   8.389   1.272
23262WAT      O70027   2.960   7.101   0.841
23262WAT     H170028   2.984   7.045   0.762
23262WAT     H270029   2.920   7.044   0.912
23263WAT      O70030   9.349   7.687   3.030
23263WAT     H170031   9.442   7.660   3.055
23263WAT     H270032   9.304   7.611   2.984
23264WAT      O70033   0.903   6.423   1.783
23264WAT     H170034   0.846   6.497   1.748
23264WAT     H270035   0.851   6.337   1.783
23265WAT      O70036   5.990   6.819   2.781
23265WAT     H170037   5.939   6.853   2.861
23265WAT     H270038   5.927   6.775   2.718
23266WAT      O70039   6.750   9.777   0.573
23266WAT     H170040   6.841   9.745   0.547
23266WAT     H270041   6.758   9.865   0.620
23267WAT      O70042   3.108   2.748   2.656
23267WAT     H170043   3.136   2.746   2.560
23267WAT     H270044   3.052   2.829   2.673
23268WAT      O70045   3.880   7.761   3.804
23268WAT     H170046   3.786   7.795   3.809
23268WAT     H270047   3.914   7.742   3.896
23269WAT      O70048   5.924   4.681   2.637
23269WAT     H170049   5.952   4.727   2.721
23269WAT     H270050   5.857   4.609   2.659
23270WAT      O70051   2.499   2.884   7.544
23270WAT     H170052   2.535   2.906   7.454
23270WAT     H270053   2.426   2.948   7.567
23271WAT      O70054   1.491   7.902   6.318
23271WAT     H170055   1.511   7.875   6.224
23271WAT     H270056   1.565   7.962   6.352
23272WAT      O70057   3.821   9.099   3.071
23272WAT     H170058   3.739   9.137   3.115
23272WAT     H270059   3.900   9.154   3.098
23273WAT      O70060   4.866   4.502   2.026
23273WAT     H170061   4.897   4.524   1.934
23273WAT     H270062   4.779   4.454   2.021
23274WAT      O70063   6.516   1.860   1.296
23274WAT     H170064   6.564   1.855   1.209
23274WAT     H270065   6.464   1.776   1.311
23275WAT      O70066   1.867   1.652   8.413
23275WAT     H170067   1.933   1.705   8.360
23275WAT     H270068   1.859   1.560   8.375
23276WAT      O70069   1.949   6.218   3.770
23276WAT     H170070   1.892   6.253   3.696
23276WAT     H270071   2.045   6.230   3.747
23277WAT      O70072   1.330   2.517   7.984
23277WAT     H170073   1.368   2.470   8.063
23277WAT     H270074   1.369   2.609   7.978
23278WAT      O70075   2.702   1.201   5.300
23278WAT     H170076   2.714   1.243   5.210
23278WAT     H270077   2.623   1.140   5.297
23279WAT      O70078   0.518   6.046   5.735
23279WAT     H170079   0.485   6.014   5.647
23279WAT     H270080   0.580   6.124   5.721
23280WAT      O70081   2.975   8.415   6.679
23280WAT     H170082   2.897   8.431   6.619
23280WAT     H270083   3.053   8.385   6.624
23281WAT      O70084   6.237   4.450   6.887
23281WAT     H170085   6.290   4.471   6.805
23281WAT     H270086   6.195   4.360   6.878
23282WAT      O70087   7.864   9.008   9.832
23282WAT     H170088   7.925   9.048   9.764
23282WAT     H270089   7.785   8.969   9.787
23283WAT      O70090   2.764   3.785   7.318
23283WAT     H170091   2.757   3.885   7.321
23283WAT     H270092   2.741   3.748   7.408
23284WAT      O70093   6.428   6.995   6.500
23284WAT     H170094   6.505   6.988   6.564
23284WAT     H270095   6.393   7.088   6.501
23285WAT      O70096   1.688   6.640   5.622
23285WAT     H170097   1.669   6.737   5.603
23285WAT     H270098   1.692   6.589   5.536
23286WAT      O70099   3.651   7.483   5.643
23286WAT     H170100   3.564   7.470   5.595
23286WAT     H270101   3.678   7.579   5.638
23287WAT      O70102   8.856   4.387   0.493
23287WAT     H170103   8.903   4.387   0.581
23287WAT     H270104   8.891   4.463   0.437
23288WAT      O70105   6.300   0.525   2.636
23288WAT     H170106   6.356   0.548   2.557
23288WAT     H270107   6.226   0.592   2.646
23289WAT      O70108   4.358   1.216   4.811
23289WAT     H170109   4.328   1.294   4.867
23289WAT     H270110   4.376   1.138   4.871
23290WAT      O70111   7.041   3.479   0.219
23290WAT     H170112   7.096   3.561   0.231
23290WAT     H270113   6.962   3.499   0.161
23291WAT      O70114   4.730   9.244   2.969
23291WAT     H170115   4.754   9.332   3.010
23291WAT     H270116   4.663   9.197   3.027
23292WAT      O70117   7.142   3.035   1.896
23292WAT     H170118   7.204   3.102   1.853
23292WAT     H270119   7.078   3.000   1.827
23293WAT      O70120   8.469   4.866   3.042
23293WAT     H170121   8.453   4.775   3.004
23293WAT     H270122   8.566   4.876   3.064
23294WAT      O70123   1.409   2.884   1.065
23294WAT     H170124   1.508   2.883   1.048
23294WAT     H270125   1.392   2.904   1.162
23295WAT      O70126   1.958   7.588   6.859
23295WAT     H170127   1.891   7.633   6.800
23295WAT     H270128   1.957   7.630   6.950
23296WAT      O70129   0.722   9.619   1.051
23296WAT     H170130   0.783   9.693   1.024
23296WAT     H270131   0.719   9.550   0.979
23297WAT      O70132   6.340   1.679   4.640
23297WAT     H170133   6.247   1.662   4.609
23297WAT     H270134   6.403   1.672   4.562
23298WAT      O70135   4.643   7.619   8.333
23298WAT     H170136   4.676   7.685   8.266
23298WAT     H270137   4.700   7.624   8.415
23299WAT      O70138   5.104   5.378   2.859
23299WAT     H170139   5.073   5.405   2.950
23299WAT     H270140   5.149   5.289   2.864
23300WAT      O70141   3.397   4.439   0.814
23300WAT     H170142   3.339   4.460   0.736
23300WAT     H270143   3.340   4.412   0.892
23301WAT      O70144   0.136   4.581   0.107
23301WAT     H170145   0.082   4.526   0.044
23301WAT     H270146   0.150   4.531   0.193
23302WAT      O70147   4.536   5.484   9.371
23302WAT     H170148   4.572   5.577   9.371
23302WAT     H270149   4.571   5.434   9.292
23303WAT      O70150   7.805   3.626   0.976
23303WAT     H170151   7.706   3.631   0.991
23303WAT     H270152   7.835   3.532   0.984
23304WAT      O70153   4.922   8.567   9.725
23304WAT     H170154   4.871   8.481   9.732
23304WAT     H270155   5.017   8.551   9.751
23305WAT      O70156   3.588   0.919   9.273
23305WAT     H170157   3.513   0.972   9.313
23305WAT     H270158   3.630   0.863   9.344
23306WAT      O70159   8.363   4.355   2.227
23306WAT     H170160   8.320   4.419   2.291
23306WAT     H270161   8.415   4.406   2.159
23307WAT      O70162   3.427   5.310   5.803
23307WAT     H170163   3.500   5.287   5.868
23307WAT     H270164   3.405   5.407   5.811
23308WAT      O70165   6.228   6.274   8.987
23308WAT     H170166   6.263   6.234   8.902
23308WAT     H270167   6.139   6.317   8.969
23309WAT      O70168   6.748   0.788   1.360
23309WAT     H170169   6.773   0.884   1.362
23309WAT     H270170   6.825   0.732   1.391
23310WAT      O70171   4.684   6.463   3.634
23310WAT     H170172   4.601   6.409   3.626
23310WAT     H270173   4.680   6.540   3.571
23311WAT      O70174   8.670   7.544   4.867
23311WAT     H170175   8.734   7.552   4.791
23311WAT     H270176   8.580   7.519   4.833
23312WAT      O70177   5.948   2.314   8.302
23312WAT     H170178   5.964   2.224   8.262
23312WAT     H270179   5.853   2.320   8.333
23313WAT      O70180   1.576   8.015   6.825
23313WAT     H170181   1.530   8.075   6.890
23313WAT     H270182   1.555   7.920   6.847
23314WAT      O70183   0.956   3.411   4.906
23314WAT     H170184   1.019   3.336   4.925
23314WAT     H270185   0.884   3.412   4.975
23315WAT      O70186   0.323   6.270   7.965
23315WAT     H170187   0.249   6.309   8.019
23315WAT     H270188   0.287   6.193   7.911
23316WAT      O70189   7.033   2.840   8.506
23316WAT     H170190   7.056   2.745   8.487
23316WAT     H270191   7.038   2.857   8.604
23317WAT      O70192   3.745   9.690   6.794
23317WAT     H170193   3.831   9.707   6.746
23317WAT     H270194   3.709   9.601   6.768
23318WAT      O70195   1.175   8.360   1.717
23318WAT     H170196   1.117   8.419   1.662
23318WAT     H270197   1.191   8.402   1.806
23319WAT      O70198   3.694   5.279   5.285
23319WAT     H170199   3.702   5.343   5.362
23319WAT     H270200   3.649   5.325   5.209
23320WAT      O70201   4.474   4.103   1.576
23320WAT     H170202   4.537   4.179   1.558
23320WAT     H270203   4.523   4.031   1.624
23321WAT      O70204   2.600   7.414   7.558
23321WAT     H170205   2.654   7.453   7.633
23321WAT     H270206   2.628   7.319   7.543
23322WAT      O70207   0.033   1.877   1.288
23322WAT     H170208   0.116   1.824   1.308
23322WAT     H270209   0.029   1.898   1.190
23323WAT      O70210   0.921   5.671   6.111
23323WAT     H170211   0.822   5.686   6.112
23323WAT     H270212   0.942   5.595   6.050
23324WAT      O70213   9.154   3.134   2.724
23324WAT     H170214   9.069   3.084   2.705
23324WAT     H270215   9.144   3.183   2.811
23325WAT      O70216   3.097   5.366   1.485
23325WAT     H170217   3.190   5.329   1.479
23325WAT     H270218   3.066   5.393   1.394
23326WAT      O70219   7.015   4.130   8.902
23326WAT     H170220   7.098   4.141   8.957
23326WAT     H270221   6.974   4.041   8.920
23327WAT      O70222   5.718   7.005   7.411
23327WAT     H170223   5.690   6.943   7.485
23327WAT     H270224   5.666   7.090   7.418
23328WAT      O70225   2.447   8.986   3.719
23328WAT     H170226   2.456   8.888   3.700
23328WAT     H270227   2.350   9.012   3.717
23329WAT      O70228   2.598   9.789   5.005
23329WAT     H170229   2.621   9.856   4.934
23329WAT     H270230   2.559   9.836   5.084
23330WAT      O70231   7.570   6.330   3.450
23330WAT     H170232   7.633   6.307   3.376
23330WAT     H270233   7.579   6.263   3.524
23331WAT      O70234   1.108   6.675   7.661
23331WAT     H170235   1.164   6.632   7.590
23331WAT     H270236   1.166   6.704   7.737
23332WAT      O70237   7.942   9.476   5.177
23332WAT     H170238   8.023   9.440   5.131
23332WAT     H270239   7.971   9.531   5.256
23333WAT      O70240   1.864   5.934   8.481
23333WAT     H170241   1.827   6.010   8.534
23333WAT     H270242   1.824   5.848   8.514
23334WAT      O70243   6.945   0.068   5.011
23334WAT     H170244   6.891   0.151   4.997
23334WAT     H270245   6.887  -0.004   5.047
23335WAT      O70246   2.632   4.673   3.794
23335WAT     H170247   2.632   4.573   3.794
23335WAT     H270248   2.592   4.706   3.879
23336WAT      O70249   2.313   4.757   2.021
23336WAT     H170250   2.395   4.727   2.070
23336WAT     H270251   2.264   4.677   1.986
23337WAT      O70252   2.120   2.988   9.585
23337WAT     H170253   2.126   2.892   9.610
23337WAT     H270254   2.211   3.022   9.560
23338WAT      O70255   0.946   9.175   8.538
23338WAT     H170256   0.932   9.203   8.443
23338WAT     H270257   1.026   9.222   8.575
23339WAT      O70258   2.624   7.343   5.864
23339WAT     H170259   2.569   7.260   5.869
23339WAT     H270260   2.621   7.391   5.951
23340WAT      O70261   3.315   2.337   1.551
23340WAT     H170262   3.345   2.381   1.466
23340WAT     H270263   3.387   2.276   1.584
23341WAT      O70264   9.630   0.429   0.992
23341WAT     H170265   9.716   0.479   1.003
23341WAT     H270266   9.600   0.436   0.896
23342WAT      O70267   4.254   0.961   8.649
23342WAT     H170268   4.224   0.956   8.744
23342WAT     H270269   4.299   1.049   8.632
23343WAT      O70270   7.347   9.052   3.618
23343WAT     H170271   7.362   9.125   3.551
23343WAT     H270272   7.254   9.057   3.654
23344WAT      O70273   0.738   3.890   0.359
23344WAT     H170274   0.639   3.885   0.365
23344WAT     H270275   0.775   3.922   0.447
23345WAT      O70276   0.485   0.217   1.333
23345WAT     H170277   0.477   0.288   1.403
23345WAT     H270278   0.511   0.259   1.246
23346WAT      O70279   3.361   5.180   7.749
23346WAT     H170280   3.292   5.190   7.821
23346WAT     H270281   3.358   5.259   7.688
23347WAT      O70282   1.076   7.043   9.794
23347WAT     H170283   1.091   7.023   9.890
23347WAT     H270284   1.133   7.120   9.766
23348WAT      O70285   3.293   5.715   0.955
23348WAT     H170286   3.206   5.672   0.927
23348WAT     H270287   3.355   5.644   0.988
23349WAT      O70288   8.074   0.345   2.698
23349WAT     H170289   8.042   0.260   2.656
23349WAT     H270290   8.163   0.369   2.660
23350WAT      O70291   6.166   6.513   0.259
23350WAT     H170292   6.161   6.414   0.247
23350WAT     H270293   6.092   6.544   0.319
23351WAT      O70294   8.089   7.449   9.210
23351WAT     H170295   8.056   7.354   9.207
23351WAT     H270296   8.068   7.489   9.299
23352WAT      O70297   7.413   6.023   7.464
23352WAT     H170298   7.437   5.995   7.557
23352WAT     H270299   7.322   6.065   7.464
23353WAT      O70300   8.904   5.152   9.012
23353WAT     H170301   8.965   5.134   8.935
23353WAT     H270302   8.900   5.251   9.029
23354WAT      O70303   8.594   4.303   2.411
23354WAT     H170304   8.608   4.402   2.421
23354WAT     H270305   8.536   4.286   2.331
23355WAT      O70306   5.150   1.101   2.674
23355WAT     H170307   5.153   1.028   2.742
23355WAT     H270308   5.184   1.186   2.714
23356WAT      O70309   7.656   6.509   9.758
23356WAT     H170310   7.689   6.418   9.732
23356WAT     H270311   7.706   6.540   9.839
23357WAT      O70312   9.467   2.301   7.241
23357WAT     H170313   9.449   2.399   7.232
23357WAT     H270314   9.562   2.282   7.215
23358WAT      O70315   5.221   3.728   7.085
23358WAT     H170316   5.132   3.692   7.057
23358WAT     H270317   5.260   3.784   7.012
23359WAT      O70318   5.471   3.841   3.342
23359WAT     H170319   5.559   3.885   3.326
23359WAT     H270320   5.443   3.792   3.260
23360WAT      O70321   2.030   2.213   4.831
23360WAT     H170322   2.091   2.143   4.867
23360WAT     H270323   1.949   2.170   4.792
23361WAT      O70324   9.542   2.966   5.829
23361WAT     H170325   9.592   2.886   5.794
23361WAT     H270326   9.545   3.039   5.761
23362WAT      O70327   9.675   6.996   5.008
23362WAT     H170328   9.767   7.033   5.003
23362WAT     H270329   9.657   6.938   4.929
23363WAT      O70330   4.979   5.551   7.893
23363WAT     H170331   5.001   5.627   7.831
23363WAT     H270332   5.064   5.507   7.922
23364WAT      O70333   0.116   1.292   4.109
23364WAT     H170334   0.158   1.350   4.179
23364WAT     H270335   0.187   1.258   4.047
23365WAT      O70336   0.740   5.937   4.612
23365WAT     H170337   0.717   6.021   4.563
23365WAT     H270338   0.656   5.892   4.642
23366WAT      O70339   3.216   9.712   3.675
23366WAT     H170340   3.158   9.778   3.627
23366WAT     H270341   3.207   9.622   3.631
23367WAT      O70342   2.733   7.069   0.070
23367WAT     H170343   2.716   7.167   0.078
23367WAT     H270344   2.698   7.023   0.152
23368WAT      O70345   7.113   3.579   3.872
23368WAT     H170346   7.035   3.625   3.912
23368WAT     H270347   7.186   3.645   3.855
23369WAT      O70348   8.641   1.733   0.840
23369WAT     H170349   8.632   1.726   0.741
23369WAT     H270350   8.624   1.644   0.882
23370WAT      O70351   8.579   0.466   6.480
23370WAT     H170352   8.671   0.442   6.449
23370WAT     H270353   8.571   0.565   6.488
23371WAT      O70354   5.531   7.012   8.648
23371WAT     H170355   5.436   7.034   8.629
23371WAT     H270356   5.586   7.096   8.645
23372WAT      O70357   2.168   5.879   2.804
23372WAT     H170358   2.189   5.881   2.902
23372WAT     H270359   2.104   5.805   2.786
23373WAT      O70360   1.187   3.393   3.248
23373WAT     H170361   1.148   3.466   3.192
23373WAT     H270362   1.189   3.422   3.344
23374WAT      O70363   3.164   3.100   7.634
23374WAT     H170364   3.211   3.165   7.574
23374WAT     H270365   3.090   3.055   7.584
23375WAT      O70366   1.324   7.379   5.014
23375WAT     H170367   1.392   7.447   4.986
23375WAT     H270368   1.278   7.343   4.932
23376WAT      O70369   2.474   1.236   8.818
23376WAT     H170370   2.544   1.214   8.886
23376WAT     H270371   2.434   1.325   8.839
23377WAT      O70372   8.347   0.447   4.896
23377WAT     H170373   8.306   0.357   4.909
23377WAT     H270374   8.421   0.460   4.962
23378WAT      O70375   2.935   8.190   6.870
23378WAT     H170376   2.917   8.248   6.790
23378WAT     H270377   2.971   8.246   6.944
23379WAT      O70378   3.849   2.207   0.665
23379WAT     H170379   3.822   2.152   0.586
23379WAT     H270380   3.842   2.304   0.641
23380WAT      O70381   6.293   6.786   7.996
23380WAT     H170382   6.379   6.760   7.953
23380WAT     H270383   6.303   6.872   8.044
23381WAT      O70384   2.839   8.135   8.202
23381WAT     H170385   2.919   8.119   8.259
23381WAT     H270386   2.795   8.220   8.229
23382WAT      O70387   6.328   3.299   5.637
23382WAT     H170388   6.325   3.219   5.577
23382WAT     H270389   6.246   3.301   5.694
23383WAT      O70390   2.748   4.834   3.629
23383WAT     H170391   2.825   4.779   3.598
23383WAT     H270392   2.693   4.782   3.694
23384WAT      O70393   2.021   3.239   7.067
23384WAT     H170394   2.106   3.202   7.106
23384WAT     H270395   1.947   3.230   7.134
23385WAT      O70396   5.449   7.284   7.220
23385WAT     H170397   5.389   7.317   7.148
23385WAT     H270398   5.513   7.217   7.182
23386WAT      O70399   8.640   3.111   5.322
23386WAT     H170400   8.596   3.076   5.240
23386WAT     H270401   8.597   3.070   5.403
23387WAT      O70402   5.092   0.884   2.852
23387WAT     H170403   5.001   0.846   2.869
23387WAT     H270404   5.157   0.809   2.841
23388WAT      O70405   7.081   1.613   0.772
23388WAT     H170406   7.138   1.579   0.697
23388WAT     H270407   7.069   1.541   0.840
23389WAT      O70408   0.486   4.697   7.895
23389WAT     H170409   0.574   4.744   7.882
23389WAT     H270410   0.416   4.765   7.916
23390WAT      O70411   7.462   1.936   5.679
23390WAT     H170412   7.432   2.019   5.726
23390WAT     H270413   7.512   1.961   5.596
23391WAT      O70414   7.877   8.291   3.257
23391WAT     H170415   7.903   8.293   3.160
23391WAT     H270416   7.950   8.332   3.311
23392WAT      O70417   6.758   3.262   2.902
23392WAT     H170418   6.856   3.248   2.884
23392WAT     H270419   6.705   3.227   2.825
23393WAT      O70420   8.418   8.098   4.543
23393WAT     H170421   8.436   8.190   4.508
23393WAT     H270422   8.481   8.033   4.499
23394WAT      O70423   0.420   9.073   0.423
23394WAT     H170424   0.346   9.006   0.412
23394WAT     H270425   0.387   9.150   0.477
23395WAT      O70426   6.284   7.115   1.628
23395WAT     H170427   6.340   7.129   1.546
23395WAT     H270428   6.293   7.021   1.659
23396WAT      O70429   2.311   4.657   1.620
23396WAT     H170430   2.249   4.723   1.662
23396WAT     H270431   2.306   4.664   1.520
23397WAT      O70432   6.499   0.368   1.518
23397WAT     H170433   6.439   0.347   1.594
23397WAT     H270434   6.560   0.443   1.542
23398WAT      O70435   5.692   2.248   2.669
23398WAT     H170436   5.703   2.345   2.690
23398WAT     H270437   5.764   2.219   2.606
23399WAT      O70438   0.333   7.619   5.949
23399WAT     H170439   0.347   7.715   5.923
23399WAT     H270440   0.294   7.615   6.040
23400WAT      O70441   4.084   6.818   3.055
23400WAT     H170442   3.997   6.814   3.105
23400WAT     H270443   4.159   6.796   3.118
23401WAT      O70444   1.264   3.377   5.354
23401WAT     H170445   1.337   3.444   5.371
23401WAT     H270446   1.297   3.286   5.378
23402WAT      O70447   3.390   4.829   4.869
23402WAT     H170448   3.441   4.912   4.846
23402WAT     H270449   3.452   4.760   4.905
23403WAT      O70450   9.517   3.946   6.959
23403WAT     H170451   9.438   4.003   6.936
23403WAT     H270452   9.583   4.000   7.012
23404WAT      O70453   4.542   8.007   4.760
23404WAT     H170454   4.502   7.916   4.747
23404WAT     H270455   4.599   8.030   4.681
23405WAT      O70456   2.632   1.985   3.715
23405WAT     H170457   2.708   1.966   3.777
23405WAT     H270458   2.548   1.948   3.753
23406WAT      O70459   2.282   4.385   0.853
23406WAT     H170460   2.243   4.349   0.768
23406WAT     H270461   2.325   4.311   0.904
23407WAT      O70462   8.087   4.004   6.257
23407WAT     H170463   8.102   3.910   6.289
23407WAT     H270464   8.166   4.033   6.203
23408WAT      O70465   1.696   1.801   8.266
23408WAT     H170466   1.631   1.735   8.228
23408WAT     H270467   1.741   1.761   8.346
23409WAT      O70468   2.771   8.948   0.349
23409WAT     H170469   2.779   9.038   0.305
23409WAT     H270470   2.675   8.931   0.371
23410WAT      O70471   0.161   9.681   6.710
23410WAT     H170472   0.126   9.740   6.783
23410WAT     H270473   0.259   9.664   6.726
23411WAT      O70474   5.792   7.265   0.589
23411WAT     H170475   5.877   7.217   0.570
23411WAT     H270476   5.736   7.212   0.653
23412WAT      O70477   2.234   2.293   9.304
23412WAT     H170478   2.226   2.216   9.368
23412WAT     H270479   2.176   2.276   9.224
23413WAT      O70480   0.612   2.465   4.380
23413WAT     H170481   0.596   2.516   4.465
23413WAT     H270482   0.708   2.438   4.376
23414WAT      O70483   4.595   1.367   3.685
23414WAT     H170484   4.637   1.335   3.771
23414WAT     H270485   4.496   1.363   3.694
23415WAT      O70486   6.273   9.084   0.338
23415WAT     H170487   6.333   9.092   0.258
23415WAT     H270488   6.264   9.173   0.382
23416WAT      O70489   2.785   2.189   2.780
23416WAT     H170490   2.796   2.239   2.866
23416WAT     H270491   2.798   2.251   2.703
23417WAT      O70492   5.257   2.889   0.861
23417WAT     H170493   5.356   2.891   0.845
23417WAT     H270494   5.239   2.838   0.945
23418WAT      O70495   1.432   6.068   3.982
23418WAT     H170496   1.401   6.053   4.076
23418WAT     H270497   1.441   6.167   3.966
23419WAT      O70498   7.104   8.004   1.070
23419WAT     H170499   7.054   8.084   1.039
23419WAT     H270500   7.146   8.023   1.159
23420WAT      O70501   8.505   5.003   1.951
23420WAT     H170502   8.589   4.955   1.977
23420WAT     H270503   8.511   5.029   1.854
23421WAT      O70504  -0.002   2.101   9.103
23421WAT     H170505   0.097   2.107   9.092
23421WAT     H270506  -0.042   2.054   9.024
23422WAT      O70507   2.343   9.609   6.083
23422WAT     H170508   2.439   9.633   6.069
23422WAT     H270509   2.286   9.656   6.016
23423WAT      O70510   1.155   9.449   0.507
23423WAT     H170511   1.146   9.546   0.530
23423WAT     H270512   1.248   9.431   0.476
23424WAT      O70513   7.787   9.143   9.159
23424WAT     H170514   7.743   9.075   9.217
23424WAT     H270515   7.724   9.172   9.087
23425WAT      O70516   6.558   4.418   0.315
23425WAT     H170517   6.501   4.385   0.241
23425WAT     H270518   6.652   4.386   0.301
23426WAT      O70519   2.927   6.789   0.850
23426WAT     H170520   2.939   6.788   0.751
23426WAT     H270521   3.008   6.751   0.894
23427WAT      O70522   5.123   5.659   4.848
23427WAT     H170523   5.124   5.649   4.748
23427WAT     H270524   5.189   5.730   4.875
23428WAT      O70525   3.343   1.053   2.694
23428WAT     H170526   3.317   1.013   2.606
23428WAT     H270527   3.422   1.004   2.731
23429WAT      O70528   8.926   8.798   9.644
23429WAT     H170529   8.955   8.730   9.577
23429WAT     H270530   8.848   8.763   9.696
23430WAT      O70531   2.045   8.181   9.454
23430WAT     H170532   1.988   8.170   9.372
23430WAT     H270533   2.001   8.246   9.517
23431WAT      O70534   8.486   3.444   3.634
23431WAT     H170535   8.427   3.468   3.557
23431WAT     H270536   8.448   3.481   3.719
23432WAT      O70537   4.485   6.803   3.685
23432WAT     H170538   4.522   6.758   3.765
23432WAT     H270539   4.436   6.886   3.713
23433WAT      O70540   1.485   0.541   1.180
23433WAT     H170541   1.537   0.623   1.201
23433WAT     H270542   1.420   0.523   1.254
23434WAT      O70543   8.364   8.023   2.108
23434WAT     H170544   8.327   8.048   2.197
23434WAT     H270545   8.304   8.060   2.036
23435WAT      O70546   5.712   6.312   0.901
23435WAT     H170547   5.791   6.348   0.851
23435WAT     H270548   5.744   6.260   0.981
23436WAT      O70549   9.831   0.896   4.367
23436WAT     H170550   9.831   0.988   4.328
23436WAT     H270551   9.738   0.873   4.397
23437WAT      O70552   5.669   7.207   5.834
23437WAT     H170553   5.588   7.210   5.776
23437WAT     H270554   5.745   7.165   5.784
23438WAT      O70555   5.255   4.980   2.150
23438WAT     H170556   5.336   4.956   2.202
23438WAT     H270557   5.249   4.922   2.069
23439WAT      O70558   3.936   6.700   9.851
23439WAT     H170559   3.859   6.748   9.893
23439WAT     H270560   4.019   6.756   9.860
23440WAT      O70561   3.753   7.855   6.075
23440WAT     H170562   3.740   7.773   6.019
23440WAT     H270563   3.830   7.907   6.039
23441WAT      O70564   1.442   4.151   9.232
23441WAT     H170565   1.412   4.123   9.323
23441WAT     H270566   1.511   4.222   9.240
23442WAT      O70567   5.694   4.213   9.219
23442WAT     H170568   5.619   4.214   9.286
23442WAT     H270569   5.657   4.194   9.128
23443WAT      O70570   4.471   0.805   4.189
23443WAT     H170571   4.548   0.853   4.233
23443WAT     H270572   4.495   0.709   4.178
23444WAT      O70573   5.609   3.560   0.256
23444WAT     H170574   5.564   3.649   0.267
23444WAT     H270575   5.684   3.569   0.190
23445WAT      O70576   8.670   0.151   6.124
23445WAT     H170577   8.606   0.194   6.189
23445WAT     H270578   8.764   0.174   6.150
23446WAT      O70579   3.602   1.060   2.187
23446WAT     H170580   3.536   1.092   2.255
23446WAT     H270581   3.692   1.049   2.229
23447WAT      O70582   1.508   5.274   7.826
23447WAT     H170583   1.439   5.261   7.898
23447WAT     H270584   1.466   5.257   7.737
23448WAT      O70585   5.104   9.160   5.370
23448WAT     H170586   5.080   9.246   5.325
23448WAT     H270587   5.035   9.090   5.349
23449WAT      O70588   5.396   3.989   5.672
23449WAT     H170589   5.494   4.009   5.669
23449WAT     H270590   5.369   3.974   5.767
23450WAT      O70591   0.120   1.985   9.380
23450WAT     H170592   0.050   1.943   9.323
23450WAT     H270593   0.185   1.915   9.410
23451WAT      O70594   6.636   0.046   9.478
23451WAT     H170595   6.653   0.022   9.574
23451WAT     H270596   6.671   0.137   9.460
23452WAT      O70597   3.293   8.907   6.495
23452WAT     H170598   3.300   8.876   6.400
23452WAT     H270599   3.199   8.939   6.512
23453WAT      O70600   5.835   6.054   8.385
23453WAT     H170601   5.842   5.993   8.464
23453WAT     H270602   5.757   6.027   8.329
23454WAT      O70603   5.335   9.047   6.650
23454WAT     H170604   5.420   9.099   6.652
23454WAT     H270605   5.290   9.053   6.739
23455WAT      O70606   1.550   2.976   4.190
23455WAT     H170607   1.609   3.034   4.134
23455WAT     H270608   1.475   2.941   4.134
23456WAT      O70609   9.509   0.672   8.694
23456WAT     H170610   9.488   0.584   8.652
23456WAT     H270611   9.579   0.660   8.764
23457WAT      O70612   9.828   7.484   1.358
23457WAT     H170613   9.858   7.410   1.418
23457WAT     H270614   9.793   7.445   1.272
23458WAT      O70615   1.760   1.981   4.926
23458WAT     H170616   1.715   2.017   5.007
23458WAT     H270617   1.707   1.903   4.890
23459WAT      O70618   2.903   0.189   7.875
23459WAT     H170619   2.890   0.276   7.924
23459WAT     H270620   2.997   0.159   7.886
23460WAT      O70621   0.441   7.108   8.199
23460WAT     H170622   0.393   7.196   8.197
23460WAT     H270623   0.526   7.114   8.147
23461WAT      O70624   6.406   4.654   8.998
23461WAT     H170625   6.463   4.610   9.068
23461WAT     H270626   6.464   4.690   8.925
23462WAT      O70627   9.738   3.283   1.875
23462WAT     H170628   9.784   3.219   1.938
23462WAT     H270629   9.794   3.365   1.864
23463WAT      O70630   2.072   9.059   4.566
23463WAT     H170631   2.005   9.004   4.516
23463WAT     H270632   2.125   9.115   4.503
23464WAT      O70633   6.749   0.547   9.538
23464WAT     H170634   6.671   0.599   9.574
23464WAT     H270635   6.801   0.604   9.475
23465WAT      O70636   6.920   1.077   9.717
23465WAT     H170637   6.882   1.153   9.769
23465WAT     H270638   6.898   0.991   9.763
23466WAT      O70639   5.636   9.826   7.160
23466WAT     H170640   5.712   9.885   7.133
23466WAT     H270641   5.664   9.769   7.237
23467WAT      O70642   7.002   3.201   3.847
23467WAT     H170643   6.953   3.114   3.857
23467WAT     H270644   6.958   3.272   3.902
23468WAT      O70645   5.124   8.615   8.498
23468WAT     H170646   5.086   8.707   8.509
23468WAT     H270647   5.064   8.560   8.441
23469WAT      O70648   0.443   2.356   1.815
23469WAT     H170649   0.395   2.269   1.819
23469WAT     H270650   0.524   2.347   1.758
23470WAT      O70651   9.647   0.314   9.005
23470WAT     H170652   9.571   0.265   8.963
23470WAT     H270653   9.614   0.395   9.052
23471WAT      O70654   0.044   3.394   7.463
23471WAT     H170655  -0.038   3.438   7.427
23471WAT     H270656   0.113   3.386   7.391
23472WAT      O70657   9.757   3.233   8.663
23472WAT     H170658   9.717   3.254   8.752
23472WAT     H270659   9.850   3.199   8.676
23473WAT      O70660   8.960   1.249   4.479
23473WAT     H170661   9.013   1.293   4.406
23473WAT     H270662   8.863   1.257   4.458
23474WAT      O70663   2.058   3.419   3.470
23474WAT     H170664   1.992   3.365   3.522
23474WAT     H270665   2.085   3.499   3.524
23475WAT      O70666   6.247   5.913   5.750
23475WAT     H170667   6.190   5.881   5.674
23475WAT     H270668   6.202   5.893   5.837
23476WAT      O70669   3.191   4.485   2.883
23476WAT     H170670   3.220   4.557   2.945
23476WAT     H270671   3.116   4.517   2.826
23477WAT      O70672   2.526   6.209   1.066
23477WAT     H170673   2.576   6.126   1.040
23477WAT     H270674   2.591   6.282   1.086
23478WAT      O70675   2.058   5.689   0.291
23478WAT     H170676   2.099   5.729   0.210
23478WAT     H270677   2.119   5.702   0.369
23479WAT      O70678   0.996   5.423   9.325
23479WAT     H170679   0.959   5.381   9.242
23479WAT     H270680   0.927   5.422   9.397
23480WAT      O70681   7.960   2.925   8.517
23480WAT     H170682   8.023   3.002   8.514
23480WAT     H270683   7.995   2.854   8.579
23481WAT      O70684   5.050   3.670   7.524
23481WAT     H170685   5.112   3.719   7.462
23481WAT     H270686   5.012   3.590   7.477
23482WAT      O70687   1.316   9.132   2.299
23482WAT     H170688   1.285   9.041   2.271
23482WAT     H270689   1.245   9.199   2.278
23483WAT      O70690   3.139   9.773   0.028
23483WAT     H170691   3.112   9.838   0.099
23483WAT     H270692   3.212   9.714   0.064
23484WAT      O70693   2.469   2.018   6.302
23484WAT     H170694   2.393   1.953   6.310
23484WAT     H270695   2.553   1.977   6.338
23485WAT      O70696   7.177   8.199   7.381
23485WAT     H170697   7.226   8.140   7.317
23485WAT     H270698   7.102   8.148   7.423
23486WAT      O70699   8.974   0.884   4.451
23486WAT     H170700   8.916   0.953   4.495
23486WAT     H270701   8.934   0.859   4.363
23487WAT      O70702   5.379   8.451   2.795
23487WAT     H170703   5.436   8.382   2.751
23487WAT     H270704   5.430   8.494   2.870
23488WAT      O70705   4.485   1.531   0.252
23488WAT     H170706   4.473   1.543   0.153
23488WAT     H270707   4.580   1.506   0.272
23489WAT      O70708   2.506   8.546   1.913
23489WAT     H170709   2.446   8.499   1.848
23489WAT     H270710   2.565   8.479   1.959
23490WAT      O70711   7.083   9.464   0.896
23490WAT     H170712   7.002   9.410   0.918
23490WAT     H270713   7.126   9.496   0.980
23491WAT      O70714   5.113   0.418   2.283
23491WAT     H170715   5.183   0.433   2.213
23491WAT     H270716   5.100   0.502   2.336
23492WAT      O70717   6.100   8.451   9.412
23492WAT     H170718   6.169   8.379   9.409
23492WAT     H270719   6.059   8.462   9.322
23493WAT      O70720   5.921   1.823   0.101
23493WAT     H170721   5.822   1.814   0.088
23493WAT     H270722   5.953   1.903   0.051
23494WAT      O70723   6.127   8.316   0.835
23494WAT     H170724   6.070   8.272   0.766
23494WAT     H270725   6.080   8.315   0.923
23495WAT      O70726   9.711   8.772   7.652
23495WAT     H170727   9.802   8.813   7.641
23495WAT     H270728   9.664   8.771   7.564
23496WAT      O70729   3.805   2.715   3.333
23496WAT     H170730   3.765   2.711   3.242
23496WAT     H270731   3.857   2.800   3.344
23497WAT      O70732   5.884   3.729   2.107
23497WAT     H170733   5.890   3.646   2.051
23497WAT     H270734   5.962   3.788   2.087
23498WAT      O70735   0.516   4.880   9.406
23498WAT     H170736   0.420   4.901   9.424
23498WAT     H270737   0.535   4.889   9.308
23499WAT      O70738   6.035   6.579   7.673
23499WAT     H170739   6.014   6.601   7.769
23499WAT     H270740   6.014   6.658   7.616
23500WAT      O70741   7.092   2.516   6.295
23500WAT     H170742   7.022   2.579   6.262
23500WAT     H270743   7.087   2.509   6.395
23501WAT      O70744   6.139   8.578   0.244
23501WAT     H170745   6.155   8.483   0.215
23501WAT     H270746   6.117   8.580   0.341
23502WAT      O70747   9.381   1.411   2.053
23502WAT     H170748   9.404   1.342   2.122
23502WAT     H270749   9.460   1.426   1.993
23503WAT      O70750   0.048   4.274   0.821
23503WAT     H170751  -0.014   4.276   0.899
23503WAT     H270752   0.005   4.227   0.745
23504WAT      O70753   4.777   6.937   1.073
23504WAT     H170754   4.773   7.001   0.996
23504WAT     H270755   4.695   6.880   1.073
23505WAT      O70756   6.753   6.749   8.228
23505WAT     H170757   6.704   6.830   8.196
23505WAT     H270758   6.704   6.710   8.307
23506WAT      O70759   9.066   7.041   1.744
23506WAT     H170760   9.062   7.129   1.697
23506WAT     H270761   9.103   7.054   1.836
23507WAT      O70762   5.732   1.348   4.462
23507WAT     H170763   5.670   1.369   4.538
23507WAT     H270764   5.823   1.328   4.498
23508WAT      O70765   5.967   2.426   5.368
23508WAT     H170766   5.964   2.518   5.405
23508WAT     H270767   5.924   2.425   5.278
23509WAT      O70768   4.134   2.920   4.998
23509WAT     H170769   4.200   2.995   4.988
23509WAT     H270770   4.042   2.954   4.975
23510WAT      O70771   8.331   5.646   1.711
23510WAT     H170772   8.309   5.563   1.764
23510WAT     H270773   8.255   5.666   1.649
23511WAT      O70774   7.375   9.735   0.381
23511WAT     H170775   7.318   9.683   0.445
23511WAT     H270776   7.470   9.730   0.410
23512WAT      O70777   7.821   0.302   6.001
23512WAT     H170778   7.793   0.398   5.992
23512WAT     H270779   7.759   0.244   5.948
23513WAT      O70780   6.159   2.697   4.198
23513WAT     H170781   6.066   2.660   4.197
23513WAT     H270782   6.222   2.629   4.235
23514WAT      O70783   5.152   8.114   9.307
23514WAT     H170784   5.061   8.090   9.341
23514WAT     H270785   5.174   8.058   9.227
23515WAT      O70786   8.072   7.831   8.879
23515WAT     H170787   8.029   7.787   8.957
23515WAT     H270788   8.004   7.843   8.806
23516WAT      O70789   4.220   5.511   0.368
23516WAT     H170790   4.170   5.461   0.439
23516WAT     H270791   4.317   5.514   0.391
23517WAT      O70792   7.870   5.968   5.719
23517WAT     H170793   7.849   5.893   5.781
23517WAT     H270794   7.819   6.050   5.746
23518WAT      O70795   4.498   1.185   7.858
23518WAT     H170796   4.553   1.266   7.880
23518WAT     H270797   4.429   1.208   7.789
23519WAT      O70798   5.797   2.951   3.749
23519WAT     H170799   5.797   2.854   3.725
23519WAT     H270800   5.712   2.994   3.719
23520WAT      O70801   5.820   8.443   2.614
23520WAT     H170802   5.817   8.412   2.518
23520WAT     H270803   5.838   8.541   2.616
23521WAT      O70804   2.846   9.286   6.256
23521WAT     H170805   2.859   9.365   6.315
23521WAT     H270806   2.782   9.222   6.299
23522WAT      O70807   7.806   5.746   1.267
23522WAT     H170808   7.833   5.832   1.310
23522WAT     H270809   7.709   5.729   1.286
23523WAT      O70810   4.891   0.869   4.985
23523WAT     H170811   4.811   0.928   4.993
23523WAT     H270812   4.893   0.827   4.894
23524WAT      O70813   2.691   1.165   8.972
23524WAT     H170814   2.761   1.210   8.916
23524WAT     H270815   2.688   1.210   9.062
23525WAT      O70816   9.254   7.721   6.920
23525WAT     H170817   9.325   7.766   6.974
23525WAT     H270818   9.237   7.629   6.956
23526WAT      O70819   4.998   5.151   3.724
23526WAT     H170820   4.956   5.148   3.633
23526WAT     H270821   5.040   5.062   3.744
23527WAT      O70822   5.503   8.405   7.953
23527WAT     H170823   5.516   8.380   8.049
23527WAT     H270824   5.413   8.448   7.942
23528WAT      O70825   0.470   8.211   9.420
23528WAT     H170826   0.567   8.186   9.419
23528WAT     H270827   0.462   8.310   9.431
23529WAT      O70828   3.317   8.590   6.578
23529WAT     H170829   3.363   8.512   6.536
23529WAT     H270830   3.250   8.628   6.514
23530WAT      O70831   7.297   9.429   5.702
23530WAT     H170832   7.246   9.409   5.618
23530WAT     H270833   7.234   9.462   5.772
23531WAT      O70834   7.687   2.908   8.591
23531WAT     H170835   7.651   2.840   8.527
23531WAT     H270836   7.765   2.956   8.549
23532WAT      O70837   0.292   6.987   9.652
23532WAT     H170838   0.332   6.990   9.744
23532WAT     H270839   0.192   6.989   9.660
23533WAT      O70840   8.216   4.688   1.935
23533WAT     H170841   8.248   4.754   2.003
23533WAT     H270842   8.185   4.736   1.853
23534WAT      O70843   3.297   5.853   2.548
23534WAT     H170844   3.371   5.905   2.506
23534WAT     H270845   3.219   5.847   2.485
23535WAT      O70846   2.887   7.598   7.364
23535WAT     H170847   2.871   7.505   7.331
23535WAT     H270848   2.968   7.600   7.422
23536WAT      O70849   7.678   5.556   2.802
23536WAT     H170850   7.751   5.607   2.757
23536WAT     H270851   7.589   5.595   2.777
23537WAT      O70852   0.646   2.038   1.754
23537WAT     H170853   0.673   2.125   1.795
23537WAT     H270854   0.559   2.009   1.793
23538WAT      O70855   5.456   3.373   1.480
23538WAT     H170856   5.423   3.336   1.567
23538WAT     H270857   5.555   3.384   1.483
23539WAT      O70858   9.340   5.541   2.328
23539WAT     H170859   9.356   5.635   2.359
23539WAT     H270860   9.326   5.542   2.229
23540WAT      O70861   0.493   8.861   6.637
23540WAT     H170862   0.428   8.936   6.647
23540WAT     H270863   0.539   8.844   6.724
23541WAT      O70864   0.406   5.578   4.183
23541WAT     H170865   0.339   5.509   4.156
23541WAT     H270866   0.359   5.659   4.217
23542WAT      O70867   0.992   3.798   5.026
23542WAT     H170868   1.049   3.716   5.032
23542WAT     H270869   0.929   3.800   5.104
23543WAT      O70870   4.145   1.931   5.467
23543WAT     H170871   4.123   2.029   5.463
23543WAT     H270872   4.069   1.881   5.508
23544WAT      O70873   7.956   0.269   5.668
23544WAT     H170874   7.997   0.334   5.603
23544WAT     H270875   8.016   0.259   5.747
23545WAT      O70876   3.147   4.046   3.920
23545WAT     H170877   3.146   4.035   3.821
23545WAT     H270878   3.235   4.082   3.949
23546WAT      O70879   7.659   7.882   7.320
23546WAT     H170880   7.650   7.943   7.241
23546WAT     H270881   7.574   7.884   7.373
23547WAT      O70882   1.146   1.294   5.116
23547WAT     H170883   1.164   1.391   5.132
23547WAT     H270884   1.161   1.244   5.201
23548WAT      O70885   8.959   0.783   9.423
23548WAT     H170886   8.990   0.865   9.375
23548WAT     H270887   8.933   0.713   9.357
23549WAT      O70888   0.385   8.014   2.762
23549WAT     H170889   0.296   8.042   2.727
23549WAT     H270890   0.385   7.915   2.779
23550WAT      O70891   8.988   6.761   8.808
23550WAT     H170892   8.994   6.859   8.828
23550WAT     H270893   8.952   6.713   8.888
23551WAT      O70894   4.339   0.871   7.155
23551WAT     H170895   4.327   0.772   7.145
23551WAT     H270896   4.252   0.911   7.184
23552WAT      O70897   0.238   8.650   0.825
23552WAT     H170898   0.242   8.743   0.859
23552WAT     H270899   0.311   8.636   0.757
23553WAT      O70900   6.425   0.763   3.856
23553WAT     H170901   6.386   0.854   3.872
23553WAT     H270902   6.488   0.740   3.930
23554WAT      O70903   8.548   0.800   2.846
23554WAT     H170904   8.635   0.765   2.811
23554WAT     H270905   8.525   0.885   2.798
23555WAT      O70906   1.115   6.715   7.312
23555WAT     H170907   1.169   6.677   7.387
23555WAT     H270908   1.161   6.796   7.275
23556WAT      O70909   9.250   6.350   3.120
23556WAT     H170910   9.339   6.328   3.080
23556WAT     H270911   9.244   6.310   3.211
23557WAT      O70912   1.927   2.392   5.784
23557WAT     H170913   1.860   2.459   5.751
23557WAT     H270914   2.008   2.441   5.815
23558WAT      O70915   5.738   6.236   5.963
23558WAT     H170916   5.810   6.174   5.931
23558WAT     H270917   5.749   6.251   6.062
23559WAT      O70918   7.590   1.350   6.065
23559WAT     H170919   7.650   1.390   6.133
23559WAT     H270920   7.521   1.293   6.110
23560WAT      O70921   9.275   7.754   2.204
23560WAT     H170922   9.302   7.826   2.267
23560WAT     H270923   9.342   7.679   2.207
23561WAT      O70924   1.807   5.316   9.360
23561WAT     H170925   1.799   5.350   9.454
23561WAT     H270926   1.725   5.340   9.309
23562WAT      O70927   5.122   6.021   0.921
23562WAT     H170928   5.044   6.039   0.981
23562WAT     H270929   5.203   6.067   0.956
23563WAT      O70930   2.508   7.244   5.440
23563WAT     H170931   2.422   7.193   5.438
23563WAT     H270932   2.519   7.292   5.353
23564WAT      O70933   7.761   7.046   2.154
23564WAT     H170934   7.791   7.054   2.249
23564WAT     H270935   7.758   6.949   2.128
23565WAT      O70936   4.219   5.482   4.860
23565WAT     H170937   4.158   5.442   4.928
23565WAT     H270938   4.166   5.515   4.782
23566WAT      O70939   1.805   9.742   2.738
23566WAT     H170940   1.780   9.823   2.685
23566WAT     H270941   1.905   9.737   2.746
23567WAT      O70942   6.794   9.589   5.871
23567WAT     H170943   6.707   9.548   5.896
23567WAT     H270944   6.814   9.666   5.932
23568WAT      O70945   8.094   4.222   9.606
23568WAT     H170946   8.174   4.246   9.661
23568WAT     H270947   8.033   4.301   9.601
23569WAT      O70948   7.177   8.461   0.583
23569WAT     H170949   7.254   8.518   0.553
23569WAT     H270950   7.109   8.519   0.628
23570WAT      O70951   3.167   4.473   3.471
23570WAT     H170952   3.242   4.512   3.525
23570WAT     H270953   3.111   4.547   3.434
23571WAT      O70954   8.252   0.494   3.169
23571WAT     H170955   8.167   0.500   3.222
23571WAT     H270956   8.278   0.585   3.138
23572WAT      O70957   4.521   1.517   8.759
23572WAT     H170958   4.555   1.524   8.853
23572WAT     H270959   4.558   1.435   8.716
23573WAT      O70960   2.347   1.178   6.715
23573WAT     H170961   2.259   1.224   6.706
23573WAT     H270962   2.396   1.180   6.628
23574WAT      O70963   9.041   3.386   5.215
23574WAT     H170964   9.093   3.450   5.157
23574WAT     H270965   8.945   3.387   5.187
23575WAT      O70966   1.232   2.968   6.689
23575WAT     H170967   1.215   2.885   6.637
23575WAT     H270968   1.175   2.968   6.772
23576WAT      O70969   7.936   3.156   9.770
23576WAT     H170970   7.907   3.154   9.674
23576WAT     H270971   7.883   3.225   9.819
23577WAT      O70972   5.001   2.892   0.706
23577WAT     H170973   5.085   2.882   0.760
23577WAT     H270974   5.025   2.923   0.614
23578WAT      O70975   1.398   9.832   7.964
23578WAT     H170976   1.377   9.930   7.960
23578WAT     H270977   1.313   9.780   7.966
23579WAT      O70978   6.934   3.525   5.493
23579WAT     H170979   6.861   3.531   5.425
23579WAT     H270980   7.022   3.522   5.447
23580WAT      O70981   2.762   4.166   2.693
23580WAT     H170982   2.842   4.154   2.751
23580WAT     H270983   2.694   4.221   2.740
23581WAT      O70984   9.212   3.040   3.127
23581WAT     H170985   9.310   3.023   3.117
23581WAT     H270986   9.163   2.954   3.129
23582WAT      O70987   4.679   2.979   2.158
23582WAT     H170988   4.750   2.909   2.169
23582WAT     H270989   4.696   3.053   2.223
23583WAT      O70990   5.893   3.351   0.064
23583WAT     H170991   5.952   3.298   0.003
23583WAT     H270992   5.890   3.307   0.154
23584WAT      O70993   6.487   3.679   1.132
23584WAT     H170994   6.581   3.651   1.109
23584WAT     H270995   6.484   3.708   1.228
23585WAT      O70996   8.910   4.059   6.402
23585WAT     H170997   8.876   4.129   6.465
23585WAT     H270998   8.911   4.096   6.309
23586WAT      O70999   8.878   0.440   2.191
23586WAT     H171000   8.928   0.499   2.255
23586WAT     H271001   8.944   0.395   2.129
23587WAT      O71002   4.984   6.366   0.874
23587WAT     H171003   5.058   6.349   0.809
23587WAT     H271004   4.901   6.319   0.844
23588WAT      O71005   7.620   7.712   5.329
23588WAT     H171006   7.688   7.766   5.280
23588WAT     H271007   7.528   7.746   5.308
23589WAT      O71008   8.343   2.562   2.586
23589WAT     H171009   8.395   2.501   2.525
23589WAT     H271010   8.266   2.601   2.536
23590WAT      O71011   9.025   8.360   5.679
23590WAT     H171012   8.988   8.304   5.754
23590WAT     H271013   8.957   8.364   5.605
23591WAT      O71014   1.161   3.452   9.280
23591WAT     H171015   1.095   3.523   9.305
23591WAT     H271016   1.254   3.484   9.302
23592WAT      O71017   0.069   0.720   8.335
23592WAT     H171018   0.049   0.719   8.433
23592WAT     H271019   0.133   0.795   8.315
23593WAT      O71020   5.133   3.346   5.936
23593WAT     H171021   5.171   3.267   5.888
23593WAT     H271022   5.062   3.316   5.999
23594WAT      O71023   0.366   2.656   5.676
23594WAT     H171024   0.437   2.603   5.631
23594WAT     H271025   0.300   2.689   5.608
23595WAT      O71026   7.566   5.030   8.265
23595WAT     H171027   7.643   4.988   8.313
23595WAT     H271028   7.485   5.026   8.323
23596WAT      O71029   8.631   7.092   4.671
23596WAT     H171030   8.557   7.049   4.619
23596WAT     H271031   8.662   7.174   4.623
23597WAT      O71032   8.073   9.726   0.606
23597WAT     H171033   8.043   9.821   0.602
23597WAT     H271034   8.063   9.692   0.700
23598WAT      O71035   0.208   8.811   3.532
23598WAT     H171036   0.162   8.764   3.456
23598WAT     H271037   0.146   8.818   3.610
23599WAT      O71038   6.416   6.469   4.395
23599WAT     H171039   6.443   6.394   4.334
23599WAT     H271040   6.496   6.525   4.416
23600WAT      O71041   3.473   1.570   4.325
23600WAT     H171042   3.500   1.641   4.390
23600WAT     H271043   3.472   1.481   4.372
23601WAT      O71044   4.401   8.415   2.079
23601WAT     H171045   4.330   8.394   2.012
23601WAT     H271046   4.467   8.479   2.039
23602WAT      O71047   5.921   1.587   5.866
23602WAT     H171048   5.852   1.659   5.861
23602WAT     H271049   5.964   1.588   5.957
23603WAT      O71050   7.413   9.218   3.399
23603WAT     H171051   7.344   9.180   3.337
23603WAT     H271052   7.411   9.318   3.395
23604WAT      O71053   5.054   1.786   7.642
23604WAT     H171054   5.099   1.769   7.555
23604WAT     H271055   4.998   1.707   7.667
23605WAT      O71056   6.357   1.106   5.729
23605WAT     H171057   6.348   1.128   5.826
23605WAT     H271058   6.413   1.176   5.684
23606WAT      O71059   0.571   6.846   9.838
23606WAT     H171060   0.616   6.933   9.855
23606WAT     H271061   0.578   6.822   9.741
23607WAT      O71062   9.131   2.909   7.269
23607WAT     H171063   9.117   2.810   7.262
23607WAT     H271064   9.224   2.927   7.302
23608WAT      O71065   2.030   7.350   1.619
23608WAT     H171066   1.977   7.374   1.537
23608WAT     H271067   2.000   7.261   1.652
23609WAT      O71068   3.028   0.872   9.525
23609WAT     H171069   2.939   0.875   9.571
23609WAT     H271070   3.029   0.796   9.460
23610WAT      O71071   2.775   9.086   7.525
23610WAT     H171072   2.718   9.151   7.575
23610WAT     H271073   2.863   9.129   7.504
23611WAT      O71074   8.019   1.795   9.214
23611WAT     H171075   7.973   1.707   9.225
23611WAT     H271076   8.113   1.788   9.247
23612WAT      O71077   3.927   6.060   3.075
23612WAT     H171078   3.931   6.159   3.071
23612WAT     H271079   3.974   6.028   3.158
23613WAT      O71080   0.350   9.233   4.845
23613WAT     H171081   0.350   9.322   4.892
23613WAT     H271082   0.400   9.241   4.759
23614WAT      O71083   5.260   1.976   8.806
23614WAT     H171084   5.191   1.907   8.781
23614WAT     H271085   5.245   2.059   8.754
23615WAT      O71086   4.020   9.196   6.516
23615WAT     H171087   4.085   9.234   6.450
23615WAT     H271088   4.052   9.215   6.609
23616WAT      O71089   8.947   5.000   9.262
23616WAT     H171090   9.003   4.921   9.238
23616WAT     H271091   8.915   5.046   9.179
23617WAT      O71092   6.856   3.467   7.090
23617WAT     H171093   6.863   3.389   7.029
23617WAT     H271094   6.794   3.535   7.050
23618WAT      O71095   5.035   1.296   2.445
23618WAT     H171096   5.015   1.303   2.348
23618WAT     H271097   4.957   1.255   2.493
23619WAT      O71098   5.850   3.958   9.584
23619WAT     H171099   5.916   4.003   9.524
23619WAT     H271100   5.791   3.898   9.530
23620WAT      O71101   0.234   0.103   7.236
23620WAT     H171102   0.209   0.008   7.251
23620WAT     H271103   0.180   0.162   7.295
23621WAT      O71104   6.092   8.689   4.089
23621WAT     H171105   6.113   8.687   4.187
23621WAT     H271106   5.995   8.670   4.075
23622WAT      O71107   4.007   6.030   2.743
23622WAT     H171108   3.987   6.050   2.839
23622WAT     H271109   4.095   6.070   2.718
23623WAT      O71110   0.942   9.061   5.660
23623WAT     H171111   0.962   9.117   5.580
23623WAT     H271112   0.848   9.078   5.690
23624WAT      O71113   6.622   3.052   4.938
23624WAT     H171114   6.718   3.049   4.912
23624WAT     H271115   6.566   3.033   4.857
23625WAT      O71116   3.663   5.493   0.069
23625WAT     H171117   3.709   5.555   0.133
23625WAT     H271118   3.731   5.438   0.021
23626WAT      O71119   6.027   0.927   8.207
23626WAT     H171120   5.946   0.897   8.158
23626WAT     H271121   6.036   1.026   8.200
23627WAT      O71122   8.709   1.661   6.952
23627WAT     H171123   8.805   1.682   6.936
23627WAT     H271124   8.679   1.590   6.887
23628WAT      O71125   1.417   9.626   1.962
23628WAT     H171126   1.360   9.570   2.022
23628WAT     H271127   1.421   9.584   1.871
23629WAT      O71128   3.374   8.712   8.521
23629WAT     H171129   3.446   8.764   8.565
23629WAT     H271130   3.410   8.623   8.491
23630WAT      O71131   6.528   8.313   5.220
23630WAT     H171132   6.441   8.322   5.267
23630WAT     H271133   6.517   8.342   5.125
23631WAT      O71134   8.389   5.542   5.714
23631WAT     H171135   8.332   5.600   5.655
23631WAT     H271136   8.484   5.574   5.710
23632WAT      O71137   3.219   0.093   2.862
23632WAT     H171138   3.235   0.007   2.814
23632WAT     H271139   3.253   0.169   2.807
23633WAT      O71140   1.371   5.597   0.525
23633WAT     H171141   1.310   5.650   0.466
23633WAT     H271142   1.334   5.505   0.537
23634WAT      O71143   0.911   3.429   9.554
23634WAT     H171144   0.938   3.501   9.490
23634WAT     H271145   0.992   3.391   9.598
23635WAT      O71146   5.246   6.876   4.585
23635WAT     H171147   5.327   6.818   4.587
23635WAT     H271148   5.224   6.906   4.678
23636WAT      O71149   5.345   7.744   0.288
23636WAT     H171150   5.409   7.669   0.270
23636WAT     H271151   5.396   7.824   0.319
23637WAT      O71152   3.373   8.371   5.118
23637WAT     H171153   3.429   8.291   5.140
23637WAT     H271154   3.421   8.454   5.148
23638WAT      O71155   1.901   6.926   2.494
23638WAT     H171156   1.988   6.910   2.447
23638WAT     H271157   1.827   6.887   2.440
23639WAT      O71158   0.367   9.041   8.366
23639WAT     H171159   0.418   9.084   8.440
23639WAT     H271160   0.394   8.945   8.358
23640WAT      O71161   6.632   3.311   7.843
23640WAT     H171162   6.577   3.240   7.798
23640WAT     H271163   6.618   3.398   7.796
23641WAT      O71164   6.973   9.760   7.269
23641WAT     H171165   6.968   9.811   7.355
23641WAT     H271166   7.055   9.786   7.219
23642WAT      O71167   5.566   7.324   2.177
23642WAT     H171168   5.624   7.313   2.096
23642WAT     H271169   5.584   7.250   2.242
23643WAT      O71170   8.111   6.867   2.291
23643WAT     H171171   8.050   6.880   2.369
23643WAT     H271172   8.202   6.843   2.324
23644WAT      O71173   9.451   1.232   9.856
23644WAT     H171174   9.550   1.240   9.865
23644WAT     H271175   9.415   1.310   9.805
23645WAT      O71176   8.288   8.523   6.581
23645WAT     H171177   8.313   8.427   6.593
23645WAT     H271178   8.215   8.547   6.646
23646WAT      O71179   9.166   7.687   5.460
23646WAT     H171180   9.157   7.608   5.399
23646WAT     H271181   9.092   7.687   5.526
23647WAT      O71182   8.435   5.267   9.609
23647WAT     H171183   8.381   5.201   9.557
23647WAT     H271184   8.462   5.226   9.697
23648WAT      O71185   2.972   7.207   4.814
23648WAT     H171186   2.939   7.224   4.721
23648WAT     H271187   3.049   7.143   4.810
23649WAT      O71188   7.647   0.745   9.885
23649WAT     H171189   7.586   0.697   9.948
23649WAT     H271190   7.742   0.724   9.908
23650WAT      O71191   4.701   0.657   1.277
23650WAT     H171192   4.703   0.655   1.177
23650WAT     H271193   4.655   0.575   1.312
23651WAT      O71194   1.845   3.906   7.538
23651WAT     H171195   1.790   3.841   7.591
23651WAT     H271196   1.800   3.923   7.451
23652WAT      O71197   6.589   4.838   4.151
23652WAT     H171198   6.575   4.918   4.092
23652WAT     H271199   6.660   4.859   4.219
23653WAT      O71200   1.551   3.258   1.882
23653WAT     H171201   1.518   3.169   1.914
23653WAT     H271202   1.575   3.315   1.961
23654WAT      O71203   8.518   2.369   1.408
23654WAT     H171204   8.459   2.448   1.389
23654WAT     H271205   8.545   2.371   1.504
23655WAT      O71206   3.274   8.268   6.829
23655WAT     H171207   3.240   8.258   6.736
23655WAT     H271208   3.212   8.325   6.882
23656WAT      O71209   8.997   0.171   6.451
23656WAT     H171210   8.977   0.116   6.532
23656WAT     H271211   9.075   0.230   6.468
23657WAT      O71212   5.180   4.652   8.084
23657WAT     H171213   5.224   4.575   8.039
23657WAT     H271214   5.222   4.667   8.174
23658WAT      O71215   3.577   4.889   0.131
23658WAT     H171216   3.493   4.891   0.078
23658WAT     H271217   3.556   4.888   0.228
23659WAT      O71218   6.835   6.132   4.262
23659WAT     H171219   6.853   6.187   4.180
23659WAT     H271220   6.902   6.155   4.333
23660WAT      O71221   0.780   6.613   1.637
23660WAT     H171222   0.780   6.559   1.553
23660WAT     H271223   0.852   6.682   1.632
23661WAT      O71224   4.723   8.315   3.782
23661WAT     H171225   4.647   8.261   3.816
23661WAT     H271226   4.754   8.378   3.853
23662WAT      O71227   9.242   7.535   9.710
23662WAT     H171228   9.265   7.531   9.613
23662WAT     H271229   9.326   7.547   9.764
23663WAT      O71230   3.733   8.207   7.022
23663WAT     H171231   3.689   8.252   7.100
23663WAT     H271232   3.727   8.108   7.032
23664WAT      O71233   6.749   3.850   1.983
23664WAT     H171234   6.809   3.908   1.928
23664WAT     H271235   6.656   3.888   1.983
23665WAT      O71236   3.168   7.193   2.758
23665WAT     H171237   3.252   7.137   2.761
23665WAT     H271238   3.123   7.189   2.847
23666WAT      O71239   9.660   2.845   4.262
23666WAT     H171240   9.633   2.844   4.166
23666WAT     H271241   9.760   2.841   4.269
23667WAT      O71242   5.818   1.750   1.634
23667WAT     H171243   5.858   1.682   1.573
23667WAT     H271244   5.718   1.746   1.629
23668WAT      O71245   6.210   0.264   1.167
23668WAT     H171246   6.111   0.257   1.183
23668WAT     H271247   6.249   0.330   1.232
23669WAT      O71248   8.572   5.422   3.893
23669WAT     H171249   8.592   5.453   3.986
23669WAT     H271250   8.493   5.361   3.894
23670WAT      O71251   6.435   5.937   4.072
23670WAT     H171252   6.524   5.905   4.104
23670WAT     H271253   6.447   6.023   4.022
23671WAT      O71254   4.410   3.318   5.021
23671WAT     H171255   4.442   3.231   5.059
23671WAT     H271256   4.318   3.337   5.055
23672WAT      O71257   4.348   3.205   4.163
23672WAT     H171258   4.407   3.195   4.083
23672WAT     H271259   4.324   3.301   4.176
23673WAT      O71260   6.084   8.555   0.495
23673WAT     H171261   6.013   8.624   0.483
23673WAT     H271262   6.042   8.468   0.521
23674WAT      O71263   0.216   6.787   0.456
23674WAT     H171264   0.183   6.693   0.452
23674WAT     H271265   0.177   6.833   0.536
23675WAT      O71266   2.946   4.766   8.264
23675WAT     H171267   2.924   4.831   8.337
23675WAT     H271268   2.994   4.687   8.303
23676WAT      O71269   0.774   0.156   3.405
23676WAT     H171270   0.804   0.111   3.489
23676WAT     H271271   0.707   0.226   3.427
23677WAT      O71272   5.011   6.241   7.455
23677WAT     H171273   5.089   6.265   7.513
23677WAT     H271274   5.026   6.276   7.363
23678WAT      O71275   3.055   8.725   2.898
23678WAT     H171276   3.100   8.644   2.937
23678WAT     H271277   2.987   8.696   2.831
23679WAT      O71278   8.778   0.829   9.589
23679WAT     H171279   8.815   0.835   9.682
23679WAT     H271280   8.853   0.810   9.525
23680WAT      O71281   1.960   4.016   0.650
23680WAT     H171282   1.969   4.008   0.551
23680WAT     H271283   1.884   4.076   0.672
23681WAT      O71284   4.200   6.892   9.671
23681WAT     H171285   4.131   6.905   9.600
23681WAT     H271286   4.255   6.974   9.680
23682WAT      O71287   9.363   0.669   7.484
23682WAT     H171288   9.346   0.711   7.574
23682WAT     H271289   9.385   0.740   7.418
23683WAT      O71290   7.280   3.214   1.749
23683WAT     H171291   7.212   3.257   1.688
23683WAT     H271292   7.360   3.188   1.696
23684WAT      O71293   8.727   4.651   2.152
23684WAT     H171294   8.698   4.739   2.114
23684WAT     H271295   8.732   4.583   2.078
23685WAT      O71296   1.900   3.842   9.563
23685WAT     H171297   1.956   3.843   9.480
23685WAT     H271298   1.925   3.763   9.619
23686WAT      O71299   1.432   2.187   3.797
23686WAT     H171300   1.509   2.193   3.861
23686WAT     H271301   1.380   2.104   3.815
23687WAT      O71302   5.045   5.344   9.819
23687WAT     H171303   5.010   5.286   9.745
23687WAT     H271304   5.083   5.286   9.891
23688WAT      O71305   5.810   4.431   9.481
23688WAT     H171306   5.826   4.388   9.392
23688WAT     H271307   5.750   4.373   9.536
23689WAT      O71308   3.251   4.383   8.314
23689WAT     H171309   3.233   4.367   8.411
23689WAT     H271310   3.333   4.439   8.304
23690WAT      O71311   1.270   1.991   1.440
23690WAT     H171312   1.280   1.964   1.536
23690WAT     H271313   1.177   1.969   1.409
23691WAT      O71314   7.985   8.969   5.015
23691WAT     H171315   7.977   8.896   5.082
23691WAT     H271316   8.053   9.036   5.046
23692WAT      O71317   1.012   8.185   1.204
23692WAT     H171318   0.948   8.189   1.281
23692WAT     H271319   0.970   8.230   1.124
23693WAT      O71320   8.942   6.362   8.787
23693WAT     H171321   8.972   6.284   8.733
23693WAT     H271322   8.992   6.364   8.874
23694WAT      O71323   1.506   4.085   3.638
23694WAT     H171324   1.592   4.080   3.588
23694WAT     H271325   1.512   4.155   3.708
23695WAT      O71326   3.566   6.185   0.258
23695WAT     H171327   3.486   6.174   0.199
23695WAT     H271328   3.634   6.242   0.212
23696WAT      O71329   3.579   0.873   3.726
23696WAT     H171330   3.653   0.814   3.756
23696WAT     H271331   3.491   0.835   3.753
23697WAT      O71332   5.427   2.017   6.320
23697WAT     H171333   5.344   2.072   6.322
23697WAT     H271334   5.452   1.996   6.225
23698WAT      O71335   6.332   1.958   8.986
23698WAT     H171336   6.241   1.945   8.949
23698WAT     H271337   6.391   1.882   8.958
23699WAT      O71338   3.005   4.258   3.486
23699WAT     H171339   3.063   4.338   3.471
23699WAT     H271340   2.956   4.236   3.401
23700WAT      O71341   9.003   0.592   1.552
23700WAT     H171342   8.982   0.585   1.649
23700WAT     H271343   9.100   0.614   1.540
23701WAT      O71344   8.573   4.166   9.395
23701WAT     H171345   8.583   4.073   9.359
23701WAT     H271346   8.523   4.222   9.329
23702WAT      O71347   8.286   7.154   0.755
23702WAT     H171348   8.188   7.134   0.756
23702WAT     H271349   8.337   7.068   0.759
23703WAT      O71350   1.697   0.529   8.943
23703WAT     H171351   1.614   0.501   8.990
23703WAT     H271352   1.717   0.465   8.869
23704WAT      O71353   1.294   9.826   7.142
23704WAT     H171354   1.281   9.862   7.235
23704WAT     H271355   1.241   9.881   7.078
23705WAT      O71356   6.317   8.424   3.765
23705WAT     H171357   6.315   8.477   3.850
23705WAT     H271358   6.254   8.347   3.772
23706WAT      O71359   1.044   5.972   8.348
23706WAT     H171360   0.962   5.945   8.398
23706WAT     H271361   1.093   5.890   8.317
23707WAT      O71362   4.229   7.223   3.110
23707WAT     H171363   4.208   7.247   3.015
23707WAT     H271364   4.160   7.158   3.144
23708WAT      O71365   0.624   9.477   2.670
23708WAT     H171366   0.544   9.474   2.730
23708WAT     H271367   0.644   9.573   2.647
23709WAT      O71368   1.746   4.446   8.680
23709WAT     H171369   1.838   4.471   8.710
23709WAT     H271370   1.683   4.521   8.700
23710WAT      O71371   9.201   3.697   3.607
23710WAT     H171372   9.111   3.740   3.595
23710WAT     H271373   9.195   3.601   3.580
23711WAT      O71374   8.019   7.963   0.222
23711WAT     H171375   8.014   8.059   0.194
23711WAT     H271376   8.037   7.958   0.320
23712WAT      O71377   1.345   9.622   9.567
23712WAT     H171378   1.327   9.683   9.644
23712WAT     H271379   1.369   9.531   9.602
23713WAT      O71380   7.997   8.786   6.347
23713WAT     H171381   8.047   8.699   6.343
23713WAT     H271382   7.899   8.768   6.347
23714WAT      O71383   0.259   3.203   0.535
23714WAT     H171384   0.289   3.280   0.479
23714WAT     H271385   0.331   3.180   0.601
23715WAT      O71386   0.475   0.762   7.480
23715WAT     H171387   0.387   0.805   7.459
23715WAT     H271388   0.543   0.792   7.413
23716WAT      O71389   4.577   4.135   3.757
23716WAT     H171390   4.492   4.185   3.772
23716WAT     H271391   4.561   4.060   3.693
23717WAT      O71392   9.258   0.792   2.654
23717WAT     H171393   9.300   0.801   2.744
23717WAT     H271394   9.257   0.695   2.627
23718WAT      O71395   4.123   6.072   4.507
23718WAT     H171396   4.038   6.025   4.483
23718WAT     H271397   4.104   6.169   4.525
23719WAT      O71398   6.231   7.061   1.197
23719WAT     H171399   6.215   6.967   1.167
23719WAT     H271400   6.288   7.108   1.130
23720WAT      O71401   6.826   0.537   0.223
23720WAT     H171402   6.902   0.598   0.246
23720WAT     H271403   6.823   0.462   0.289
23721WAT      O71404   8.009   1.204   4.882
23721WAT     H171405   8.056   1.160   4.959
23721WAT     H271406   7.956   1.135   4.832
23722WAT      O71407   7.819   2.983   5.155
23722WAT     H171408   7.768   3.035   5.223
23722WAT     H271409   7.763   2.969   5.074
23723WAT      O71410   3.272   0.930   2.473
23723WAT     H171411   3.337   0.855   2.463
23723WAT     H271412   3.204   0.926   2.400
23724WAT      O71413   0.702   9.408   4.653
23724WAT     H171414   0.790   9.453   4.640
23724WAT     H271415   0.650   9.412   4.567
23725WAT      O71416   7.131   0.090   1.027
23725WAT     H171417   7.170   0.180   1.010
23725WAT     H271418   7.050   0.099   1.086
23726WAT      O71419   8.822   4.926   8.129
23726WAT     H171420   8.780   5.013   8.105
23726WAT     H271421   8.752   4.855   8.131
23727WAT      O71422   6.250   3.607   3.234
23727WAT     H171423   6.345   3.636   3.224
23727WAT     H271424   6.234   3.574   3.327
23728WAT      O71425   9.121   4.512   6.400
23728WAT     H171426   9.093   4.594   6.350
23728WAT     H271427   9.050   4.487   6.466
23729WAT      O71428   2.260   9.030   5.741
23729WAT     H171429   2.312   9.080   5.810
23729WAT     H271430   2.162   9.049   5.753
23730WAT      O71431   7.050   0.766   7.065
23730WAT     H171432   6.996   0.850   7.064
23730WAT     H271433   7.045   0.722   6.975
23731WAT      O71434   6.715   6.153   0.861
23731WAT     H171435   6.702   6.140   0.763
23731WAT     H271436   6.665   6.082   0.911
23732WAT      O71437   6.326   4.387   1.299
23732WAT     H171438   6.309   4.483   1.321
23732WAT     H271439   6.242   4.335   1.310
23733WAT      O71440   1.109   6.312   8.528
23733WAT     H171441   1.088   6.395   8.477
23733WAT     H271442   1.149   6.244   8.466
23734WAT      O71443   6.600   4.184   6.225
23734WAT     H171444   6.622   4.281   6.212
23734WAT     H271445   6.530   4.157   6.159
23735WAT      O71446   3.343   4.347   1.266
23735WAT     H171447   3.391   4.435   1.257
23735WAT     H271448   3.403   4.281   1.311
23736WAT      O71449   0.569   0.388   6.225
23736WAT     H171450   0.511   0.381   6.144
23736WAT     H271451   0.604   0.481   6.233
23737WAT      O71452   1.041   6.239   3.611
23737WAT     H171453   1.019   6.165   3.674
23737WAT     H271454   0.958   6.268   3.563
23738WAT      O71455   4.887   5.504   0.098
23738WAT     H171456   4.956   5.471   0.033
23738WAT     H271457   4.930   5.567   0.163
23739WAT      O71458   4.045   6.169   5.184
23739WAT     H171459   3.951   6.138   5.183
23739WAT     H271460   4.049   6.265   5.156
23740WAT      O71461   5.237   8.524   7.922
23740WAT     H171462   5.168   8.591   7.950
23740WAT     H271463   5.197   8.432   7.922
23741WAT      O71464   1.780   9.117   8.164
23741WAT     H171465   1.822   9.062   8.092
23741WAT     H271466   1.843   9.125   8.241
23742WAT      O71467   0.349   5.495   6.617
23742WAT     H171468   0.329   5.458   6.527
23742WAT     H271469   0.449   5.497   6.631
23743WAT      O71470   1.791   1.988   5.250
23743WAT     H171471   1.776   2.080   5.214
23743WAT     H271472   1.759   1.983   5.345
23744WAT      O71473   4.970   1.704   6.557
23744WAT     H171474   5.001   1.786   6.605
23744WAT     H271475   4.927   1.641   6.621
23745WAT      O71476   5.979   3.054   6.537
23745WAT     H171477   5.952   3.023   6.628
23745WAT     H271478   6.005   3.150   6.541
23746WAT      O71479   1.400   3.637   5.564
23746WAT     H171480   1.467   3.586   5.510
23746WAT     H271481   1.440   3.725   5.592
23747WAT      O71482   0.721   8.219   5.922
23747WAT     H171483   0.667   8.211   6.006
23747WAT     H271484   0.660   8.232   5.844
23748WAT      O71485   9.643   1.397   3.185
23748WAT     H171486   9.659   1.427   3.091
23748WAT     H271487   9.545   1.383   3.200
23749WAT      O71488   0.218   8.352   8.742
23749WAT     H171489   0.137   8.328   8.797
23749WAT     H271490   0.281   8.275   8.741
23750WAT      O71491   1.142   0.429   4.680
23750WAT     H171492   1.129   0.520   4.719
23750WAT     H271493   1.237   0.400   4.695
23751WAT      O71494   8.493   1.372   9.614
23751WAT     H171495   8.435   1.419   9.680
23751WAT     H271496   8.564   1.321   9.662
23752WAT      O71497   5.366   0.235   5.090
23752WAT     H171498   5.455   0.190   5.091
23752WAT     H271499   5.345   0.269   5.182
23753WAT      O71500   7.579   3.446   7.367
23753WAT     H171501   7.581   3.462   7.466
23753WAT     H271502   7.534   3.359   7.348
23754WAT      O71503   6.735   3.101   9.752
23754WAT     H171504   6.643   3.092   9.714
23754WAT     H271505   6.729   3.127   9.848
23755WAT      O71506   9.551   7.922   6.242
23755WAT     H171507   9.517   8.011   6.213
23755WAT     H271508   9.623   7.934   6.311
23756WAT      O71509   1.169   9.650   7.992
23756WAT     H171510   1.261   9.630   8.025
23756WAT     H271511   1.102   9.629   8.064
23757WAT      O71512   7.283   4.316   3.956
23757WAT     H171513   7.294   4.414   3.967
23757WAT     H271514   7.357   4.268   4.003
23758WAT      O71515   3.142   6.059   3.155
23758WAT     H171516   3.239   6.082   3.160
23758WAT     H271517   3.118   5.998   3.231
23759WAT      O71518   1.393   4.706   2.447
23759WAT     H171519   1.342   4.673   2.527
23759WAT     H271520   1.374   4.803   2.433
23760WAT      O71521   5.608   2.398   7.348
23760WAT     H171522   5.679   2.454   7.305
23760WAT     H271523   5.649   2.315   7.386
23761WAT      O71524   4.130   2.941   8.156
23761WAT     H171525   4.112   3.021   8.214
23761WAT     H271526   4.194   2.966   8.083
23762WAT      O71527   6.059   5.385   0.010
23762WAT     H171528   5.963   5.366  -0.010
23762WAT     H271529   6.116   5.310  -0.022
23763WAT      O71530   8.622   3.150   0.313
23763WAT     H171531   8.608   3.198   0.399
23763WAT     H271532   8.699   3.086   0.322
23764WAT      O71533   3.999   5.883   7.047
23764WAT     H171534   4.080   5.837   7.011
23764WAT     H271535   3.919   5.857   6.992
23765WAT      O71536   5.989   4.434   2.882
23765WAT     H171537   5.947   4.351   2.919
23765WAT     H271538   6.042   4.479   2.954
23766WAT      O71539   8.159   2.577   3.053
23766WAT     H171540   8.151   2.611   2.960
23766WAT     H271541   8.121   2.644   3.117
23767WAT      O71542   0.980   4.862   0.301
23767WAT     H171543   1.051   4.800   0.333
23767WAT     H271544   0.938   4.824   0.218
23768WAT      O71545   9.653   1.441   2.732
23768WAT     H171546   9.704   1.410   2.652
23768WAT     H271547   9.714   1.443   2.811
23769WAT      O71548   2.379   8.168   4.121
23769WAT     H171549   2.298   8.174   4.063
23769WAT     H271550   2.456   8.212   4.075
23770WAT      O71551   0.262   4.899   8.285
23770WAT     H171552   0.170   4.860   8.295
23770WAT     H271553   0.318   4.874   8.364
23771WAT      O71554   3.401   5.118   2.713
23771WAT     H171555   3.376   5.043   2.775
23771WAT     H271556   3.323   5.180   2.703
23772WAT      O71557   5.524   4.619   7.510
23772WAT     H171558   5.619   4.593   7.528
23772WAT     H271559   5.479   4.644   7.596
23773WAT      O71560   3.401   7.712   4.747
23773WAT     H171561   3.332   7.721   4.819
23773WAT     H271562   3.360   7.668   4.667
23774WAT      O71563   6.146   3.275   6.607
23774WAT     H171564   6.213   3.316   6.546
23774WAT     H271565   6.189   3.201   6.658
23775WAT      O71566   3.948   8.682   8.817
23775WAT     H171567   3.882   8.629   8.869
23775WAT     H271568   4.025   8.623   8.791
23776WAT      O71569   5.795   1.946   2.270
23776WAT     H171570   5.857   1.868   2.262
23776WAT     H271571   5.700   1.914   2.268
23777WAT      O71572   2.922   7.425   1.923
23777WAT     H171573   2.961   7.433   1.831
23777WAT     H271574   2.856   7.349   1.924
23778WAT      O71575   3.788   1.291   3.409
23778WAT     H171576   3.853   1.343   3.464
23778WAT     H271577   3.777   1.199   3.447
23779WAT      O71578   6.852   9.330   2.574
23779WAT     H171579   6.884   9.376   2.492
23779WAT     H271580   6.920   9.340   2.647
23780WAT      O71581   2.937   2.215   3.180
23780WAT     H171582   2.985   2.129   3.165
23780WAT     H271583   3.003   2.285   3.208
23781WAT      O71584   0.351   5.643   8.046
23781WAT     H171585   0.255   5.659   8.069
23781WAT     H271586   0.385   5.719   7.990
23782WAT      O71587   0.459   1.169   5.457
23782WAT     H171588   0.492   1.176   5.551
23782WAT     H271589   0.507   1.094   5.411
23783WAT      O71590   7.377   6.268   4.048
23783WAT     H171591   7.333   6.265   4.138
23783WAT     H271592   7.339   6.196   3.990
23784WAT      O71593   8.143   8.184   7.558
23784WAT     H171594   8.170   8.280   7.562
23784WAT     H271595   8.221   8.129   7.530
23785WAT      O71596   1.660   7.868   7.261
23785WAT     H171597   1.702   7.942   7.315
23785WAT     H271598   1.676   7.780   7.308
23786WAT      O71599   2.113   7.626   8.279
23786WAT     H171600   2.136   7.653   8.373
23786WAT     H271601   2.033   7.676   8.248
23787WAT      O71602   6.767   9.077   5.541
23787WAT     H171603   6.852   9.129   5.542
23787WAT     H271604   6.781   8.988   5.585
23788WAT      O71605   0.100   1.798   2.967
23788WAT     H171606   0.001   1.792   2.970
23788WAT     H271607   0.128   1.889   2.939
23789WAT      O71608   8.997   2.132   0.470
23789WAT     H171609   8.912   2.105   0.426
23789WAT     H271610   9.075   2.100   0.416
23790WAT      O71611   8.816   8.326   9.132
23790WAT     H171612   8.778   8.371   9.051
23790WAT     H271613   8.742   8.285   9.185
23791WAT      O71614   1.425   9.143   5.907
23791WAT     H171615   1.388   9.064   5.860
23791WAT     H271616   1.369   9.164   5.987
23792WAT      O71617   4.303   9.570   1.873
23792WAT     H171618   4.289   9.532   1.781
23792WAT     H271619   4.387   9.532   1.912
23793WAT      O71620   5.251   1.099   8.010
23793WAT     H171621   5.345   1.104   8.043
23793WAT     H271622   5.236   1.170   7.941
23794WAT      O71623   8.825   5.549   7.411
23794WAT     H171624   8.805   5.457   7.376
23794WAT     H271625   8.921   5.554   7.438
23795WAT      O71626   3.186   7.040   4.799
23795WAT     H171627   3.246   7.120   4.795
23795WAT     H271628   3.220   6.970   4.736
23796WAT      O71629   5.188   6.136   3.644
23796WAT     H171630   5.235   6.057   3.604
23796WAT     H271631   5.097   6.107   3.676
23797WAT      O71632   1.014   6.189   5.090
23797WAT     H171633   0.952   6.181   5.012
23797WAT     H271634   1.079   6.113   5.088
23798WAT      O71635   5.412   0.485   9.457
23798WAT     H171636   5.386   0.581   9.447
23798WAT     H271637   5.465   0.456   9.378
23799WAT      O71638   0.736   7.230   3.634
23799WAT     H171639   0.776   7.190   3.717
23799WAT     H271640   0.644   7.193   3.621
23800WAT      O71641   3.432   8.384   6.426
23800WAT     H171642   3.482   8.322   6.486
23800WAT     H271643   3.447   8.358   6.331
23801WAT      O71644   3.760   5.788   6.251
23801WAT     H171645   3.836   5.733   6.286
23801WAT     H271646   3.772   5.803   6.153
23802WAT      O71647   2.203   1.112   5.417
23802WAT     H171648   2.165   1.063   5.338
23802WAT     H271649   2.215   1.209   5.393
23803WAT      O71650   6.109   5.504   3.066
23803WAT     H171651   6.173   5.428   3.079
23803WAT     H271652   6.037   5.499   3.135
23804WAT      O71653   7.743   2.192   8.743
23804WAT     H171654   7.736   2.258   8.818
23804WAT     H271655   7.799   2.232   8.669
23805WAT      O71656   4.352   0.562   2.680
23805WAT     H171657   4.448   0.587   2.693
23805WAT     H271658   4.342   0.463   2.690
23806WAT      O71659   5.542   5.533   1.216
23806WAT     H171660   5.543   5.526   1.117
23806WAT     H271661   5.632   5.507   1.252
23807WAT      O71662   3.703   3.780   1.685
23807WAT     H171663   3.728   3.690   1.649
23807WAT     H271664   3.776   3.812   1.746
23808WAT      O71665   7.390   5.878   0.155
23808WAT     H171666   7.357   5.784   0.142
23808WAT     H271667   7.485   5.884   0.125
23809WAT      O71668   1.947   3.036   1.781
23809WAT     H171669   1.942   3.001   1.874
23809WAT     H271670   1.905   2.970   1.718
23810WAT      O71671   4.556   5.372   8.703
23810WAT     H171672   4.553   5.305   8.777
23810WAT     H271673   4.479   5.435   8.712
23811WAT      O71674   8.035   1.394   3.701
23811WAT     H171675   7.980   1.368   3.621
23811WAT     H271676   8.049   1.493   3.700
23812WAT      O71677   4.100   3.369   4.317
23812WAT     H171678   4.061   3.293   4.370
23812WAT     H271679   4.094   3.348   4.220
23813WAT      O71680   6.692   3.860   4.171
23813WAT     H171681   6.772   3.846   4.113
23813WAT     H271682   6.673   3.958   4.179
23814WAT      O71683   0.457   4.095   2.616
23814WAT     H171684   0.436   4.063   2.708
23814WAT     H271685   0.551   4.130   2.614
23815WAT      O71686   5.370   0.815   1.215
23815WAT     H171687   5.305   0.860   1.154
23815WAT     H271688   5.352   0.843   1.310
23816WAT      O71689   3.131   5.825   8.913
23816WAT     H171690   3.229   5.806   8.923
23816WAT     H271691   3.106   5.819   8.816
23817WAT      O71692   5.409   0.519   7.033
23817WAT     H171693   5.408   0.419   7.030
23817WAT     H271694   5.324   0.554   6.995
23818WAT      O71695   0.170   1.160   9.110
23818WAT     H171696   0.122   1.083   9.151
23818WAT     H271697   0.268   1.148   9.121
23819WAT      O71698   8.622   7.931   5.889
23819WAT     H171699   8.666   7.899   5.973
23819WAT     H271700   8.576   8.018   5.907
23820WAT      O71701   6.944   4.754   5.768
23820WAT     H171702   6.866   4.732   5.827
23820WAT     H271703   6.919   4.739   5.672
23821WAT      O71704   3.616   0.866   7.031
23821WAT     H171705   3.615   0.934   7.104
23821WAT     H271706   3.524   0.854   6.994
23822WAT      O71707   7.354   2.515   8.550
23822WAT     H171708   7.424   2.529   8.620
23822WAT     H271709   7.328   2.419   8.548
23823WAT      O71710   1.002   7.219   4.250
23823WAT     H171711   1.042   7.308   4.270
23823WAT     H271712   0.906   7.219   4.276
23824WAT      O71713   6.703   0.614   6.404
23824WAT     H171714   6.639   0.688   6.426
23824WAT     H271715   6.652   0.534   6.373
23825WAT      O71716   2.108   6.785   0.449
23825WAT     H171717   2.069   6.827   0.367
23825WAT     H271718   2.094   6.845   0.527
23826WAT      O71719   6.101   8.571   1.223
23826WAT     H171720   6.082   8.511   1.146
23826WAT     H271721   6.017   8.616   1.253
23827WAT      O71722   4.893   4.823   0.032
23827WAT     H171723   4.868   4.856  -0.059
23827WAT     H271724   4.820   4.765   0.068
23828WAT      O71725   5.977   0.315   8.119
23828WAT     H171726   6.069   0.312   8.081
23828WAT     H271727   5.910   0.304   8.046
23829WAT      O71728   4.181   2.495   5.125
23829WAT     H171729   4.275   2.467   5.104
23829WAT     H271730   4.181   2.589   5.158
23830WAT      O71731   1.324   3.158   1.235
23830WAT     H171732   1.293   3.125   1.324
23830WAT     H271733   1.419   3.128   1.220
23831WAT      O71734   1.681   3.176   8.390
23831WAT     H171735   1.637   3.094   8.354
23831WAT     H271736   1.633   3.206   8.472
23832WAT      O71737   3.885   2.120   8.759
23832WAT     H171738   3.874   2.073   8.847
23832WAT     H271739   3.832   2.072   8.689
23833WAT      O71740   1.806   4.198   4.487
23833WAT     H171741   1.725   4.255   4.499
23833WAT     H271742   1.886   4.246   4.521
23834WAT      O71743   7.274   1.684   6.416
23834WAT     H171744   7.248   1.696   6.511
23834WAT     H271745   7.261   1.771   6.367
23835WAT      O71746   1.616   1.662   9.403
23835WAT     H171747   1.709   1.655   9.439
23835WAT     H271748   1.582   1.570   9.383
23836WAT      O71749   2.648   4.475   0.599
23836WAT     H171750   2.564   4.422   0.590
23836WAT     H271751   2.651   4.518   0.689
23837WAT      O71752   1.850   0.906   8.391
23837WAT     H171753   1.914   0.944   8.458
23837WAT     H271754   1.896   0.895   8.303
23838WAT      O71755   0.533   0.666   8.937
23838WAT     H171756   0.482   0.725   8.874
23838WAT     H271757   0.532   0.707   9.028
23839WAT      O71758   1.830   8.338   4.496
23839WAT     H171759   1.924   8.351   4.465
23839WAT     H271760   1.792   8.254   4.456
23840WAT      O71761   6.902   7.142   6.113
23840WAT     H171762   6.951   7.066   6.070
23840WAT     H271763   6.952   7.173   6.194
23841WAT      O71764   0.648   0.728   7.929
23841WAT     H171765   0.568   0.734   7.869
23841WAT     H271766   0.651   0.810   7.987
23842WAT      O71767   2.888   8.120   2.985
23842WAT     H171768   2.909   8.030   3.024
23842WAT     H271769   2.791   8.140   2.999
23843WAT      O71770   8.236   6.244   8.418
23843WAT     H171771   8.265   6.333   8.385
23843WAT     H271772   8.207   6.187   8.340
23844WAT      O71773   3.302   6.504   3.766
23844WAT     H171774   3.232   6.574   3.750
23844WAT     H271775   3.303   6.441   3.688
23845WAT      O71776   3.746   2.347   2.197
23845WAT     H171777   3.723   2.268   2.254
23845WAT     H271778   3.814   2.403   2.244
23846WAT      O71779   9.283   1.515   6.250
23846WAT     H171780   9.287   1.563   6.337
23846WAT     H271781   9.326   1.571   6.179
23847WAT      O71782   4.381   0.042   7.679
23847WAT     H171783   4.403  -0.021   7.753
23847WAT     H271784   4.283   0.058   7.676
23848WAT      O71785   3.575   1.656   5.795
23848WAT     H171786   3.606   1.748   5.769
23848WAT     H271787   3.499   1.629   5.737
23849WAT      O71788   1.573   8.066   7.835
23849WAT     H171789   1.629   8.066   7.917
23849WAT     H271790   1.597   7.987   7.778
23850WAT      O71791   5.867   0.231   1.608
23850WAT     H171792   5.881   0.153   1.547
23850WAT     H271793   5.956   0.264   1.639
23851WAT      O71794   7.577   1.868   3.734
23851WAT     H171795   7.667   1.910   3.739
23851WAT     H271796   7.581   1.788   3.675
23852WAT      O71797   5.567   5.495   0.941
23852WAT     H171798   5.468   5.501   0.928
23852WAT     H271799   5.613   5.498   0.853
23853WAT      O71800   4.267   7.353   1.025
23853WAT     H171801   4.170   7.343   1.001
23853WAT     H271802   4.309   7.420   0.964
23854WAT      O71803   3.552   3.625   8.405
23854WAT     H171804   3.536   3.681   8.324
23854WAT     H271805   3.513   3.671   8.485
23855WAT      O71806   5.890   5.671   7.154
23855WAT     H171807   5.892   5.730   7.073
23855WAT     H271808   5.795   5.647   7.176
23856WAT      O71809   2.798   7.543   9.267
23856WAT     H171810   2.897   7.532   9.259
23856WAT     H271811   2.776   7.575   9.360
23857WAT      O71812   7.449   5.886   0.452
23857WAT     H171813   7.496   5.927   0.374
23857WAT     H271814   7.424   5.792   0.430
23858WAT      O71815   6.222   1.385   4.031
23858WAT     H171816   6.140   1.373   3.975
23858WAT     H271817   6.279   1.457   3.992
23859WAT      O71818   5.636   5.656   3.866
23859WAT     H171819   5.603   5.685   3.956
23859WAT     H271820   5.568   5.597   3.822
23860WAT      O71821   7.072   7.466   8.510
23860WAT     H171822   7.026   7.393   8.561
23860WAT     H271823   7.082   7.547   8.568
23861WAT      O71824   2.409   4.611   0.936
23861WAT     H171825   2.366   4.700   0.923
23861WAT     H271826   2.363   4.542   0.880
23862WAT      O71827   8.103   0.791   0.188
23862WAT     H171828   8.147   0.798   0.277
23862WAT     H271829   8.169   0.814   0.116
23863WAT      O71830   2.525   2.987   0.288
23863WAT     H171831   2.496   3.044   0.211
23863WAT     H271832   2.625   2.982   0.290
23864WAT      O71833   0.891   5.401   8.886
23864WAT     H171834   0.990   5.390   8.893
23864WAT     H271835   0.870   5.481   8.830
23865WAT      O71836   7.205   4.240   6.271
23865WAT     H171837   7.290   4.281   6.235
23865WAT     H271838   7.127   4.280   6.223
23866WAT      O71839   2.061   6.868   3.751
23866WAT     H171840   2.136   6.933   3.760
23866WAT     H271841   2.044   6.823   3.839
23867WAT      O71842   0.633   3.458   2.481
23867WAT     H171843   0.668   3.533   2.537
23867WAT     H271844   0.702   3.432   2.414
23868WAT      O71845   2.953   5.654   3.222
23868WAT     H171846   2.875   5.605   3.261
23868WAT     H271847   3.031   5.646   3.285
23869WAT      O71848   0.416   5.719   1.967
23869WAT     H171849   0.399   5.694   1.872
23869WAT     H271850   0.492   5.664   2.003
23870WAT      O71851   8.217   4.073   1.996
23870WAT     H171852   8.180   4.122   2.075
23870WAT     H271853   8.142   4.042   1.937
23871WAT      O71854   6.639   6.096   3.111
23871WAT     H171855   6.559   6.095   3.170
23871WAT     H271856   6.677   6.004   3.104
23872WAT      O71857   6.940   2.761   2.226
23872WAT     H171858   6.905   2.672   2.198
23872WAT     H271859   6.946   2.822   2.147
23873WAT      O71860   8.714   1.442   1.535
23873WAT     H171861   8.679   1.509   1.600
23873WAT     H271862   8.794   1.479   1.488
23874WAT      O71863   4.251   4.376   8.545
23874WAT     H171864   4.236   4.344   8.639
23874WAT     H271865   4.195   4.457   8.529
23875WAT      O71866   2.307   0.936   8.665
23875WAT     H171867   2.302   0.845   8.625
23875WAT     H271868   2.352   0.998   8.601
23876WAT      O71869   5.127   0.900   0.672
23876WAT     H171870   5.071   0.856   0.743
23876WAT     H271871   5.142   0.835   0.597
23877WAT      O71872   2.005   0.534   0.993
23877WAT     H171873   1.937   0.570   0.929
23877WAT     H271874   2.090   0.586   0.984
23878WAT      O71875   6.796   3.713   0.710
23878WAT     H171876   6.717   3.660   0.740
23878WAT     H271877   6.792   3.726   0.611
23879WAT      O71878   1.455   7.758   5.804
23879WAT     H171879   1.532   7.697   5.824
23879WAT     H271880   1.477   7.813   5.723
23880WAT      O71881   2.183   6.060   4.374
23880WAT     H171882   2.241   5.980   4.367
23880WAT     H271883   2.089   6.037   4.349
23881WAT      O71884   8.588   9.473   9.515
23881WAT     H171885   8.639   9.517   9.442
23881WAT     H271886   8.490   9.493   9.504
23882WAT      O71887   0.515   4.563   0.933
23882WAT     H171888   0.416   4.572   0.942
23882WAT     H271889   0.557   4.562   1.023
23883WAT      O71890   2.431   6.635   7.152
23883WAT     H171891   2.504   6.651   7.219
23883WAT     H271892   2.440   6.544   7.113
23884WAT      O71893   2.718   5.806   7.336
23884WAT     H171894   2.635   5.816   7.282
23884WAT     H271895   2.702   5.840   7.429
23885WAT      O71896   4.666   2.521   1.036
23885WAT     H171897   4.720   2.511   1.119
23885WAT     H271898   4.667   2.617   1.007
23886WAT      O71899   7.451   6.787   3.568
23886WAT     H171900   7.375   6.783   3.634
23886WAT     H271901   7.419   6.831   3.484
23887WAT      O71902   9.758   4.622   2.403
23887WAT     H171903   9.743   4.710   2.448
23887WAT     H271904   9.841   4.580   2.439
23888WAT      O71905   5.368   0.008   6.098
23888WAT     H171906   5.445  -0.023   6.042
23888WAT     H271907   5.324  -0.070   6.142
23889WAT      O71908   1.687   3.763   7.707
23889WAT     H171909   1.675   3.742   7.804
23889WAT     H271910   1.599   3.790   7.668
23890WAT      O71911   1.024   2.265   1.536
23890WAT     H171912   1.020   2.276   1.437
23890WAT     H271913   1.021   2.355   1.580
23891WAT      O71914   1.859   2.921   1.515
23891WAT     H171915   1.872   2.950   1.421
23891WAT     H271916   1.879   2.823   1.523
23892WAT      O71917   6.825   3.431   8.174
23892WAT     H171918   6.809   3.529   8.187
23892WAT     H271919   6.907   3.418   8.118
23893WAT      O71920   4.630   8.480   4.625
23893WAT     H171921   4.681   8.414   4.569
23893WAT     H271922   4.632   8.450   4.720
23894WAT      O71923   5.559   4.199   8.936
23894WAT     H171924   5.604   4.223   8.850
23894WAT     H271925   5.503   4.275   8.968
23895WAT      O71926   3.902   8.073   9.181
23895WAT     H171927   3.908   8.054   9.279
23895WAT     H271928   3.865   7.993   9.134
23896WAT      O71929   9.687   3.374   2.618
23896WAT     H171930   9.641   3.368   2.529
23896WAT     H271931   9.778   3.333   2.610
23897WAT      O71932   7.845   4.906   5.366
23897WAT     H171933   7.936   4.930   5.399
23897WAT     H271934   7.851   4.824   5.309
23898WAT      O71935   0.852   7.827   6.758
23898WAT     H171936   0.772   7.861   6.806
23898WAT     H271937   0.934   7.874   6.791
23899WAT      O71938   1.132   4.501   1.772
23899WAT     H171939   1.169   4.445   1.699
23899WAT     H271940   1.096   4.587   1.735
23900WAT      O71941   3.257   3.065   4.752
23900WAT     H171942   3.259   3.144   4.691
23900WAT     H271943   3.324   2.997   4.721
23901WAT      O71944   7.771   1.104   7.215
23901WAT     H171945   7.798   1.159   7.136
23901WAT     H271946   7.749   1.011   7.185
23902WAT      O71947   4.201   9.528   5.028
23902WAT     H171948   4.220   9.453   5.091
23902WAT     H271949   4.229   9.614   5.070
23903WAT      O71950   2.315   5.016   7.333
23903WAT     H171951   2.391   4.953   7.320
23903WAT     H271952   2.328   5.097   7.275
23904WAT      O71953   9.745   5.285   1.820
23904WAT     H171954   9.713   5.202   1.774
23904WAT     H271955   9.676   5.316   1.885
23905WAT      O71956   6.851   2.636   6.191
23905WAT     H171957   6.827   2.541   6.174
23905WAT     H271958   6.857   2.685   6.103
23906WAT      O71959   8.259   9.370   6.188
23906WAT     H171960   8.190   9.441   6.178
23906WAT     H271961   8.340   9.407   6.233
23907WAT      O71962   8.165   7.821   3.327
23907WAT     H171963   8.126   7.764   3.255
23907WAT     H271964   8.248   7.865   3.293
23908WAT      O71965   8.496   9.363   2.414
23908WAT     H171966   8.578   9.326   2.371
23908WAT     H271967   8.445   9.418   2.347
23909WAT      O71968   0.235   7.102   5.696
23909WAT     H171969   0.228   7.158   5.613
23909WAT     H271970   0.143   7.083   5.731
23910WAT      O71971   2.292   5.737   7.088
23910WAT     H171972   2.234   5.740   7.169
23910WAT     H271973   2.250   5.792   7.015
23911WAT      O71974   5.090   9.540   8.528
23911WAT     H171975   5.088   9.467   8.460
23911WAT     H271976   5.008   9.596   8.520
23912WAT      O71977   0.573   2.811   3.376
23912WAT     H171978   0.525   2.899   3.380
23912WAT     H271979   0.649   2.812   3.441
23913WAT      O71980   6.083   4.808   7.808
23913WAT     H171981   6.172   4.807   7.854
23913WAT     H271982   6.059   4.715   7.779
23914WAT      O71983   9.153   2.405   8.718
23914WAT     H171984   9.241   2.391   8.673
23914WAT     H271985   9.103   2.318   8.721
23915WAT      O71986   0.492   3.009   8.805
23915WAT     H171987   0.422   3.072   8.838
23915WAT     H271988   0.551   2.982   8.882
23916WAT      O71989   6.963   7.425   7.063
23916WAT     H171990   6.884   7.368   7.040
23916WAT     H271991   6.936   7.521   7.062
23917WAT      O71992   2.229   7.686   9.154
23917WAT     H171993   2.208   7.589   9.165
23917WAT     H271994   2.200   7.736   9.235
23918WAT      O71995   0.642   0.209   7.590
23918WAT     H171996   0.631   0.240   7.684
23918WAT     H271997   0.559   0.161   7.561
23919WAT      O71998   6.561   9.729   8.780
23919WAT     H171999   6.529   9.673   8.857
23919WAT     H272000   6.649   9.770   8.804
23920WAT      O72001   4.676   1.240   8.334
23920WAT     H172002   4.632   1.150   8.343
23920WAT     H272003   4.616   1.301   8.282
23921WAT      O72004   3.779   7.770   3.390
23921WAT     H172005   3.831   7.810   3.466
23921WAT     H272006   3.775   7.835   3.314
23922WAT      O72007   0.387   0.578   6.021
23922WAT     H172008   0.289   0.599   6.020
23922WAT     H272009   0.424   0.592   5.929
23923WAT      O72010   7.777   9.180   4.349
23923WAT     H172011   7.760   9.279   4.352
23923WAT     H272012   7.833   9.159   4.270
23924WAT      O72013   7.036   8.363   6.877
23924WAT     H172014   7.008   8.415   6.957
23924WAT     H272015   7.059   8.269   6.905
23925WAT      O72016   1.920   9.353   7.959
23925WAT     H172017   1.863   9.395   8.030
23925WAT     H272018   1.861   9.301   7.896
23926WAT      O72019   3.466   4.732   6.454
23926WAT     H172020   3.531   4.761   6.383
23926WAT     H272021   3.400   4.669   6.415
23927WAT      O72022   4.315   8.374   3.588
23927WAT     H172023   4.310   8.309   3.512
23927WAT     H272024   4.278   8.331   3.671
23928WAT      O72025   3.404   5.222   0.994
23928WAT     H172026   3.460   5.146   0.962
23928WAT     H272027   3.390   5.215   1.092
23929WAT      O72028   7.017   1.071   5.039
23929WAT     H172029   7.072   1.011   4.981
23929WAT     H272030   6.944   1.113   4.985
23930WAT      O72031   2.218   3.275   3.176
23930WAT     H172032   2.257   3.354   3.224
23930WAT     H272033   2.123   3.295   3.152
23931WAT      O72034   8.880   2.734   7.100
23931WAT     H172035   8.897   2.705   7.194
23931WAT     H272036   8.806   2.679   7.061
23932WAT      O72037   1.066   8.663   5.945
23932WAT     H172038   0.991   8.659   6.012
23932WAT     H272039   1.036   8.716   5.866
23933WAT      O72040   9.024   1.486   6.168
23933WAT     H172041   9.122   1.491   6.185
23933WAT     H272042   9.002   1.535   6.084
23934WAT      O72043   6.984   9.701   2.643
23934WAT     H172044   7.047   9.736   2.574
23934WAT     H272045   6.911   9.768   2.659
23935WAT      O72046   7.734   7.264   1.989
23935WAT     H172047   7.738   7.178   2.041
23935WAT     H272048   7.668   7.325   2.031
23936WAT      O72049   6.612   3.608   1.732
23936WAT     H172050   6.581   3.700   1.710
23936WAT     H272051   6.655   3.609   1.823
23937WAT      O72052   0.030   7.474   8.400
23937WAT     H172053   0.098   7.426   8.457
23937WAT     H272054   0.009   7.563   8.441
23938WAT      O72055   4.168   0.811   0.129
23938WAT     H172056   4.253   0.792   0.178
23938WAT     H272057   4.095   0.755   0.166
23939WAT      O72058   3.441   7.619   0.449
23939WAT     H172059   3.354   7.626   0.498
23939WAT     H272060   3.515   7.606   0.515
23940WAT      O72061   3.858   8.640   3.067
23940WAT     H172062   3.835   8.735   3.084
23940WAT     H272063   3.946   8.618   3.108
23941WAT      O72064   3.067   7.264   6.563
23941WAT     H172065   3.005   7.337   6.533
23941WAT     H272066   3.046   7.241   6.658
23942WAT      O72067   0.475   1.568   9.287
23942WAT     H172068   0.444   1.503   9.217
23942WAT     H272069   0.399   1.626   9.315
23943WAT      O72070   7.103   4.960   5.898
23943WAT     H172071   7.063   4.879   5.855
23943WAT     H272072   7.073   5.042   5.851
23944WAT      O72073   6.562   0.110   7.323
23944WAT     H172074   6.486   0.171   7.298
23944WAT     H272075   6.647   0.163   7.326
23945WAT      O72076   0.529   6.980   8.997
23945WAT     H172077   0.578   6.894   9.007
23945WAT     H272078   0.537   7.012   8.903
23946WAT      O72079   5.587   6.386   1.244
23946WAT     H172080   5.627   6.294   1.237
23946WAT     H272081   5.546   6.397   1.334
23947WAT      O72082   4.442   2.856   3.600
23947WAT     H172083   4.430   2.955   3.601
23947WAT     H272084   4.518   2.832   3.660
23948WAT      O72085   3.536   3.562   2.864
23948WAT     H172086   3.551   3.466   2.886
23948WAT     H272087   3.522   3.614   2.948
23949WAT      O72088   8.582   8.004   0.680
23949WAT     H172089   8.628   8.068   0.619
23949WAT     H272090   8.490   8.038   0.700
23950WAT      O72091   9.655   3.469   9.811
23950WAT     H172092   9.651   3.369   9.811
23950WAT     H272093   9.575   3.505   9.764
23951WAT      O72094   1.262   7.087   9.511
23951WAT     H172095   1.256   7.156   9.583
23951WAT     H272096   1.317   7.010   9.543
23952WAT      O72097   9.756   1.633   0.931
23952WAT     H172098   9.791   1.552   0.884
23952WAT     H272099   9.669   1.612   0.974
23953WAT      O72100   1.709   2.622   5.970
23953WAT     H172101   1.652   2.577   5.901
23953WAT     H272102   1.667   2.710   5.995
23954WAT      O72103   2.294   1.702   4.071
23954WAT     H172104   2.361   1.737   4.136
23954WAT     H272105   2.329   1.713   3.978
23955WAT      O72106   9.568   1.478   8.845
23955WAT     H172107   9.609   1.422   8.917
23955WAT     H272108   9.604   1.450   8.756
23956WAT      O72109   4.261   2.330   2.494
23956WAT     H172110   4.273   2.236   2.462
23956WAT     H272111   4.287   2.336   2.590
23957WAT      O72112   3.782   2.401   7.838
23957WAT     H172113   3.771   2.335   7.764
23957WAT     H272114   3.792   2.352   7.925
23958WAT      O72115   8.572   5.756   4.004
23958WAT     H172116   8.505   5.785   3.936
23958WAT     H272117   8.538   5.676   4.053
23959WAT      O72118   3.706   7.271   3.449
23959WAT     H172119   3.630   7.271   3.385
23959WAT     H272120   3.688   7.336   3.523
23960WAT      O72121   3.330   4.522   2.658
23960WAT     H172122   3.286   4.520   2.748
23960WAT     H272123   3.375   4.434   2.641
23961WAT      O72124   2.536   7.961   7.419
23961WAT     H172125   2.468   7.996   7.483
23961WAT     H272126   2.526   8.007   7.330
23962WAT      O72127   0.340   4.084   2.973
23962WAT     H172128   0.435   4.070   2.999
23962WAT     H272129   0.305   4.168   3.014
23963WAT      O72130   6.443   0.864   0.717
23963WAT     H172131   6.372   0.833   0.653
23963WAT     H272132   6.422   0.956   0.749
23964WAT      O72133   8.749   2.301   9.219
23964WAT     H172134   8.777   2.370   9.286
23964WAT     H272135   8.726   2.216   9.266
23965WAT      O72136   5.313   8.693   1.502
23965WAT     H172137   5.404   8.653   1.493
23965WAT     H272138   5.275   8.708   1.411
23966WAT      O72139   0.998   2.635   1.180
23966WAT     H172140   1.073   2.628   1.115
23966WAT     H272141   0.957   2.726   1.174
23967WAT      O72142   4.243   5.745   9.731
23967WAT     H172143   4.150   5.745   9.693
23967WAT     H272144   4.302   5.685   9.677
23968WAT      O72145   8.464   4.627   9.304
23968WAT     H172146   8.370   4.611   9.335
23968WAT     H272147   8.501   4.707   9.352
23969WAT      O72148   2.856   9.203   8.198
23969WAT     H172149   2.764   9.167   8.214
23969WAT     H272150   2.867   9.289   8.246
23970WAT      O72151   1.605   5.547   8.126
23970WAT     H172152   1.610   5.578   8.030
23970WAT     H272153   1.696   5.550   8.166
23971WAT      O72154   0.733   5.581   9.813
23971WAT     H172155   0.782   5.639   9.748
23971WAT     H272156   0.781   5.494   9.822
23972WAT      O72157   7.131   3.571   3.071
23972WAT     H172158   7.194   3.504   3.109
23972WAT     H272159   7.181   3.654   3.048
23973WAT      O72160   5.057   8.936   5.735
23973WAT     H172161   5.143   8.888   5.719
23973WAT     H272162   5.000   8.932   5.653
23974WAT      O72163   8.555   4.314   8.348
23974WAT     H172164   8.498   4.295   8.428
23974WAT     H272165   8.533   4.405   8.312
23975WAT      O72166   5.104   8.248   5.134
23975WAT     H172167   5.163   8.247   5.054
23975WAT     H272168   5.009   8.229   5.106
23976WAT      O72169   9.056   2.216   0.908
23976WAT     H172170   9.107   2.277   0.847
23976WAT     H272171   9.089   2.228   1.002
23977WAT      O72172   5.733   7.419   9.246
23977WAT     H172173   5.639   7.427   9.212
23977WAT     H272174   5.734   7.428   9.345
23978WAT      O72175   6.900   5.502   4.194
23978WAT     H172176   6.935   5.555   4.117
23978WAT     H272177   6.802   5.518   4.205
23979WAT      O72178   7.735   6.261   9.656
23979WAT     H172179   7.834   6.251   9.644
23979WAT     H272180   7.689   6.246   9.569
23980WAT      O72181   7.938   9.268   7.663
23980WAT     H172182   7.925   9.337   7.592
23980WAT     H272183   7.993   9.306   7.737
23981WAT      O72184   9.088   8.424   1.399
23981WAT     H172185   9.131   8.337   1.377
23981WAT     H272186   9.158   8.495   1.405
23982WAT      O72187   4.361   3.720   1.494
23982WAT     H172188   4.282   3.746   1.550
23982WAT     H272189   4.379   3.792   1.427
23983WAT      O72190   8.125   6.576   0.630
23983WAT     H172191   8.134   6.569   0.729
23983WAT     H272192   8.207   6.539   0.586
23984WAT      O72193   8.444   2.960   9.409
23984WAT     H172194   8.471   2.887   9.472
23984WAT     H272195   8.515   2.972   9.339
23985WAT      O72196   8.065   8.586   5.498
23985WAT     H172197   8.072   8.492   5.465
23985WAT     H272198   8.064   8.587   5.598
23986WAT      O72199   9.164   3.079   3.792
23986WAT     H172200   9.158   3.057   3.695
23986WAT     H272201   9.253   3.119   3.811
23987WAT      O72202   5.575   8.609   0.416
23987WAT     H172203   5.606   8.685   0.359
23987WAT     H272204   5.477   8.594   0.402
23988WAT      O72205   1.816   1.081   7.950
23988WAT     H172206   1.722   1.115   7.950
23988WAT     H272207   1.851   1.082   8.043
23989WAT      O72208   5.614   0.063   1.104
23989WAT     H172209   5.646   0.158   1.103
23989WAT     H272210   5.533   0.056   1.046
23990WAT      O72211   7.127   8.132   7.003
23990WAT     H172212   7.145   8.036   6.980
23990WAT     H272213   7.094   8.137   7.098
23991WAT      O72214   3.402   3.166   7.885
23991WAT     H172215   3.378   3.070   7.895
23991WAT     H272216   3.500   3.177   7.901
23992WAT      O72217   2.129   2.663   1.439
23992WAT     H172218   2.101   2.724   1.366
23992WAT     H272219   2.213   2.697   1.481
23993WAT      O72220   2.148   8.822   9.332
23993WAT     H172221   2.101   8.746   9.288
23993WAT     H272222   2.246   8.803   9.335
23994WAT      O72223   1.601   1.137   9.388
23994WAT     H172224   1.674   1.120   9.322
23994WAT     H272225   1.550   1.218   9.361
23995WAT      O72226   2.506   6.253   2.468
23995WAT     H172227   2.541   6.299   2.386
23995WAT     H272228   2.418   6.294   2.495
23996WAT      O72229   2.724   0.508   4.198
23996WAT     H172230   2.668   0.429   4.172
23996WAT     H272231   2.700   0.586   4.140
23997WAT      O72232   6.566   0.720   4.087
23997WAT     H172233   6.653   0.738   4.132
23997WAT     H272234   6.532   0.630   4.115
23998WAT      O72235   6.127   7.470   9.776
23998WAT     H172236   6.052   7.407   9.796
23998WAT     H272237   6.131   7.485   9.677
23999WAT      O72238   8.804   1.322   3.228
23999WAT     H172239   8.804   1.320   3.328
23999WAT     H272240   8.738   1.254   3.194
24000WAT      O72241   4.837   3.199   4.293
24000WAT     H172242   4.853   3.195   4.194
24000WAT     H272243   4.875   3.285   4.329
24001WAT      O72244   0.303   8.733   8.855
24001WAT     H172245   0.218   8.763   8.811
24001WAT     H272246   0.351   8.813   8.892
24002WAT      O72247   9.713   1.994   3.047
24002WAT     H172248   9.733   1.921   2.982
24002WAT     H272249   9.621   1.983   3.083
24003WAT      O72250   1.350   2.401   1.349
24003WAT     H172251   1.331   2.469   1.420
24003WAT     H272252   1.387   2.318   1.391
24004WAT      O72253   2.404   6.941   3.532
24004WAT     H172254   2.488   6.918   3.484
24004WAT     H272255   2.340   6.864   3.527
24005WAT      O72256   9.071   6.980   1.129
24005WAT     H172257   9.041   6.891   1.165
24005WAT     H272258   9.156   6.967   1.078
24006WAT      O72259   3.320   9.164   0.759
24006WAT     H172260   3.233   9.208   0.777
24006WAT     H272261   3.304   9.069   0.732
24007WAT      O72262   5.156   8.371   3.171
24007WAT     H172263   5.204   8.338   3.090
24007WAT     H272264   5.060   8.388   3.149
24008WAT      O72265   4.877   2.760   0.274
24008WAT     H172266   4.970   2.726   0.258
24008WAT     H272267   4.850   2.818   0.198
24009WAT      O72268   3.757   5.176   8.810
24009WAT     H172269   3.761   5.077   8.819
24009WAT     H272270   3.850   5.212   8.801
24010WAT      O72271   1.280   3.408   0.691
24010WAT     H172272   1.262   3.452   0.779
24010WAT     H272273   1.378   3.404   0.674
24011WAT      O72274   7.121   0.096   9.412
24011WAT     H172275   7.041   0.062   9.462
24011WAT     H272276   7.204   0.071   9.460
24012WAT      O72277   1.879   1.336   8.344
24012WAT     H172278   1.968   1.313   8.304
24012WAT     H272279   1.871   1.292   8.434
24013WAT      O72280   7.695   1.068   1.530
24013WAT     H172281   7.635   1.140   1.565
24013WAT     H272282   7.681   1.057   1.432
24014WAT      O72283   6.528   8.546   4.138
24014WAT     H172284   6.620   8.522   4.106
24014WAT     H272285   6.472   8.573   4.059
24015WAT      O72286   8.108   3.736   6.365
24015WAT     H172287   8.152   3.666   6.421
24015WAT     H272288   8.111   3.708   6.269
24016WAT      O72289   4.068   6.163   5.864
24016WAT     H172290   4.059   6.262   5.875
24016WAT     H272291   4.115   6.143   5.778
24017WAT      O72292   0.101   7.644   0.795
24017WAT     H172293   0.074   7.732   0.756
24017WAT     H272294   0.183   7.656   0.851
24018WAT      O72295   9.262   2.195   5.457
24018WAT     H172296   9.179   2.139   5.451
24018WAT     H272297   9.293   2.198   5.552
24019WAT      O72298   0.549   8.083   2.971
24019WAT     H172299   0.488   8.032   2.910
24019WAT     H272300   0.542   8.045   3.063
24020WAT      O72301   3.781   0.636   5.791
24020WAT     H172302   3.761   0.552   5.841
24020WAT     H272303   3.867   0.676   5.824
24021WAT      O72304   4.148   0.661   2.284
24021WAT     H172305   4.153   0.724   2.362
24021WAT     H272306   4.094   0.581   2.309
24022WAT      O72307   3.078   0.731   1.262
24022WAT     H172308   3.116   0.821   1.281
24022WAT     H272309   3.137   0.660   1.300
24023WAT      O72310   8.196   1.207   1.542
24023WAT     H172311   8.235   1.269   1.474
24023WAT     H272312   8.100   1.229   1.555
24024WAT      O72313   5.069   4.116   2.851
24024WAT     H172314   5.097   4.150   2.762
24024WAT     H272315   5.126   4.157   2.922
24025WAT      O72316   4.075   0.105   7.651
24025WAT     H172317   4.072   0.205   7.654
24025WAT     H272318   4.000   0.067   7.705
24026WAT      O72319   0.314   4.427   6.033
24026WAT     H172320   0.323   4.335   5.996
24026WAT     H272321   0.252   4.481   5.977
24027WAT      O72322   0.333   2.939   4.738
24027WAT     H172323   0.373   2.873   4.674
24027WAT     H272324   0.393   3.019   4.745
24028WAT      O72325   4.518   8.411   1.208
24028WAT     H172326   4.420   8.431   1.213
24028WAT     H272327   4.569   8.480   1.260
24029WAT      O72328   0.584   7.144   8.482
24029WAT     H172329   0.533   7.165   8.398
24029WAT     H272330   0.650   7.072   8.463
24030WAT      O72331   7.279   5.560   0.883
24030WAT     H172332   7.315   5.574   0.975
24030WAT     H272333   7.212   5.486   0.884
24031WAT      O72334   9.078   0.611   2.895
24031WAT     H172335   9.033   0.525   2.917
24031WAT     H272336   9.058   0.636   2.800
24032WAT      O72337   8.312   4.367   6.693
24032WAT     H172338   8.342   4.375   6.598
24032WAT     H272339   8.269   4.277   6.707
24033WAT      O72340   1.450   7.265   6.448
24033WAT     H172341   1.479   7.193   6.385
24033WAT     H272342   1.507   7.346   6.434
24034WAT      O72343   5.211   3.827   7.356
24034WAT     H172344   5.246   3.920   7.367
24034WAT     H272345   5.224   3.797   7.261
24035WAT      O72346   9.373   3.604   7.304
24035WAT     H172347   9.416   3.556   7.228
24035WAT     H272348   9.442   3.628   7.372
24036WAT      O72349   1.419   0.872   1.628
24036WAT     H172350   1.500   0.818   1.607
24036WAT     H272351   1.380   0.909   1.544
24037WAT      O72352   6.414   9.192   6.202
24037WAT     H172353   6.365   9.223   6.121
24037WAT     H272354   6.447   9.271   6.254
24038WAT      O72355   1.891   8.546   6.752
24038WAT     H172356   1.989   8.562   6.736
24038WAT     H272357   1.860   8.469   6.696
24039WAT      O72358   5.266   3.321   2.831
24039WAT     H172359   5.193   3.310   2.899
24039WAT     H272360   5.353   3.291   2.870
24040WAT      O72361   2.459   6.310   5.608
24040WAT     H172362   2.527   6.292   5.680
24040WAT     H272363   2.369   6.281   5.640
24041WAT      O72364   4.732   9.800   3.400
24041WAT     H172365   4.769   9.834   3.314
24041WAT     H272366   4.661   9.732   3.381
24042WAT      O72367   3.522   9.618   7.554
24042WAT     H172368   3.492   9.553   7.484
24042WAT     H272369   3.589   9.574   7.614
24043WAT      O72370   6.866   2.980   2.562
24043WAT     H172371   6.857   2.886   2.528
24043WAT     H272372   6.900   3.039   2.489
24044WAT      O72373   3.236   3.207   3.012
24044WAT     H172374   3.305   3.273   2.982
24044WAT     H272375   3.270   3.114   2.998
24045WAT      O72376   3.126   9.278   4.029
24045WAT     H172377   3.119   9.210   3.956
24045WAT     H272378   3.200   9.342   4.008
24046WAT      O72379   4.615   3.351   5.847
24046WAT     H172380   4.681   3.345   5.772
24046WAT     H272381   4.523   3.333   5.812
24047WAT      O72382   8.101   5.070   7.584
24047WAT     H172383   8.062   4.982   7.611
24047WAT     H272384   8.189   5.055   7.540
24048WAT      O72385   4.208   2.954   0.138
24048WAT     H172386   4.235   2.996   0.051
24048WAT     H272387   4.194   2.856   0.126
24049WAT      O72388   1.695   5.065   0.355
24049WAT     H172389   1.733   5.003   0.287
24049WAT     H272390   1.697   5.159   0.320
24050WAT      O72391   4.311   2.170   7.283
24050WAT     H172392   4.330   2.164   7.185
24050WAT     H272393   4.219   2.136   7.301
24051WAT      O72394   0.834   9.511   0.234
24051WAT     H172395   0.866   9.595   0.279
24051WAT     H272396   0.759   9.534   0.172
24052WAT      O72397   0.271   3.961   0.073
24052WAT     H172398   0.207   4.037   0.059
24052WAT     H272399   0.254   3.891   0.004
24053WAT      O72400   1.552   3.887   3.968
24053WAT     H172401   1.517   3.980   3.979
24053WAT     H272402   1.639   3.879   4.016
24054WAT      O72403   0.670   5.645   4.156
24054WAT     H172404   0.669   5.711   4.231
24054WAT     H272405   0.584   5.595   4.155
24055WAT      O72406   1.016   9.473   6.674
24055WAT     H172407   1.079   9.550   6.688
24055WAT     H272408   0.958   9.463   6.754
24056WAT      O72409   7.061   0.693   4.668
24056WAT     H172410   6.998   0.619   4.645
24056WAT     H272411   7.014   0.781   4.657
24057WAT      O72412   8.750   7.899   6.144
24057WAT     H172413   8.844   7.867   6.150
24057WAT     H272414   8.713   7.913   6.236
24058WAT      O72415   6.590   8.060   2.523
24058WAT     H172416   6.523   8.117   2.475
24058WAT     H272417   6.619   7.985   2.464
24059WAT      O72418   8.753   0.150   6.669
24059WAT     H172419   8.692   0.090   6.720
24059WAT     H272420   8.838   0.102   6.647
24060WAT      O72421   6.021   7.242   7.074
24060WAT     H172422   5.992   7.251   7.169
24060WAT     H272423   6.057   7.150   7.058
24061WAT      O72424   1.338   3.430   7.619
24061WAT     H172425   1.277   3.370   7.568
24061WAT     H272426   1.387   3.489   7.555
24062WAT      O72427   4.810   1.038   6.208
24062WAT     H172428   4.782   1.105   6.277
24062WAT     H272429   4.803   0.946   6.247
24063WAT      O72430   7.516   4.020   1.376
24063WAT     H172431   7.537   3.940   1.320
24063WAT     H272432   7.537   4.000   1.472
24064WAT      O72433   2.321   2.705   7.664
24064WAT     H172434   2.355   2.687   7.756
24064WAT     H272435   2.397   2.731   7.604
24065WAT      O72436   2.182   0.553   1.745
24065WAT     H172437   2.155   0.640   1.786
24065WAT     H272438   2.240   0.569   1.666
24066WAT      O72439   8.079   4.493   2.094
24066WAT     H172440   8.120   4.553   2.024
24066WAT     H272441   8.069   4.544   2.179
24067WAT      O72442   6.149   0.600   3.848
24067WAT     H172443   6.120   0.629   3.757
24067WAT     H272444   6.246   0.620   3.861
24068WAT      O72445   1.118   6.347   7.845
24068WAT     H172446   1.018   6.349   7.853
24068WAT     H272447   1.153   6.441   7.850
24069WAT      O72448   0.430   1.511   4.139
24069WAT     H172449   0.482   1.573   4.197
24069WAT     H272450   0.461   1.417   4.154
24070WAT      O72451   7.811   6.374   4.856
24070WAT     H172452   7.838   6.280   4.840
24070WAT     H272453   7.834   6.401   4.949
24071WAT      O72454   4.583   7.064   5.197
24071WAT     H172455   4.563   7.160   5.181
24071WAT     H272456   4.498   7.015   5.214
24072WAT      O72457   3.181   3.955   2.049
24072WAT     H172458   3.225   3.890   1.987
24072WAT     H272459   3.230   4.042   2.046
24073WAT      O72460   7.510   6.638   0.668
24073WAT     H172461   7.463   6.604   0.587
24073WAT     H272462   7.443   6.670   0.735
24074WAT      O72463   0.844   0.651   8.936
24074WAT     H172464   0.757   0.612   8.964
24074WAT     H272465   0.830   0.709   8.856
24075WAT      O72466   8.785   3.538   5.246
24075WAT     H172467   8.686   3.551   5.236
24075WAT     H272468   8.803   3.475   5.321
24076WAT      O72469   0.657   4.156   3.375
24076WAT     H172470   0.692   4.174   3.467
24076WAT     H272471   0.558   4.170   3.374
24077WAT      O72472   1.901   5.324   5.270
24077WAT     H172473   1.847   5.392   5.220
24077WAT     H272474   1.938   5.257   5.205
24078WAT      O72475   3.177   4.331   7.264
24078WAT     H172476   3.077   4.325   7.269
24078WAT     H272477   3.216   4.309   7.353
24079WAT      O72478   1.958   7.992   8.840
24079WAT     H172479   1.891   8.044   8.892
24079WAT     H272480   2.013   8.054   8.784
24080WAT      O72481   8.459   5.340   5.514
24080WAT     H172482   8.362   5.358   5.527
24080WAT     H272483   8.476   5.311   5.420
24081WAT      O72484   6.165   7.425   6.966
24081WAT     H172485   6.110   7.345   6.991
24081WAT     H272486   6.199   7.414   6.872
24082WAT      O72487   9.639   2.188   8.909
24082WAT     H172488   9.647   2.091   8.930
24082WAT     H272489   9.728   2.222   8.878
24083WAT      O72490   6.253   3.337   7.676
24083WAT     H172491   6.257   3.360   7.773
24083WAT     H272492   6.169   3.286   7.657
24084WAT      O72493   9.700   9.205   0.672
24084WAT     H172494   9.649   9.125   0.640
24084WAT     H272495   9.637   9.269   0.716
24085WAT      O72496   0.763   2.850   9.702
24085WAT     H172497   0.860   2.845   9.682
24085WAT     H272498   0.746   2.819   9.795
24086WAT      O72499   6.403   4.890   3.306
24086WAT     H172500   6.476   4.858   3.365
24086WAT     H272501   6.409   4.844   3.217
24087WAT      O72502   7.185   1.440   9.528
24087WAT     H172503   7.234   1.456   9.443
24087WAT     H272504   7.138   1.524   9.555
24088WAT      O72505   6.373   6.587   2.404
24088WAT     H172506   6.360   6.558   2.498
24088WAT     H272507   6.302   6.652   2.378
24089WAT      O72508   6.127   0.758   8.672
24089WAT     H172509   6.180   0.682   8.709
24089WAT     H272510   6.142   0.764   8.573
24090WAT      O72511   9.038   5.705   8.560
24090WAT     H172512   9.087   5.789   8.586
24090WAT     H272513   8.940   5.717   8.579
24091WAT      O72514   5.629   9.546   2.606
24091WAT     H172515   5.645   9.463   2.661
24091WAT     H272516   5.611   9.520   2.511
24092WAT      O72517   6.137   7.128   9.160
24092WAT     H172518   6.051   7.174   9.138
24092WAT     H272519   6.189   7.113   9.075
24093WAT      O72520   7.259   7.710   1.244
24093WAT     H172521   7.274   7.662   1.158
24093WAT     H272522   7.323   7.677   1.313
24094WAT      O72523   9.111   1.113   5.087
24094WAT     H172524   9.067   1.030   5.052
24094WAT     H272525   9.049   1.190   5.078
24095WAT      O72526   1.721   2.766   7.807
24095WAT     H172527   1.810   2.798   7.775
24095WAT     H272528   1.707   2.671   7.776
24096WAT      O72529   2.009   9.830   5.790
24096WAT     H172530   2.076   9.871   5.852
24096WAT     H272531   2.047   9.825   5.698
24097WAT      O72532   7.300   0.854   8.911
24097WAT     H172533   7.237   0.890   8.979
24097WAT     H272534   7.276   0.889   8.821
24098WAT      O72535   7.687   7.892   3.749
24098WAT     H172536   7.634   7.807   3.751
24098WAT     H272537   7.784   7.870   3.738
24099WAT      O72538   3.372   1.242   4.084
24099WAT     H172539   3.472   1.234   4.076
24099WAT     H272540   3.338   1.175   4.149
24100WAT      O72541   6.668   0.213   5.335
24100WAT     H172542   6.744   0.209   5.401
24100WAT     H272543   6.629   0.122   5.324
24101WAT      O72544   6.080   3.827   8.993
24101WAT     H172545   6.008   3.867   8.936
24101WAT     H272546   6.040   3.761   9.056
24102WAT      O72547   6.479   3.728   6.035
24102WAT     H172548   6.436   3.818   6.046
24102WAT     H272549   6.475   3.678   6.121
24103WAT      O72550   3.709   0.812   2.494
24103WAT     H172551   3.756   0.726   2.513
24103WAT     H272552   3.710   0.870   2.576
24104WAT      O72553   4.689   6.582   2.189
24104WAT     H172554   4.664   6.630   2.273
24104WAT     H272555   4.763   6.631   2.144
24105WAT      O72556   2.446   3.741   5.616
24105WAT     H172557   2.470   3.745   5.713
24105WAT     H272558   2.416   3.832   5.586
24106WAT      O72559   2.579   8.443   6.910
24106WAT     H172560   2.648   8.489   6.965
24106WAT     H272561   2.621   8.370   6.857
24107WAT      O72562   9.656   7.295   8.516
24107WAT     H172563   9.748   7.275   8.549
24107WAT     H272564   9.657   7.381   8.465
24108WAT      O72565   9.208   3.821   4.173
24108WAT     H172566   9.201   3.721   4.164
24108WAT     H272567   9.301   3.849   4.152
24109WAT      O72568   5.284   6.669   9.463
24109WAT     H172569   5.261   6.767   9.468
24109WAT     H272570   5.237   6.620   9.536
24110WAT      O72571   2.041   1.231   2.509
24110WAT     H172572   1.957   1.285   2.505
24110WAT     H272573   2.107   1.276   2.569
24111WAT      O72574   3.345   0.302   1.191
24111WAT     H172575   3.391   0.214   1.201
24111WAT     H272576   3.248   0.286   1.171
24112WAT      O72577   6.333   0.478   6.438
24112WAT     H172578   6.318   0.396   6.494
24112WAT     H272579   6.246   0.508   6.400
24113WAT      O72580   6.891   8.359   1.650
24113WAT     H172581   6.900   8.369   1.551
24113WAT     H272582   6.795   8.365   1.676
24114WAT      O72583   3.292   5.766   4.609
24114WAT     H172584   3.377   5.768   4.557
24114WAT     H272585   3.292   5.840   4.677
24115WAT      O72586   4.536   8.709   9.605
24115WAT     H172587   4.551   8.611   9.591
24115WAT     H272588   4.584   8.738   9.688
24116WAT      O72589   5.027   0.350   1.573
24116WAT     H172590   5.042   0.312   1.664
24116WAT     H272591   5.115   0.380   1.534
24117WAT      O72592   3.686   2.768   6.936
24117WAT     H172593   3.603   2.795   6.986
24117WAT     H272594   3.685   2.670   6.920
24118WAT      O72595   4.422   1.284   9.520
24118WAT     H172596   4.362   1.269   9.599
24118WAT     H272597   4.418   1.381   9.494
24119WAT      O72598   4.430   6.239   7.595
24119WAT     H172599   4.482   6.244   7.680
24119WAT     H272600   4.481   6.187   7.527
24120WAT      O72601   5.779   6.066   7.289
24120WAT     H172602   5.848   6.112   7.345
24120WAT     H272603   5.817   6.046   7.199
24121WAT      O72604   5.855   4.321   1.616
24121WAT     H172605   5.932   4.259   1.604
24121WAT     H272606   5.854   4.355   1.710
24122WAT      O72607   5.611   3.288   3.759
24122WAT     H172608   5.647   3.363   3.702
24122WAT     H272609   5.594   3.208   3.701
24123WAT      O72610   9.535   9.391   7.362
24123WAT     H172611   9.482   9.474   7.348
24123WAT     H272612   9.619   9.396   7.308
24124WAT      O72613   1.985   1.838   7.009
24124WAT     H172614   1.912   1.772   7.025
24124WAT     H272615   1.952   1.930   7.032
24125WAT      O72616   1.571   5.409   1.342
24125WAT     H172617   1.535   5.339   1.280
24125WAT     H272618   1.661   5.439   1.310
24126WAT      O72619   7.108   9.590   7.523
24126WAT     H172620   7.124   9.681   7.483
24126WAT     H272621   7.101   9.522   7.450
24127WAT      O72622   1.644   9.185   6.174
24127WAT     H172623   1.636   9.158   6.270
24127WAT     H272624   1.573   9.251   6.152
24128WAT      O72625   3.211   0.845   6.560
24128WAT     H172626   3.208   0.916   6.489
24128WAT     H272627   3.306   0.829   6.587
24129WAT      O72628   4.390   7.655   8.437
24129WAT     H172629   4.363   7.686   8.346
24129WAT     H272630   4.490   7.645   8.441
24130WAT      O72631   6.801   4.748   8.178
24130WAT     H172632   6.736   4.814   8.215
24130WAT     H272633   6.894   4.784   8.187
24131WAT      O72634   8.672   9.690   6.076
24131WAT     H172635   8.629   9.607   6.113
24131WAT     H272636   8.621   9.770   6.107
24132WAT      O72637   4.582   3.889   6.880
24132WAT     H172638   4.659   3.850   6.930
24132WAT     H272639   4.590   3.865   6.783
24133WAT      O72640   0.747   4.498   6.900
24133WAT     H172641   0.726   4.547   6.816
24133WAT     H272642   0.736   4.400   6.886
24134WAT      O72643   6.948   7.786   8.222
24134WAT     H172644   6.899   7.703   8.195
24134WAT     H272645   7.046   7.770   8.219
24135WAT      O72646   5.300   1.266   4.205
24135WAT     H172647   5.267   1.240   4.295
24135WAT     H272648   5.296   1.365   4.195
24136WAT      O72649   0.325   4.739   6.596
24136WAT     H172650   0.235   4.740   6.553
24136WAT     H272651   0.361   4.646   6.595
24137WAT      O72652   1.006   3.953   9.000
24137WAT     H172653   0.984   3.858   9.020
24137WAT     H272654   1.054   3.992   9.079
24138WAT      O72655   2.303   0.176   8.568
24138WAT     H172656   2.380   0.113   8.578
24138WAT     H272657   2.310   0.249   8.636
24139WAT      O72658   1.839   5.732   3.767
24139WAT     H172659   1.873   5.817   3.807
24139WAT     H272660   1.872   5.724   3.673
24140WAT      O72661   2.094   1.322   4.687
24140WAT     H172662   2.094   1.311   4.786
24140WAT     H272663   2.140   1.244   4.645
24141WAT      O72664   6.130   5.473   9.321
24141WAT     H172665   6.181   5.418   9.255
24141WAT     H272666   6.097   5.414   9.395
24142WAT      O72667   3.369   7.513   7.671
24142WAT     H172668   3.345   7.418   7.651
24142WAT     H272669   3.467   7.519   7.689
24143WAT      O72670   6.462   1.278   4.544
24143WAT     H172671   6.474   1.182   4.519
24143WAT     H272672   6.500   1.337   4.473
24144WAT      O72673   4.926   6.468   4.725
24144WAT     H172674   4.979   6.440   4.645
24144WAT     H272675   4.946   6.564   4.746
24145WAT      O72676   4.860   0.645   7.052
24145WAT     H172677   4.825   0.556   7.081
24145WAT     H272678   4.892   0.639   6.957
24146WAT      O72679   7.308   2.198   1.331
24146WAT     H172680   7.286   2.103   1.307
24146WAT     H272681   7.395   2.200   1.380
24147WAT      O72682   8.457   8.606   4.726
24147WAT     H172683   8.415   8.597   4.816
24147WAT     H272684   8.388   8.636   4.660
24148WAT      O72685   6.932   7.580   2.325
24148WAT     H172686   6.858   7.536   2.275
24148WAT     H272687   6.922   7.680   2.319
24149WAT      O72688   7.966   2.143   1.917
24149WAT     H172689   8.004   2.128   1.826
24149WAT     H272690   8.041   2.162   1.981
24150WAT      O72691   5.915   6.736   7.163
24150WAT     H172692   5.983   6.664   7.180
24150WAT     H272693   5.908   6.754   7.065
24151WAT      O72694   2.824   4.007   3.116
24151WAT     H172695   2.847   3.963   3.029
24151WAT     H272696   2.747   3.959   3.158
24152WAT      O72697   1.503   2.554   5.802
24152WAT     H172698   1.512   2.454   5.798
24152WAT     H272699   1.462   2.587   5.717
24153WAT      O72700   1.367   0.111   4.533
24153WAT     H172701   1.318   0.049   4.594
24153WAT     H272702   1.313   0.127   4.450
24154WAT      O72703   2.480   0.884   1.803
24154WAT     H172704   2.388   0.917   1.823
24154WAT     H272705   2.532   0.957   1.757
24155WAT      O72706   1.815   4.949   8.035
24155WAT     H172707   1.822   5.046   8.012
24155WAT     H272708   1.740   4.935   8.100
24156WAT      O72709   1.128   7.575   3.644
24156WAT     H172710   1.075   7.491   3.633
24156WAT     H272711   1.114   7.611   3.736
24157WAT      O72712   2.771   1.574   1.162
24157WAT     H172713   2.784   1.671   1.143
24157WAT     H272714   2.709   1.535   1.094
24158WAT      O72715   8.943   0.920   8.029
24158WAT     H172716   9.028   0.922   7.977
24158WAT     H272717   8.943   0.841   8.089
24159WAT      O72718   5.646   4.469   9.874
24159WAT     H172719   5.722   4.403   9.873
24159WAT     H272720   5.589   4.453   9.954
24160WAT      O72721   9.608   4.058   9.349
24160WAT     H172722   9.685   4.053   9.413
24160WAT     H272723   9.620   3.989   9.278
24161WAT      O72724   4.607   5.877   7.097
24161WAT     H172725   4.614   5.801   7.033
24161WAT     H272726   4.533   5.938   7.070
24162WAT      O72727   0.179   4.770   2.147
24162WAT     H172728   0.230   4.790   2.063
24162WAT     H272729   0.123   4.850   2.171
24163WAT      O72730   6.488   6.413   1.865
24163WAT     H172731   6.512   6.510   1.860
24163WAT     H272732   6.398   6.399   1.823
24164WAT      O72733   6.255   4.910   5.628
24164WAT     H172734   6.194   4.843   5.671
24164WAT     H272735   6.304   4.960   5.699
24165WAT      O72736   0.689   5.585   1.104
24165WAT     H172737   0.686   5.667   1.047
24165WAT     H272738   0.689   5.503   1.046
24166WAT      O72739   3.752   2.696   7.442
24166WAT     H172740   3.822   2.627   7.422
24166WAT     H272741   3.701   2.669   7.523
24167WAT      O72742   9.787   5.138   6.575
24167WAT     H172743   9.693   5.124   6.608
24167WAT     H272744   9.805   5.076   6.499
24168WAT      O72745   9.147   2.036   1.494
24168WAT     H172746   9.154   2.037   1.394
24168WAT     H272747   9.062   2.081   1.521
24169WAT      O72748   4.708   1.568   0.590
24169WAT     H172749   4.716   1.649   0.648
24169WAT     H272750   4.641   1.505   0.630
24170WAT      O72751   8.426   6.421   7.890
24170WAT     H172752   8.480   6.421   7.806
24170WAT     H272753   8.482   6.455   7.966
24171WAT      O72754   3.166   3.436   8.091
24171WAT     H172755   3.141   3.390   8.006
24171WAT     H272756   3.084   3.464   8.139
24172WAT      O72757   7.223   7.940   2.453
24172WAT     H172758   7.272   7.998   2.518
24172WAT     H272759   7.152   7.888   2.501
24173WAT      O72760   1.509   6.344   3.901
24173WAT     H172761   1.579   6.361   3.832
24173WAT     H272762   1.423   6.384   3.871
24174WAT      O72763   6.827   0.751   7.668
24174WAT     H172764   6.854   0.655   7.657
24174WAT     H272765   6.787   0.764   7.759
24175WAT      O72766   8.918   9.255   4.489
24175WAT     H172767   8.931   9.186   4.560
24175WAT     H272768   8.961   9.223   4.404
24176WAT      O72769   3.814   2.441   8.810
24176WAT     H172770   3.912   2.460   8.806
24176WAT     H272771   3.799   2.342   8.803
24177WAT      O72772   4.006   3.114   1.011
24177WAT     H172773   4.018   3.185   0.942
24177WAT     H272774   4.094   3.073   1.033
24178WAT      O72775   8.544   2.096   2.927
24178WAT     H172776   8.485   2.115   3.005
24178WAT     H272777   8.500   2.128   2.843
24179WAT      O72778   2.388   5.488   8.956
24179WAT     H172779   2.305   5.457   8.910
24179WAT     H272780   2.466   5.434   8.923
24180WAT      O72781   3.888   6.840   5.932
24180WAT     H172782   3.845   6.774   5.871
24180WAT     H272783   3.885   6.931   5.891
24181WAT      O72784   1.266   6.357   9.294
24181WAT     H172785   1.260   6.403   9.205
24181WAT     H272786   1.285   6.260   9.280
24182WAT      O72787   2.824   7.888   8.127
24182WAT     H172788   2.837   7.983   8.156
24182WAT     H272789   2.738   7.880   8.078
24183WAT      O72790   1.823   2.611   2.918
24183WAT     H172791   1.736   2.596   2.870
24183WAT     H272792   1.806   2.661   3.003
24184WAT      O72793   2.856   4.964   8.413
24184WAT     H172794   2.879   5.027   8.487
24184WAT     H272795   2.759   4.974   8.390
24185WAT      O72796   2.228   0.212   5.330
24185WAT     H172797   2.220   0.131   5.388
24185WAT     H272798   2.139   0.229   5.286
24186WAT      O72799   1.296   2.540   2.792
24186WAT     H172800   1.327   2.624   2.837
24186WAT     H272801   1.241   2.564   2.712
24187WAT      O72802   6.575   7.875   5.196
24187WAT     H172803   6.650   7.865   5.131
24187WAT     H272804   6.611   7.898   5.287
24188WAT      O72805   1.841   1.615   7.112
24188WAT     H172806   1.742   1.611   7.098
24188WAT     H272807   1.885   1.542   7.061
24189WAT      O72808   2.224   8.918   9.052
24189WAT     H172809   2.320   8.892   9.061
24189WAT     H272810   2.180   8.914   9.141
24190WAT      O72811   5.080   3.339   4.323
24190WAT     H172812   5.069   3.412   4.255
24190WAT     H272813   5.111   3.256   4.278
24191WAT      O72814   1.159   7.760   9.477
24191WAT     H172815   1.092   7.687   9.492
24191WAT     H272816   1.194   7.792   9.565
24192WAT      O72817   0.934   7.194   7.751
24192WAT     H172818   0.843   7.231   7.771
24192WAT     H272819   0.992   7.266   7.713
24193WAT      O72820   1.708   3.844   2.146
24193WAT     H172821   1.747   3.930   2.179
24193WAT     H272822   1.689   3.784   2.224
24194WAT      O72823   0.426   6.296   3.684
24194WAT     H172824   0.408   6.343   3.598
24194WAT     H272825   0.350   6.311   3.747
24195WAT      O72826   0.541   6.642   3.951
24195WAT     H172827   0.594   6.564   3.917
24195WAT     H272828   0.484   6.612   4.028
24196WAT      O72829   6.771   5.243   2.475
24196WAT     H172830   6.689   5.295   2.498
24196WAT     H272831   6.816   5.285   2.397
24197WAT      O72832   8.794   5.576   3.649
24197WAT     H172833   8.816   5.501   3.587
24197WAT     H272834   8.877   5.626   3.673
24198WAT      O72835   5.877   9.613   7.590
24198WAT     H172836   5.947   9.542   7.590
24198WAT     H272837   5.896   9.678   7.664
24199WAT      O72838   7.657   5.887   4.513
24199WAT     H172839   7.595   5.850   4.444
24199WAT     H272840   7.749   5.852   4.497
24200WAT      O72841   7.980   7.884   5.447
24200WAT     H172842   7.943   7.931   5.527
24200WAT     H272843   8.021   7.797   5.475
24201WAT      O72844   9.391   2.131   9.684
24201WAT     H172845   9.320   2.202   9.681
24201WAT     H272846   9.425   2.114   9.592
24202WAT      O72847   3.180   7.512   1.551
24202WAT     H172848   3.185   7.611   1.539
24202WAT     H272849   3.103   7.490   1.611
24203WAT      O72850   0.826   2.288   6.143
24203WAT     H172851   0.878   2.202   6.143
24203WAT     H272852   0.807   2.315   6.049
24204WAT      O72853   9.156   3.933   4.439
24204WAT     H172854   9.138   3.877   4.358
24204WAT     H272855   9.222   4.005   4.415
24205WAT      O72856   1.696   8.495   6.935
24205WAT     H172857   1.776   8.515   6.877
24205WAT     H272858   1.727   8.455   7.021
24206WAT      O72859   8.423   3.824   5.076
24206WAT     H172860   8.394   3.897   5.137
24206WAT     H272861   8.394   3.846   4.982
24207WAT      O72862   1.778   0.286   3.740
24207WAT     H172863   1.741   0.209   3.791
24207WAT     H272864   1.703   0.341   3.703
24208WAT      O72865   3.656   3.156   0.424
24208WAT     H172866   3.745   3.165   0.469
24208WAT     H272867   3.585   3.193   0.484
24209WAT      O72868   2.660   6.868   8.215
24209WAT     H172869   2.747   6.904   8.249
24209WAT     H272870   2.663   6.768   8.216
24210WAT      O72871   3.417   2.380   3.562
24210WAT     H172872   3.317   2.374   3.559
24210WAT     H272873   3.450   2.415   3.475
24211WAT      O72874   1.723   0.206   2.149
24211WAT     H172875   1.725   0.106   2.155
24211WAT     H272876   1.793   0.238   2.085
24212WAT      O72877   5.999   7.873   7.568
24212WAT     H172878   5.946   7.803   7.520
24212WAT     H272879   5.964   7.883   7.661
24213WAT      O72880   7.841   6.061   3.558
24213WAT     H172881   7.908   6.132   3.535
24213WAT     H272882   7.874   6.006   3.634
24214WAT      O72883   9.645   2.124   2.486
24214WAT     H172884   9.694   2.071   2.418
24214WAT     H272885   9.566   2.169   2.444
24215WAT      O72886   8.495   9.686   7.423
24215WAT     H172887   8.479   9.589   7.441
24215WAT     H272888   8.519   9.698   7.326
24216WAT      O72889   8.575   0.349   3.741
24216WAT     H172890   8.535   0.297   3.817
24216WAT     H272891   8.597   0.442   3.771
24217WAT      O72892   3.469   0.939   8.419
24217WAT     H172893   3.380   0.931   8.464
24217WAT     H272894   3.484   1.035   8.393
24218WAT      O72895   0.894   1.228   4.163
24218WAT     H172896   0.923   1.314   4.206
24218WAT     H272897   0.848   1.171   4.231
24219WAT      O72898   9.466   9.406   4.304
24219WAT     H172899   9.473   9.506   4.310
24219WAT     H272900   9.514   9.366   4.382
24220WAT      O72901   6.233   2.520   0.232
24220WAT     H172902   6.137   2.548   0.233
24220WAT     H272903   6.254   2.470   0.316
24221WAT      O72904   2.756   9.654   8.857
24221WAT     H172905   2.660   9.653   8.885
24221WAT     H272906   2.814   9.653   8.939
24222WAT      O72907   9.348   7.007   4.355
24222WAT     H172908   9.341   7.093   4.404
24222WAT     H272909   9.285   7.007   4.278
24223WAT      O72910   1.293   1.718   9.447
24223WAT     H172911   1.384   1.711   9.487
24223WAT     H272912   1.286   1.659   9.367
24224WAT      O72913   8.427   3.107   0.880
24224WAT     H172914   8.364   3.164   0.827
24224WAT     H272915   8.443   3.149   0.969
24225WAT      O72916   0.070   8.909   3.770
24225WAT     H172917   0.103   8.991   3.723
24225WAT     H272918  -0.023   8.925   3.803
24226WAT      O72919   3.085   8.697   1.791
24226WAT     H172920   3.144   8.773   1.766
24226WAT     H272921   3.051   8.652   1.708
24227WAT      O72922   0.926   5.011   0.531
24227WAT     H172923   0.997   5.003   0.601
24227WAT     H272924   0.943   4.945   0.458
24228WAT      O72925   4.189   6.496   0.726
24228WAT     H172926   4.211   6.430   0.798
24228WAT     H272927   4.168   6.584   0.767
24229WAT      O72928   6.729   6.682   6.633
24229WAT     H172929   6.648   6.625   6.649
24229WAT     H272930   6.754   6.678   6.536
24230WAT      O72931   2.650   1.671   8.674
24230WAT     H172932   2.577   1.729   8.709
24230WAT     H272933   2.692   1.620   8.749
24231WAT      O72934   4.280   4.286   5.992
24231WAT     H172935   4.356   4.237   6.033
24231WAT     H272936   4.209   4.302   6.061
24232WAT      O72937   1.917   4.417   1.396
24232WAT     H172938   1.948   4.404   1.302
24232WAT     H272939   1.989   4.388   1.459
24233WAT      O72940   8.953   0.145   1.854
24233WAT     H172941   8.993   0.057   1.828
24233WAT     H272942   8.865   0.131   1.899
24234WAT      O72943   8.988   2.534   8.011
24234WAT     H172944   9.029   2.454   8.053
24234WAT     H272945   8.932   2.506   7.933
24235WAT      O72946   1.983   1.136   0.923
24235WAT     H172947   2.072   1.102   0.956
24235WAT     H272948   1.961   1.092   0.836
24236WAT      O72949   2.743   6.479   1.666
24236WAT     H172950   2.724   6.410   1.596
24236WAT     H272951   2.670   6.478   1.735
24237WAT      O72952   4.580   7.894   9.159
24237WAT     H172953   4.545   7.987   9.169
24237WAT     H272954   4.612   7.861   9.248
24238WAT      O72955   5.266   7.314   3.060
24238WAT     H172956   5.258   7.364   3.146
24238WAT     H272957   5.301   7.222   3.077
24239WAT      O72958   0.562   6.320   2.912
24239WAT     H172959   0.565   6.361   2.821
24239WAT     H272960   0.650   6.276   2.931
24240WAT      O72961   7.960   4.778   0.767
24240WAT     H172962   7.874   4.727   0.770
24240WAT     H272963   7.940   4.876   0.765
24241WAT      O72964   4.311   9.833   9.244
24241WAT     H172965   4.344   9.752   9.292
24241WAT     H272966   4.231   9.870   9.292
24242WAT      O72967   7.348   6.925   1.483
24242WAT     H172968   7.446   6.914   1.467
24242WAT     H272969   7.329   7.021   1.505
24243WAT      O72970   9.410   5.965   8.002
24243WAT     H172971   9.336   5.944   8.066
24243WAT     H272972   9.484   6.011   8.051
24244WAT      O72973   8.711   2.109   4.697
24244WAT     H172974   8.743   2.192   4.741
24244WAT     H272975   8.765   2.031   4.729
24245WAT      O72976   9.801   6.375   0.518
24245WAT     H172977   9.823   6.278   0.517
24245WAT     H272978   9.757   6.399   0.605
24246WAT      O72979   6.060   6.870   5.691
24246WAT     H172980   6.107   6.958   5.696
24246WAT     H272981   6.064   6.825   5.780
24247WAT      O72982   3.622   2.168   0.090
24247WAT     H172983   3.621   2.098   0.161
24247WAT     H272984   3.716   2.197   0.073
24248WAT      O72985   2.137   3.442   1.252
24248WAT     H172986   2.144   3.496   1.168
24248WAT     H272987   2.204   3.475   1.318
24249WAT      O72988   1.068   1.629   0.708
24249WAT     H172989   1.121   1.610   0.626
24249WAT     H272990   1.004   1.554   0.725
24250WAT      O72991   1.236   5.965   9.132
24250WAT     H172992   1.221   6.027   9.055
24250WAT     H272993   1.203   5.874   9.109
24251WAT      O72994   2.884   2.495   5.305
24251WAT     H172995   2.841   2.581   5.333
24251WAT     H272996   2.981   2.496   5.329
24252WAT      O72997   6.594   3.369   6.070
24252WAT     H172998   6.663   3.321   6.124
24252WAT     H272999   6.572   3.316   5.988
24253WAT      O73000   2.330   8.423   3.162
24253WAT     H173001   2.311   8.498   3.098
24253WAT     H273002   2.352   8.340   3.110
24254WAT      O73003   5.395   0.113   5.669
24254WAT     H173004   5.378   0.157   5.757
24254WAT     H273005   5.481   0.148   5.630
24255WAT      O73006   9.430   4.853   5.083
24255WAT     H173007   9.343   4.805   5.076
24255WAT     H273008   9.470   4.864   4.992
24256WAT      O73009   5.644   6.442   5.312
24256WAT     H173010   5.684   6.350   5.316
24256WAT     H273011   5.572   6.449   5.381
24257WAT      O73012   0.991   0.518   6.214
24257WAT     H173013   1.081   0.536   6.254
24257WAT     H273014   0.994   0.535   6.115
24258WAT      O73015   0.392   8.691   2.620
24258WAT     H173016   0.422   8.602   2.656
24258WAT     H273017   0.335   8.737   2.689
24259WAT      O73018   8.996   0.191   0.493
24259WAT     H173019   8.912   0.143   0.466
24259WAT     H273020   9.058   0.127   0.537
24260WAT      O73021   3.022   3.498   7.113
24260WAT     H173022   2.961   3.454   7.179
24260WAT     H273023   3.011   3.455   7.023
24261WAT      O73024   8.290   8.720   8.002
24261WAT     H173025   8.235   8.796   8.036
24261WAT     H273026   8.386   8.747   7.997
24262WAT      O73027   6.055   5.971   5.313
24262WAT     H173028   6.011   5.886   5.282
24262WAT     H273029   6.145   5.979   5.270
24263WAT      O73030   9.598   3.334   3.848
24263WAT     H173031   9.659   3.413   3.859
24263WAT     H273032   9.505   3.360   3.876
24264WAT      O73033   1.814   2.782   3.472
24264WAT     H173034   1.885   2.840   3.432
24264WAT     H273035   1.791   2.815   3.564
24265WAT      O73036   9.132   0.968   2.480
24265WAT     H173037   9.178   0.910   2.547
24265WAT     H273038   9.116   1.059   2.520
24266WAT      O73039   3.799   6.510   1.858
24266WAT     H173040   3.720   6.490   1.799
24266WAT     H273041   3.883   6.481   1.812
24267WAT      O73042   9.229   8.326   9.834
24267WAT     H173043   9.294   8.399   9.811
24267WAT     H273044   9.254   8.286   9.923
24268WAT      O73045   9.114   5.892   7.037
24268WAT     H173046   9.116   5.969   6.974
24268WAT     H273047   9.065   5.917   7.120
24269WAT      O73048   2.137   4.809   4.013
24269WAT     H173049   2.190   4.731   4.047
24269WAT     H273050   2.156   4.889   4.070
24270WAT      O73051   7.354   1.508   3.903
24270WAT     H173052   7.407   1.589   3.926
24270WAT     H273053   7.353   1.495   3.804
24271WAT      O73054   6.994   5.461   7.055
24271WAT     H173055   7.002   5.558   7.078
24271WAT     H273056   7.078   5.413   7.083
24272WAT      O73057   5.236   6.265   5.938
24272WAT     H173058   5.193   6.305   6.019
24272WAT     H273059   5.231   6.165   5.944
24273WAT      O73060   4.069   6.971   2.282
24273WAT     H173061   4.039   7.041   2.347
24273WAT     H273062   4.156   6.999   2.241
24274WAT      O73063   4.279   1.747   1.815
24274WAT     H173064   4.314   1.659   1.849
24274WAT     H273065   4.266   1.741   1.716
24275WAT      O73066   2.284   4.343   1.271
24275WAT     H173067   2.302   4.254   1.228
24275WAT     H273068   2.266   4.330   1.369
24276WAT      O73069   8.511   1.829   8.672
24276WAT     H173070   8.539   1.827   8.768
24276WAT     H273071   8.414   1.854   8.667
24277WAT      O73072   5.736   9.804   8.158
24277WAT     H173073   5.663   9.755   8.205
24277WAT     H273074   5.696   9.865   8.089
24278WAT      O73075   4.765   9.339   9.691
24278WAT     H173076   4.853   9.317   9.650
24278WAT     H273077   4.705   9.259   9.686
24279WAT      O73078   4.906   6.302   0.378
24279WAT     H173079   4.819   6.261   0.351
24279WAT     H273080   4.899   6.401   0.376
24280WAT      O73081   9.750   5.969   4.348
24280WAT     H173082   9.789   6.002   4.262
24280WAT     H273083   9.796   5.884   4.375
24281WAT      O73084   7.669   7.502   2.723
24281WAT     H173085   7.651   7.481   2.819
24281WAT     H273086   7.586   7.488   2.669
24282WAT      O73087   4.002   0.748   5.928
24282WAT     H173088   3.972   0.828   5.979
24282WAT     H273089   4.026   0.675   5.991
24283WAT      O73090   3.274   8.146   5.963
24283WAT     H173091   3.310   8.064   5.919
24283WAT     H273092   3.250   8.213   5.894
24284WAT      O73093   4.170   7.515   7.958
24284WAT     H173094   4.261   7.557   7.961
24284WAT     H273095   4.101   7.581   7.988
24285WAT      O73096   4.187   0.624   6.118
24285WAT     H173097   4.221   0.718   6.118
24285WAT     H273098   4.265   0.561   6.116
24286WAT      O73099   5.577   2.756   7.712
24286WAT     H173100   5.613   2.689   7.647
24286WAT     H273101   5.581   2.847   7.672
24287WAT      O73102   0.943   6.506   5.510
24287WAT     H173103   0.854   6.551   5.521
24287WAT     H273104   0.934   6.429   5.447
24288WAT      O73105   9.446   9.288   3.669
24288WAT     H173106   9.522   9.274   3.606
24288WAT     H273107   9.360   9.273   3.621
24289WAT      O73108   8.882   1.552   7.841
24289WAT     H173109   8.936   1.601   7.773
24289WAT     H273110   8.874   1.607   7.924
24290WAT      O73111   2.909   0.570   6.435
24290WAT     H173112   2.821   0.553   6.479
24290WAT     H273113   2.932   0.493   6.376
24291WAT      O73114   7.085   9.070   3.712
24291WAT     H173115   7.016   9.013   3.667
24291WAT     H273116   7.070   9.068   3.811
24292WAT      O73117   7.326   5.089   5.970
24292WAT     H173118   7.402   5.034   5.938
24292WAT     H273119   7.240   5.050   5.938
24293WAT      O73120   8.511   7.407   9.247
24293WAT     H173121   8.585   7.396   9.181
24293WAT     H273122   8.439   7.464   9.208
24294WAT      O73123   9.566   0.886   6.800
24294WAT     H173124   9.600   0.956   6.863
24294WAT     H273125   9.497   0.927   6.740
24295WAT      O73126   1.423   9.187   3.187
24295WAT     H173127   1.416   9.238   3.101
24295WAT     H273128   1.519   9.182   3.214
24296WAT      O73129   9.805   6.754   0.409
24296WAT     H173130   9.810   6.693   0.330
24296WAT     H273131   9.869   6.830   0.396
24297WAT      O73132   8.569   4.070   6.497
24297WAT     H173133   8.551   4.007   6.421
24297WAT     H273134   8.652   4.123   6.477
24298WAT      O73135   3.911   6.150   1.545
24298WAT     H173136   3.947   6.056   1.543
24298WAT     H273137   3.924   6.192   1.456
24299WAT      O73138   0.262   4.894   3.462
24299WAT     H173139   0.285   4.799   3.484
24299WAT     H273140   0.307   4.955   3.526
24300WAT      O73141   2.124   1.608   8.040
24300WAT     H173142   2.174   1.551   8.105
24300WAT     H273143   2.041   1.560   8.011
24301WAT      O73144   0.191   3.858   5.027
24301WAT     H173145   0.183   3.792   5.101
24301WAT     H273146   0.215   3.948   5.065
24302WAT      O73147   5.989   8.849   0.886
24302WAT     H173148   6.058   8.824   0.817
24302WAT     H273149   6.008   8.941   0.920
24303WAT      O73150   1.288   2.241   8.811
24303WAT     H173151   1.276   2.147   8.844
24303WAT     H273152   1.199   2.283   8.795
24304WAT      O73153   2.808   0.750   0.865
24304WAT     H173154   2.813   0.760   0.765
24304WAT     H273155   2.898   0.770   0.904
24305WAT      O73156   6.693   7.552   7.426
24305WAT     H173157   6.713   7.455   7.438
24305WAT     H273158   6.668   7.569   7.331
24306WAT      O73159   6.610   2.646   9.311
24306WAT     H173160   6.600   2.655   9.410
24306WAT     H273161   6.636   2.552   9.288
24307WAT      O73162   8.772   3.739   5.708
24307WAT     H173163   8.783   3.772   5.614
24307WAT     H273164   8.742   3.644   5.706
24308WAT      O73165   6.499   2.766   7.330
24308WAT     H173166   6.558   2.720   7.398
24308WAT     H273167   6.406   2.730   7.337
24309WAT      O73168   5.613   6.851   8.399
24309WAT     H173169   5.698   6.804   8.423
24309WAT     H273170   5.597   6.926   8.463
24310WAT      O73171   9.243   9.309   0.157
24310WAT     H173172   9.221   9.391   0.209
24310WAT     H273173   9.158   9.260   0.135
24311WAT      O73174   0.643   3.927   0.020
24311WAT     H173175   0.736   3.891   0.028
24311WAT     H273176   0.583   3.878   0.083
24312WAT      O73177   9.623   1.477   9.564
24312WAT     H173178   9.652   1.387   9.531
24312WAT     H273179   9.643   1.546   9.495
24313WAT      O73180   2.301   1.738   2.663
24313WAT     H173181   2.283   1.836   2.671
24313WAT     H273182   2.283   1.708   2.570
24314WAT      O73183   9.470   3.224   4.216
24314WAT     H173184   9.415   3.174   4.148
24314WAT     H273185   9.565   3.226   4.187
24315WAT      O73186   2.784   8.471   5.844
24315WAT     H173187   2.841   8.399   5.884
24315WAT     H273188   2.821   8.497   5.755
24316WAT      O73189   9.643   9.025   5.585
24316WAT     H173190   9.618   9.006   5.490
24316WAT     H273191   9.641   8.941   5.638
24317WAT      O73192   6.742   2.264   7.317
24317WAT     H173193   6.727   2.307   7.405
24317WAT     H273194   6.665   2.204   7.295
24318WAT      O73195   8.030   0.980   2.766
24318WAT     H173196   8.053   1.039   2.688
24318WAT     H273197   8.036   1.033   2.850
24319WAT      O73198   0.575   3.923   6.637
24319WAT     H173199   0.527   4.010   6.626
24319WAT     H273200   0.646   3.933   6.706
24320WAT      O73201   3.124   9.070   2.688
24320WAT     H173202   3.174   9.004   2.744
24320WAT     H273203   3.174   9.086   2.602
24321WAT      O73204   1.768   6.180   5.909
24321WAT     H173205   1.859   6.222   5.908
24321WAT     H273206   1.738   6.168   6.003
24322WAT      O73207   9.740   5.014   7.658
24322WAT     H173208   9.730   5.047   7.751
24322WAT     H273209   9.660   4.960   7.632
24323WAT      O73210   1.090   6.991   4.144
24323WAT     H173211   1.171   7.019   4.093
24323WAT     H273212   1.059   7.067   4.201
24324WAT      O73213   2.702   5.674   0.717
24324WAT     H173214   2.745   5.586   0.699
24324WAT     H273215   2.773   5.742   0.737
24325WAT      O73216   0.556   1.015   1.173
24325WAT     H173217   0.555   0.925   1.215
24325WAT     H273218   0.597   1.081   1.236
24326WAT      O73219   6.281   3.561   3.709
24326WAT     H173220   6.197   3.578   3.760
24326WAT     H273221   6.360   3.575   3.769
24327WAT      O73222   8.972   2.797   8.153
24327WAT     H173223   9.062   2.836   8.169
24327WAT     H273224   8.978   2.697   8.153
24328WAT      O73225   4.345   3.328   9.439
24328WAT     H173226   4.341   3.233   9.407
24328WAT     H273227   4.301   3.388   9.372
24329WAT      O73228   5.690   4.120   3.640
24329WAT     H173229   5.696   4.111   3.740
24329WAT     H273230   5.719   4.212   3.613
24330WAT      O73231   7.951   3.187   4.174
24330WAT     H173232   7.870   3.187   4.115
24330WAT     H273233   7.933   3.244   4.254
24331WAT      O73234   5.770   1.052   1.303
24331WAT     H173235   5.769   1.023   1.207
24331WAT     H273236   5.698   1.004   1.353
24332WAT      O73237   4.138   7.495   8.309
24332WAT     H173238   4.063   7.446   8.352
24332WAT     H273239   4.223   7.476   8.359
24333WAT      O73240   5.184   2.279   2.014
24333WAT     H173241   5.278   2.306   1.990
24333WAT     H273242   5.137   2.358   2.055
24334WAT      O73243   5.015   9.256   4.399
24334WAT     H173244   5.019   9.332   4.465
24334WAT     H273245   4.971   9.288   4.315
24335WAT      O73246   8.858   7.788   1.354
24335WAT     H173247   8.760   7.802   1.343
24335WAT     H273248   8.873   7.712   1.418
24336WAT      O73249   1.424   1.447   2.161
24336WAT     H173250   1.380   1.522   2.113
24336WAT     H273251   1.474   1.390   2.096
24337WAT      O73252   2.313   4.169   5.232
24337WAT     H173253   2.297   4.127   5.143
24337WAT     H273254   2.356   4.102   5.293
24338WAT      O73255   8.342   1.177   3.154
24338WAT     H173256   8.277   1.190   3.078
24338WAT     H273257   8.435   1.178   3.119
24339WAT      O73258   1.389   8.225   3.973
24339WAT     H173259   1.359   8.235   4.068
24339WAT     H273260   1.460   8.155   3.968
24340WAT      O73261   2.783   8.460   8.591
24340WAT     H173262   2.774   8.449   8.690
24340WAT     H273263   2.818   8.375   8.551
24341WAT      O73264   2.758   6.963   8.939
24341WAT     H173265   2.735   6.945   8.844
24341WAT     H273266   2.734   7.058   8.962
24342WAT      O73267   1.171   0.954   5.587
24342WAT     H173268   1.153   0.857   5.606
24342WAT     H273269   1.268   0.967   5.568
24343WAT      O73270   7.406   2.155   2.040
24343WAT     H173271   7.349   2.080   2.009
24343WAT     H273272   7.503   2.132   2.025
24344WAT      O73273   8.348   5.273   5.780
24344WAT     H173274   8.302   5.298   5.865
24344WAT     H273275   8.359   5.354   5.723
24345WAT      O73276   2.940   4.367   6.826
24345WAT     H173277   2.845   4.345   6.849
24345WAT     H273278   3.001   4.298   6.865
24346WAT      O73279   4.525   1.839   0.851
24346WAT     H173280   4.447   1.810   0.795
24346WAT     H273281   4.498   1.917   0.907
24347WAT      O73282   1.400   6.894   6.616
24347WAT     H173283   1.409   6.963   6.688
24347WAT     H273284   1.385   6.804   6.657
24348WAT      O73285   6.600   2.483   1.111
24348WAT     H173286   6.558   2.438   1.190
24348WAT     H273287   6.528   2.515   1.049
24349WAT      O73288   8.726   7.980   2.420
24349WAT     H173289   8.791   7.915   2.382
24349WAT     H273290   8.676   8.024   2.345
24350WAT      O73291   8.959   5.602   4.496
24350WAT     H173292   9.025   5.576   4.427
24350WAT     H273293   8.899   5.674   4.460
24351WAT      O73294   9.895   6.759   9.863
24351WAT     H173295   9.818   6.752   9.927
24351WAT     H273296   9.859   6.777   9.771
24352WAT      O73297   8.754   8.223   6.374
24352WAT     H173298   8.813   8.150   6.408
24352WAT     H273299   8.724   8.281   6.450
24353WAT      O73300   1.250   6.413   0.522
24353WAT     H173301   1.314   6.409   0.445
24353WAT     H273302   1.276   6.487   0.584
24354WAT      O73303   4.389   9.845   3.353
24354WAT     H173304   4.305   9.795   3.331
24354WAT     H273305   4.438   9.867   3.268
24355WAT      O73306   4.131   8.710   5.151
24355WAT     H173307   4.056   8.649   5.126
24355WAT     H273308   4.104   8.805   5.133
24356WAT      O73309   4.707   5.465   1.813
24356WAT     H173310   4.797   5.495   1.780
24356WAT     H273311   4.651   5.436   1.735
24357WAT      O73312   2.657   5.904   0.592
24357WAT     H173313   2.623   5.981   0.645
24357WAT     H273314   2.653   5.821   0.647
24358WAT      O73315   2.800   2.661   2.763
24358WAT     H173316   2.896   2.670   2.787
24358WAT     H273317   2.771   2.566   2.771
24359WAT      O73318   3.174   7.035   7.035
24359WAT     H173319   3.150   7.101   6.963
24359WAT     H273320   3.267   7.052   7.066
24360WAT      O73321   8.501   4.981   4.906
24360WAT     H173322   8.516   4.912   4.835
24360WAT     H273323   8.491   5.071   4.864
24361WAT      O73324   2.997   1.200   8.751
24361WAT     H173325   3.081   1.191   8.697
24361WAT     H273326   3.019   1.238   8.841
24362WAT      O73327   6.740   5.983   5.353
24362WAT     H173328   6.778   6.052   5.291
24362WAT     H273329   6.650   6.012   5.385
24363WAT      O73330   4.100   0.756   8.948
24363WAT     H173331   4.180   0.743   8.888
24363WAT     H273332   4.043   0.675   8.945
24364WAT      O73333   9.470   6.895   2.888
24364WAT     H173334   9.405   6.947   2.943
24364WAT     H273335   9.432   6.804   2.870
24365WAT      O73336   9.505   0.266   0.598
24365WAT     H173337   9.587   0.207   0.597
24365WAT     H273338   9.429   0.216   0.639
24366WAT      O73339   1.984   9.116   5.753
24366WAT     H173340   1.991   9.167   5.667
24366WAT     H273341   1.890   9.082   5.764
24367WAT      O73342   5.513   7.890   0.703
24367WAT     H173343   5.458   7.961   0.659
24367WAT     H273344   5.609   7.901   0.676
24368WAT      O73345   2.283   2.912   3.939
24368WAT     H173346   2.229   2.879   4.017
24368WAT     H273347   2.353   2.845   3.916
24369WAT      O73348   2.079   8.370   9.121
24369WAT     H173349   2.041   8.292   9.171
24369WAT     H273350   2.179   8.365   9.123
24370WAT      O73351   2.436   0.153   8.230
24370WAT     H173352   2.525   0.191   8.207
24370WAT     H273353   2.435   0.055   8.211
24371WAT      O73354   1.843   2.639   6.996
24371WAT     H173355   1.864   2.550   6.957
24371WAT     H273356   1.912   2.663   7.064
24372WAT      O73357   3.968   3.642   3.252
24372WAT     H173358   4.031   3.716   3.228
24372WAT     H273359   4.020   3.563   3.285
24373WAT      O73360   0.723   3.989   0.603
24373WAT     H173361   0.651   3.919   0.606
24373WAT     H273362   0.772   3.989   0.690
24374WAT      O73363   4.487   3.695   9.663
24374WAT     H173364   4.480   3.597   9.648
24374WAT     H273365   4.575   3.728   9.629
24375WAT      O73366   6.453   8.255   2.395
24375WAT     H173367   6.500   8.331   2.440
24375WAT     H273368   6.356   8.257   2.421
24376WAT      O73369   8.754   4.275   7.775
24376WAT     H173370   8.845   4.264   7.815
24376WAT     H273371   8.694   4.322   7.839
24377WAT      O73372   4.087   8.965   8.033
24377WAT     H173373   4.174   8.934   8.071
24377WAT     H273374   4.041   9.023   8.100
24378WAT      O73375   0.958   1.578   5.909
24378WAT     H173376   0.954   1.586   6.009
24378WAT     H273377   1.053   1.573   5.880
24379WAT      O73378   9.454   7.204   3.919
24379WAT     H173379   9.479   7.171   3.828
24379WAT     H273380   9.358   7.182   3.937
24380WAT      O73381   9.271   0.554   3.814
24380WAT     H173382   9.229   0.550   3.724
24380WAT     H273383   9.275   0.463   3.854
24381WAT      O73384   8.047   8.351   8.323
24381WAT     H173385   8.001   8.418   8.380
24381WAT     H273386   8.054   8.385   8.229
24382WAT      O73387   5.851   2.663   4.452
24382WAT     H173388   5.866   2.661   4.353
24382WAT     H273389   5.809   2.750   4.477
24383WAT      O73390   7.014   4.268   6.074
24383WAT     H173391   6.950   4.191   6.072
24383WAT     H273392   7.102   4.238   6.039
24384WAT      O73393   3.452   2.880   0.054
24384WAT     H173394   3.480   2.959   0.108
24384WAT     H273395   3.509   2.872  -0.027
24385WAT      O73396   4.870   9.832   8.109
24385WAT     H173397   4.925   9.878   8.179
24385WAT     H273398   4.889   9.873   8.020
24386WAT      O73399   0.220   6.692   5.804
24386WAT     H173400   0.308   6.721   5.840
24386WAT     H273401   0.215   6.711   5.706
24387WAT      O73402   8.655   1.447   6.774
24387WAT     H173403   8.733   1.466   6.715
24387WAT     H273404   8.575   1.426   6.718
24388WAT      O73405   5.183   0.300   6.912
24388WAT     H173406   5.264   0.266   6.961
24388WAT     H273407   5.143   0.225   6.859
24389WAT      O73408   3.941   7.736   4.632
24389WAT     H173409   3.962   7.701   4.540
24389WAT     H273410   3.871   7.806   4.626
24390WAT      O73411   1.039   3.272   5.267
24390WAT     H173412   1.094   3.189   5.255
24390WAT     H273413   1.092   3.339   5.319
24391WAT      O73414   5.051   8.401   3.918
24391WAT     H173415   5.096   8.315   3.942
24391WAT     H273416   5.054   8.414   3.819
24392WAT      O73417   3.124   5.988   9.744
24392WAT     H173418   3.024   5.976   9.739
24392WAT     H273419   3.145   6.086   9.748
24393WAT      O73420   5.140   8.429   9.788
24393WAT     H173421   5.144   8.404   9.885
24393WAT     H273422   5.118   8.348   9.734
24394WAT      O73423   6.676   8.328   0.988
24394WAT     H173424   6.621   8.273   1.050
24394WAT     H273425   6.749   8.374   1.039
24395WAT      O73426   6.896   5.298   3.162
24395WAT     H173427   6.883   5.265   3.069
24395WAT     H273428   6.881   5.396   3.166
24396WAT      O73429   9.102   7.812   2.783
24396WAT     H173430   9.156   7.842   2.862
24396WAT     H273431   9.075   7.717   2.795
24397WAT      O73432   6.571   7.603   4.986
24397WAT     H173433   6.616   7.592   5.074
24397WAT     H273434   6.576   7.517   4.935
24398WAT      O73435   4.631   8.579   1.368
24398WAT     H173436   4.712   8.627   1.335
24398WAT     H273437   4.580   8.638   1.430
24399WAT      O73438   9.424   3.855   4.579
24399WAT     H173439   9.380   3.768   4.602
24399WAT     H273440   9.412   3.919   4.655
24400WAT      O73441   4.306   1.622   3.312
24400WAT     H173442   4.246   1.639   3.390
24400WAT     H273443   4.330   1.525   3.309
24401WAT      O73444   4.819   0.848   9.153
24401WAT     H173445   4.808   0.874   9.249
24401WAT     H273446   4.914   0.818   9.138
24402WAT      O73447   7.188   9.430   7.730
24402WAT     H173448   7.217   9.358   7.667
24402WAT     H273449   7.154   9.509   7.678
24403WAT      O73450   2.234   1.343   3.547
24403WAT     H173451   2.174   1.364   3.624
24403WAT     H273452   2.270   1.428   3.509
24404WAT      O73453   3.107   6.512   6.195
24404WAT     H173454   3.136   6.516   6.291
24404WAT     H273455   3.009   6.497   6.191
24405WAT      O73456   3.878   3.615   3.638
24405WAT     H173457   3.826   3.659   3.564
24405WAT     H273458   3.896   3.682   3.710
24406WAT      O73459   4.668   5.245   2.466
24406WAT     H173460   4.734   5.248   2.391
24406WAT     H273461   4.658   5.151   2.498
24407WAT      O73462   5.285   7.755   8.554
24407WAT     H173463   5.303   7.658   8.571
24407WAT     H273464   5.189   7.775   8.575
24408WAT      O73465   7.527   0.753   2.753
24408WAT     H173466   7.600   0.700   2.709
24408WAT     H273467   7.518   0.842   2.708
24409WAT      O73468   7.354   9.511   8.862
24409WAT     H173469   7.342   9.610   8.864
24409WAT     H273470   7.264   9.467   8.862
24410WAT      O73471   3.010   7.646   5.776
24410WAT     H173472   2.953   7.606   5.847
24410WAT     H273473   2.960   7.721   5.731
24411WAT      O73474   1.257   3.810   9.417
24411WAT     H173475   1.307   3.766   9.343
24411WAT     H273476   1.236   3.743   9.488
24412WAT      O73477   0.911   4.664   8.336
24412WAT     H173478   0.932   4.575   8.295
24412WAT     H273479   0.995   4.717   8.346
24413WAT      O73480   4.689   4.670   6.485
24413WAT     H173481   4.698   4.721   6.570
24413WAT     H273482   4.697   4.572   6.504
24414WAT      O73483   7.599   2.055   3.349
24414WAT     H173484   7.577   2.104   3.265
24414WAT     H273485   7.514   2.031   3.397
24415WAT      O73486   1.510   0.537   8.561
24415WAT     H173487   1.458   0.500   8.484
24415WAT     H273488   1.591   0.585   8.528
24416WAT      O73489   9.059   3.588   2.365
24416WAT     H173490   9.104   3.533   2.435
24416WAT     H273491   8.975   3.627   2.402
24417WAT      O73492   8.255   1.032   3.821
24417WAT     H173493   8.294   1.094   3.753
24417WAT     H273494   8.328   0.993   3.876
24418WAT      O73495   1.129   4.997   4.294
24418WAT     H173496   1.146   4.924   4.228
24418WAT     H273497   1.061   5.060   4.257
24419WAT      O73498   1.285   6.622   0.705
24419WAT     H173499   1.246   6.635   0.796
24419WAT     H273500   1.385   6.628   0.711
24420WAT      O73501   7.600   1.987   1.261
24420WAT     H173502   7.579   2.050   1.336
24420WAT     H273503   7.635   1.901   1.298
24421WAT      O73504   3.065   5.855   1.637
24421WAT     H173505   3.118   5.888   1.716
24421WAT     H273506   3.111   5.776   1.597
24422WAT      O73507   2.728   6.033   8.322
24422WAT     H173508   2.802   5.971   8.298
24422WAT     H273509   2.646   6.011   8.268
24423WAT      O73510   2.786   8.149   8.763
24423WAT     H173511   2.762   8.056   8.792
24423WAT     H273512   2.757   8.163   8.668
24424WAT      O73513   4.662   0.131   0.956
24424WAT     H173514   4.703   0.219   0.979
24424WAT     H273515   4.729   0.058   0.968
24425WAT      O73516   1.626   1.366   0.447
24425WAT     H173517   1.549   1.304   0.437
24425WAT     H273518   1.677   1.369   0.361
24426WAT      O73519   0.635   1.416   3.735
24426WAT     H173520   0.682   1.429   3.647
24426WAT     H273521   0.660   1.328   3.774
24427WAT      O73522   1.020   6.827   2.295
24427WAT     H173523   0.945   6.813   2.360
24427WAT     H273524   1.104   6.848   2.346
24428WAT      O73525   7.715   9.313   5.119
24428WAT     H173526   7.652   9.341   5.192
24428WAT     H273527   7.802   9.362   5.131
24429WAT      O73528   0.577   1.936   1.034
24429WAT     H173529   0.600   1.842   1.060
24429WAT     H273530   0.595   1.949   0.937
24430WAT      O73531   7.152   6.842   5.030
24430WAT     H173532   7.072   6.874   5.080
24430WAT     H273533   7.235   6.880   5.072
24431WAT      O73534   2.262   5.828   0.133
24431WAT     H173535   2.334   5.870   0.187
24431WAT     H273536   2.216   5.897   0.077
24432WAT      O73537   1.264   5.550   9.209
24432WAT     H173538   1.243   5.624   9.273
24432WAT     H273539   1.191   5.482   9.212
24433WAT      O73540   3.166   1.429   0.682
24433WAT     H173541   3.253   1.385   0.705
24433WAT     H273542   3.139   1.489   0.757
24434WAT      O73543   6.096   2.108   2.016
24434WAT     H173544   6.124   2.034   2.078
24434WAT     H273545   5.999   2.126   2.028
24435WAT      O73546   0.790   1.842   4.605
24435WAT     H173547   0.890   1.833   4.611
24435WAT     H273548   0.767   1.929   4.561
24436WAT      O73549   6.443   1.209   4.025
24436WAT     H173550   6.525   1.251   3.987
24436WAT     H273551   6.373   1.279   4.039
24437WAT      O73552   0.553   6.081   4.038
24437WAT     H173553   0.455   6.083   4.057
24437WAT     H273554   0.568   6.055   3.943
24438WAT      O73555   0.525   5.823   4.939
24438WAT     H173556   0.461   5.750   4.963
24438WAT     H273557   0.525   5.836   4.839
24439WAT      O73558   7.339   4.257   4.546
24439WAT     H173559   7.324   4.326   4.618
24439WAT     H273560   7.357   4.303   4.459
24440WAT      O73561   4.021   8.720   9.330
24440WAT     H173562   3.931   8.748   9.295
24440WAT     H273563   4.078   8.801   9.342
24441WAT      O73564   9.464   5.938   8.505
24441WAT     H173565   9.524   5.881   8.562
24441WAT     H273566   9.469   6.033   8.536
24442WAT      O73567   2.509   8.857   4.566
24442WAT     H173568   2.484   8.774   4.515
24442WAT     H273569   2.604   8.881   4.547
24443WAT      O73570   1.233   4.530   2.181
24443WAT     H173571   1.263   4.620   2.150
24443WAT     H273572   1.222   4.469   2.102
24444WAT      O73573   4.377   8.522   9.337
24444WAT     H173574   4.411   8.468   9.414
24444WAT     H273575   4.308   8.470   9.287
24445WAT      O73576   2.250   4.404   9.293
24445WAT     H173577   2.294   4.427   9.206
24445WAT     H273578   2.208   4.485   9.332
24446WAT      O73579   1.753   6.439   7.375
24446WAT     H173580   1.742   6.427   7.276
24446WAT     H273581   1.850   6.432   7.398
24447WAT      O73582   7.305   6.332   7.396
24447WAT     H173583   7.264   6.268   7.331
24447WAT     H273584   7.303   6.291   7.488
24448WAT      O73585   3.689   7.751   4.936
24448WAT     H173586   3.775   7.783   4.975
24448WAT     H273587   3.649   7.823   4.880
24449WAT      O73588   0.979   1.853   7.021
24449WAT     H173589   0.939   1.849   6.930
24449WAT     H273590   0.915   1.816   7.088
24450WAT      O73591   1.061   9.769   6.369
24450WAT     H173592   0.975   9.800   6.409
24450WAT     H273593   1.137   9.816   6.414
24451WAT      O73594   7.524   0.253   3.573
24451WAT     H173595   7.547   0.156   3.564
24451WAT     H273596   7.608   0.307   3.569
24452WAT      O73597   0.628   1.019   5.984
24452WAT     H173598   0.533   1.010   5.957
24452WAT     H273599   0.665   0.929   6.006
24453WAT      O73600   7.107   2.435   7.698
24453WAT     H173601   7.154   2.372   7.759
24453WAT     H273602   7.022   2.467   7.741
24454WAT      O73603   1.822   0.483   9.539
24454WAT     H173604   1.767   0.478   9.622
24454WAT     H273605   1.799   0.567   9.489
24455WAT      O73606   0.659   1.492   7.310
24455WAT     H173607   0.583   1.550   7.283
24455WAT     H273608   0.636   1.396   7.292
24456WAT      O73609   4.779   7.672   7.111
24456WAT     H173610   4.856   7.735   7.112
24456WAT     H273611   4.716   7.697   7.038
24457WAT      O73612   6.579   2.106   1.877
24457WAT     H173613   6.505   2.044   1.853
24457WAT     H273614   6.639   2.119   1.798
24458WAT      O73615   8.600   9.509   8.535
24458WAT     H173616   8.685   9.561   8.545
24458WAT     H273617   8.588   9.450   8.615
24459WAT      O73618   7.201   6.861   3.787
24459WAT     H173619   7.256   6.789   3.829
24459WAT     H273620   7.153   6.912   3.858
24460WAT      O73621   2.394   9.448   5.306
24460WAT     H173622   2.374   9.351   5.289
24460WAT     H273623   2.492   9.464   5.294
24461WAT      O73624   5.155   3.253   5.023
24461WAT     H173625   5.203   3.330   5.065
24461WAT     H273626   5.124   3.279   4.932
24462WAT      O73627   5.910   4.183   2.945
24462WAT     H173628   5.969   4.103   2.954
24462WAT     H273629   5.844   4.184   3.021
24463WAT      O73630   4.318   2.644   3.688
24463WAT     H173631   4.386   2.612   3.754
24463WAT     H273632   4.355   2.723   3.638
24464WAT      O73633   7.062   0.679   9.137
24464WAT     H173634   7.048   0.641   9.046
24464WAT     H273635   7.157   0.708   9.147
24465WAT      O73636   5.942   4.457   0.192
24465WAT     H173637   5.877   4.513   0.243
24465WAT     H273638   5.946   4.365   0.231
24466WAT      O73639   1.078   7.694   4.710
24466WAT     H173640   1.006   7.760   4.689
24466WAT     H273641   1.082   7.625   4.638
24467WAT      O73642   0.466   4.877   3.261
24467WAT     H173643   0.493   4.972   3.276
24467WAT     H273644   0.373   4.863   3.296
24468WAT      O73645   7.232   3.512   8.470
24468WAT     H173646   7.223   3.422   8.427
24468WAT     H273647   7.211   3.505   8.567
24469WAT      O73648   3.714   7.726   4.262
24469WAT     H173649   3.788   7.792   4.269
24469WAT     H273650   3.726   7.654   4.330
24470WAT      O73651   7.664   1.403   9.573
24470WAT     H173652   7.697   1.355   9.491
24470WAT     H273653   7.725   1.383   9.650
24471WAT      O73654   5.418   5.559   7.208
24471WAT     H173655   5.333   5.551   7.157
24471WAT     H273656   5.454   5.652   7.200
24472WAT      O73657   3.699   1.667   4.720
24472WAT     H173658   3.799   1.674   4.720
24472WAT     H273659   3.673   1.576   4.751
24473WAT      O73660   4.349   8.011   9.743
24473WAT     H173661   4.416   8.045   9.809
24473WAT     H273662   4.312   8.087   9.689
24474WAT      O73663   6.566   8.851   2.771
24474WAT     H173664   6.524   8.881   2.856
24474WAT     H273665   6.613   8.764   2.786
24475WAT      O73666   7.947   0.645   7.136
24475WAT     H173667   7.918   0.600   7.052
24475WAT     H273668   7.963   0.575   7.207
24476WAT      O73669   3.862   4.510   9.484
24476WAT     H173670   3.940   4.530   9.425
24476WAT     H273671   3.778   4.540   9.439
24477WAT      O73672   1.647   5.957   7.984
24477WAT     H173673   1.643   5.968   8.083
24477WAT     H273674   1.557   5.977   7.945
24478WAT      O73675   3.168   0.100   4.177
24478WAT     H173676   3.126   0.040   4.108
24478WAT     H273677   3.205   0.044   4.251
24479WAT      O73678   1.505   5.295   9.438
24479WAT     H173679   1.427   5.289   9.501
24479WAT     H273680   1.486   5.364   9.369
24480WAT      O73681   8.071   0.524   8.282
24480WAT     H173682   8.128   0.453   8.324
24480WAT     H273683   8.084   0.524   8.183
24481WAT      O73684   1.082   5.673   3.560
24481WAT     H173685   1.018   5.640   3.629
24481WAT     H273686   1.034   5.733   3.496
24482WAT      O73687   4.753   8.334   8.195
24482WAT     H173688   4.667   8.357   8.240
24482WAT     H273689   4.761   8.384   8.109
24483WAT      O73690   7.514   8.842   7.349
24483WAT     H173691   7.612   8.863   7.342
24483WAT     H273692   7.502   8.756   7.398
24484WAT      O73693   8.451   9.249   6.508
24484WAT     H173694   8.353   9.245   6.492
24484WAT     H273695   8.487   9.157   6.525
24485WAT      O73696   5.370   6.003   6.995
24485WAT     H173697   5.454   6.057   6.991
24485WAT     H273698   5.298   6.051   6.944
24486WAT      O73699   6.379   2.060   3.071
24486WAT     H173700   6.320   2.135   3.099
24486WAT     H273701   6.335   1.973   3.093
24487WAT      O73702   9.860   2.943   0.864
24487WAT     H173703   9.810   2.885   0.799
24487WAT     H273704   9.901   3.020   0.814
24488WAT      O73705   8.023   0.148   6.118
24488WAT     H173706   7.940   0.181   6.072
24488WAT     H273707   8.013   0.160   6.217
24489WAT      O73708   8.200   0.621   2.188
24489WAT     H173709   8.215   0.625   2.089
24489WAT     H273710   8.273   0.567   2.230
24490WAT      O73711   4.498   4.242   5.602
24490WAT     H173712   4.402   4.262   5.621
24490WAT     H273713   4.521   4.152   5.638
24491WAT      O73714   4.275   9.301   0.577
24491WAT     H173715   4.260   9.311   0.676
24491WAT     H273716   4.321   9.383   0.542
24492WAT      O73717   1.239   1.902   2.077
24492WAT     H173718   1.186   1.919   1.994
24492WAT     H273719   1.329   1.946   2.068
24493WAT      O73720   0.969   2.637   4.283
24493WAT     H173721   1.068   2.632   4.295
24493WAT     H273722   0.924   2.571   4.344
24494WAT      O73723   2.325   7.766   7.719
24494WAT     H173724   2.328   7.668   7.737
24494WAT     H273725   2.346   7.816   7.804
24495WAT      O73726   8.155   7.818   6.170
24495WAT     H173727   8.160   7.874   6.087
24495WAT     H273728   8.223   7.852   6.236
24496WAT      O73729   3.362   4.211   0.405
24496WAT     H173730   3.456   4.244   0.407
24496WAT     H273731   3.346   4.149   0.481
24497WAT      O73732   1.533   2.449   0.938
24497WAT     H173733   1.524   2.506   1.019
24497WAT     H273734   1.627   2.452   0.905
24498WAT      O73735   1.393   3.122   5.392
24498WAT     H173736   1.472   3.072   5.357
24498WAT     H273737   1.361   3.079   5.477
24499WAT      O73738   1.060   0.661   1.206
24499WAT     H173739   1.085   0.564   1.194
24499WAT     H273740   0.961   0.669   1.211
24500WAT      O73741   6.996   1.104   3.473
24500WAT     H173742   6.995   1.010   3.438
24500WAT     H273743   6.988   1.103   3.573
24501WAT      O73744   6.466   9.750   8.267
24501WAT     H173745   6.497   9.665   8.224
24501WAT     H273746   6.500   9.754   8.361
24502WAT      O73747   1.418   5.902   2.503
24502WAT     H173748   1.481   5.848   2.446
24502WAT     H273749   1.412   5.862   2.594
24503WAT      O73750   2.068   2.134   9.487
24503WAT     H173751   2.018   2.139   9.574
24503WAT     H273752   2.161   2.167   9.501
24504WAT      O73753   0.178   2.731   1.678
24504WAT     H173754   0.244   2.715   1.605
24504WAT     H273755   0.151   2.827   1.679
24505WAT      O73756   1.213   8.406   3.880
24505WAT     H173757   1.276   8.330   3.893
24505WAT     H273758   1.206   8.429   3.783
24506WAT      O73759   5.623   2.171   5.988
24506WAT     H173760   5.578   2.121   5.913
24506WAT     H273761   5.660   2.107   6.054
24507WAT      O73762   6.720   7.715   3.244
24507WAT     H173763   6.727   7.674   3.153
24507WAT     H273764   6.635   7.769   3.250
24508WAT      O73765   8.939   9.515   2.731
24508WAT     H173766   8.930   9.545   2.826
24508WAT     H273767   9.024   9.463   2.720
24509WAT      O73768   7.042   8.155   0.599
24509WAT     H173769   7.115   8.100   0.640
24509WAT     H273770   7.081   8.234   0.553
24510WAT      O73771   4.941   0.008   5.627
24510WAT     H173772   4.921  -0.089   5.611
24510WAT     H273773   4.886   0.041   5.704
24511WAT      O73774   0.617   3.757   8.320
24511WAT     H173775   0.695   3.694   8.324
24511WAT     H273776   0.575   3.764   8.410
24512WAT      O73777   0.006   7.868   0.721
24512WAT     H173778  -0.087   7.854   0.755
24512WAT     H273779   0.003   7.926   0.640
24513WAT      O73780   0.439   9.478   8.172
24513WAT     H173781   0.470   9.437   8.258
24513WAT     H273782   0.441   9.578   8.180
24514WAT      O73783   5.510   1.757   1.263
24514WAT     H173784   5.447   1.803   1.201
24514WAT     H273785   5.582   1.712   1.211
24515WAT      O73786   0.675   1.324   0.799
24515WAT     H173787   0.633   1.242   0.838
24515WAT     H273788   0.610   1.367   0.736
24516WAT      O73789   1.655   6.445   1.662
24516WAT     H173790   1.682   6.378   1.732
24516WAT     H273791   1.586   6.404   1.602
24517WAT      O73792   4.193   6.815   7.965
24517WAT     H173793   4.100   6.837   7.936
24517WAT     H273794   4.250   6.897   7.961
24518WAT      O73795   5.704   2.915   4.511
24518WAT     H173796   5.607   2.890   4.506
24518WAT     H273797   5.712   3.005   4.553
24519WAT      O73798   3.472   4.068   1.824
24519WAT     H173799   3.429   3.988   1.866
24519WAT     H273800   3.402   4.122   1.778
24520WAT      O73801   9.759   5.561   1.866
24520WAT     H173802   9.769   5.633   1.797
24520WAT     H273803   9.743   5.474   1.820
24521WAT      O73804   8.707   7.996   4.798
24521WAT     H173805   8.618   8.040   4.791
24521WAT     H273806   8.712   7.944   4.884
24522WAT      O73807   3.392   8.274   1.726
24522WAT     H173808   3.415   8.337   1.652
24522WAT     H273809   3.299   8.292   1.759
24523WAT      O73810   6.644   2.221   8.503
24523WAT     H173811   6.568   2.227   8.438
24523WAT     H273812   6.716   2.285   8.477
24524WAT      O73813   5.497   0.875   0.816
24524WAT     H173814   5.457   0.903   0.729
24524WAT     H273815   5.540   0.954   0.860
24525WAT      O73816   3.670   6.640   6.323
24525WAT     H173817   3.610   6.719   6.311
24525WAT     H273818   3.624   6.572   6.381
24526WAT      O73819   1.090   1.861   8.599
24526WAT     H173820   1.093   1.848   8.698
24526WAT     H273821   1.173   1.822   8.557
24527WAT      O73822   1.728   4.480   4.722
24527WAT     H173823   1.754   4.550   4.657
24527WAT     H273824   1.720   4.520   4.813
24528WAT      O73825   4.543   0.094   0.165
24528WAT     H173826   4.563   0.187   0.135
24528WAT     H273827   4.446   0.075   0.151
24529WAT      O73828   6.920   9.184   1.145
24529WAT     H173829   6.923   9.085   1.155
24529WAT     H273830   6.913   9.208   1.048
24530WAT      O73831   1.181   1.810   6.359
24530WAT     H173832   1.139   1.855   6.281
24530WAT     H273833   1.188   1.874   6.435
24531WAT      O73834   0.958   7.168   5.219
24531WAT     H173835   0.898   7.158   5.298
24531WAT     H273836   1.027   7.238   5.237
24532WAT      O73837   7.012   5.183   8.792
24532WAT     H173838   6.955   5.245   8.846
24532WAT     H273839   6.956   5.140   8.721
24533WAT      O73840   5.805   2.021   6.117
24533WAT     H173841   5.883   2.030   6.179
24533WAT     H273842   5.784   1.924   6.105
24534WAT      O73843  -0.000   8.041   0.500
24534WAT     H173844   0.095   8.056   0.472
24534WAT     H273845  -0.062   8.083   0.432
24535WAT      O73846   8.172   2.237   4.202
24535WAT     H173847   8.173   2.300   4.279
24535WAT     H273848   8.083   2.191   4.198
24536WAT      O73849   7.228   1.210   0.711
24536WAT     H173850   7.260   1.296   0.672
24536WAT     H273851   7.128   1.208   0.710
24537WAT      O73852   9.024   4.989   3.204
24537WAT     H173853   8.973   4.950   3.281
24537WAT     H273854   9.058   5.080   3.229
24538WAT      O73855   4.219   5.453   2.072
24538WAT     H173856   4.180   5.392   2.003
24538WAT     H273857   4.189   5.547   2.055
24539WAT      O73858   7.379   2.328   7.378
24539WAT     H173859   7.466   2.342   7.426
24539WAT     H273860   7.380   2.376   7.291
24540WAT      O73861   9.723   7.484   3.962
24540WAT     H173862   9.650   7.549   3.982
24540WAT     H273863   9.768   7.457   4.047
24541WAT      O73864   3.236   2.939   8.408
24541WAT     H173865   3.284   2.964   8.493
24541WAT     H273866   3.164   3.005   8.390
24542WAT      O73867   4.422   2.412   6.226
24542WAT     H173868   4.423   2.439   6.129
24542WAT     H273869   4.474   2.479   6.279
24543WAT      O73870   4.669   3.083   1.900
24543WAT     H173871   4.630   3.024   1.829
24543WAT     H273872   4.668   3.036   1.988
24544WAT      O73873   5.275   5.028   8.911
24544WAT     H173874   5.192   4.994   8.866
24544WAT     H273875   5.292   4.974   8.994
24545WAT      O73876   5.885   8.093   9.766
24545WAT     H173877   5.880   8.042   9.681
24545WAT     H273878   5.889   8.030   9.843
24546WAT      O73879   4.729   3.733   1.854
24546WAT     H173880   4.685   3.646   1.876
24546WAT     H273881   4.826   3.727   1.878
24547WAT      O73882   5.126   2.490   9.021
24547WAT     H173883   5.205   2.437   8.990
24547WAT     H273884   5.146   2.588   9.011
24548WAT      O73885   9.570   5.209   1.566
24548WAT     H173886   9.483   5.162   1.549
24548WAT     H273887   9.640   5.142   1.592
24549WAT      O73888   6.563   5.399   7.559
24549WAT     H173889   6.532   5.312   7.598
24549WAT     H273890   6.597   5.384   7.466
24550WAT      O73891   5.131   7.789   0.102
24550WAT     H173892   5.104   7.700   0.064
24550WAT     H273893   5.209   7.777   0.163
24551WAT      O73894   7.966   3.901   1.614
24551WAT     H173895   8.024   3.981   1.598
24551WAT     H273896   7.871   3.931   1.627
24552WAT      O73897   0.807   1.879   9.129
24552WAT     H173898   0.807   1.958   9.190
24552WAT     H273899   0.714   1.845   9.117
24553WAT      O73900   6.021   9.203   6.488
24553WAT     H173901   6.073   9.145   6.426
24553WAT     H273902   5.990   9.150   6.566
24554WAT      O73903   2.906   8.226   7.285
24554WAT     H173904   2.990   8.208   7.234
24554WAT     H273905   2.853   8.297   7.237
24555WAT      O73906   1.577   2.847   0.369
24555WAT     H173907   1.675   2.864   0.375
24555WAT     H273908   1.538   2.841   0.461
24556WAT      O73909   5.767   8.426   2.340
24556WAT     H173910   5.747   8.368   2.262
24556WAT     H273911   5.815   8.508   2.309
24557WAT      O73912   6.594   3.549   0.765
24557WAT     H173913   6.497   3.570   0.750
24557WAT     H273914   6.614   3.458   0.730
24558WAT      O73915   0.672   1.116   3.671
24558WAT     H173916   0.708   1.031   3.709
24558WAT     H273917   0.748   1.176   3.646
24559WAT      O73918   2.867   0.160   5.484
24559WAT     H173919   2.934   0.213   5.432
24559WAT     H273920   2.903   0.070   5.504
24560WAT      O73921   3.523   1.095   5.427
24560WAT     H173922   3.458   1.084   5.351
24560WAT     H273923   3.502   1.027   5.498
24561WAT      O73924   6.306   1.001   3.901
24561WAT     H173925   6.227   0.987   3.961
24561WAT     H273926   6.353   1.085   3.927
24562WAT      O73927   5.539   9.030   5.661
24562WAT     H173928   5.447   8.993   5.650
24562WAT     H273929   5.593   8.969   5.719
24563WAT      O73930   7.144   1.863   7.965
24563WAT     H173931   7.107   1.882   7.875
24563WAT     H273932   7.133   1.944   8.024
24564WAT      O73933   0.499   6.769   5.826
24564WAT     H173934   0.572   6.828   5.860
24564WAT     H273935   0.465   6.805   5.739
24565WAT      O73936   2.968   5.744   2.140
24565WAT     H173937   2.929   5.830   2.173
24565WAT     H273938   2.929   5.667   2.190
24566WAT      O73939   4.466   8.864   6.230
24566WAT     H173940   4.518   8.851   6.314
24566WAT     H273941   4.402   8.788   6.217
24567WAT      O73942   1.887   9.506   9.385
24567WAT     H173943   1.821   9.545   9.320
24567WAT     H273944   1.837   9.461   9.459
24568WAT      O73945   8.290   3.234   2.173
24568WAT     H173946   8.250   3.272   2.257
24568WAT     H273947   8.368   3.176   2.197
24569WAT      O73948   3.929   9.438   8.485
24569WAT     H173949   3.993   9.514   8.493
24569WAT     H273950   3.844   9.461   8.533
24570WAT      O73951   3.704   0.085   0.424
24570WAT     H173952   3.627   0.033   0.461
24570WAT     H273953   3.685   0.183   0.431
24571WAT      O73954   3.511   0.904   0.801
24571WAT     H173955   3.445   0.933   0.731
24571WAT     H273956   3.534   0.808   0.787
24572WAT      O73957   4.016   0.718   8.157
24572WAT     H173958   4.073   0.658   8.212
24572WAT     H273959   3.955   0.771   8.216
24573WAT      O73960   3.423   6.717   9.528
24573WAT     H173961   3.349   6.763   9.479
24573WAT     H273962   3.423   6.620   9.506
24574WAT      O73963   2.655   2.613   6.826
24574WAT     H173964   2.753   2.613   6.846
24574WAT     H273965   2.640   2.573   6.736
24575WAT      O73966   9.666   8.241   6.197
24575WAT     H173967   9.718   8.203   6.120
24575WAT     H273968   9.722   8.310   6.244
24576WAT      O73969   1.561   5.827   4.772
24576WAT     H173970   1.587   5.850   4.866
24576WAT     H273971   1.462   5.814   4.767
24577WAT      O73972   4.039   5.150   7.592
24577WAT     H173973   4.113   5.197   7.641
24577WAT     H273974   3.977   5.108   7.658
24578WAT      O73975   0.189   4.335   7.308
24578WAT     H173976   0.201   4.431   7.280
24578WAT     H273977   0.255   4.314   7.380
24579WAT      O73978   9.304   6.974   9.688
24579WAT     H173979   9.357   6.908   9.741
24579WAT     H273980   9.361   7.052   9.665
24580WAT      O73981   3.908   7.071   4.819
24580WAT     H173982   4.003   7.074   4.790
24580WAT     H273983   3.899   7.112   4.910
24581WAT      O73984   3.999   0.150   3.329
24581WAT     H173985   3.907   0.179   3.302
24581WAT     H273986   4.060   0.156   3.250
24582WAT      O73987   5.367   0.534   1.196
24582WAT     H173988   5.360   0.633   1.201
24582WAT     H273989   5.309   0.493   1.266
24583WAT      O73990   6.918   5.064   6.306
24583WAT     H173991   7.005   5.102   6.274
24583WAT     H273992   6.888   4.993   6.243
24584WAT      O73993   3.413   2.893   7.964
24584WAT     H173994   3.449   2.904   8.056
24584WAT     H273995   3.344   2.820   7.964
24585WAT      O73996   1.927   3.479   8.826
24585WAT     H173997   1.992   3.536   8.876
24585WAT     H273998   1.976   3.417   8.765
24586WAT      O73999   2.193   3.065   6.353
24586WAT     H174000   2.208   3.130   6.278
24586WAT     H274001   2.157   2.980   6.317
24587WAT      O74002   4.677   6.700   1.425
24587WAT     H174003   4.695   6.648   1.341
24587WAT     H274004   4.764   6.731   1.463
24588WAT      O74005   4.846   3.130   4.043
24588WAT     H174006   4.936   3.091   4.061
24588WAT     H274007   4.783   3.058   4.016
24589WAT      O74008   9.723   5.621   4.231
24589WAT     H174009   9.730   5.522   4.217
24589WAT     H274010   9.798   5.651   4.290
24590WAT      O74011   3.455   5.350   4.755
24590WAT     H174012   3.389   5.288   4.712
24590WAT     H274013   3.531   5.297   4.792
24591WAT      O74014   0.193   0.573   3.524
24591WAT     H174015   0.273   0.606   3.473
24591WAT     H274016   0.160   0.646   3.585
24592WAT      O74017   8.880   0.093   9.018
24592WAT     H174018   8.871   0.189   8.994
24592WAT     H274019   8.883   0.083   9.117
24593WAT      O74020   8.193   4.251   4.214
24593WAT     H174021   8.226   4.208   4.130
24593WAT     H274022   8.102   4.214   4.235
24594WAT      O74023   1.068   5.028   1.836
24594WAT     H174024   1.019   5.007   1.920
24594WAT     H274025   1.033   5.113   1.797
24595WAT      O74026   8.799   9.337   6.417
24595WAT     H174027   8.816   9.434   6.398
24595WAT     H274028   8.770   9.326   6.512
24596WAT      O74029   7.633   7.474   2.993
24596WAT     H174030   7.720   7.443   3.031
24596WAT     H274031   7.560   7.460   3.060
24597WAT      O74032   9.247   7.347   7.576
24597WAT     H174033   9.320   7.278   7.570
24597WAT     H274034   9.173   7.313   7.633
24598WAT      O74035   2.941   7.637   4.200
24598WAT     H174036   3.002   7.641   4.121
24598WAT     H274037   2.846   7.652   4.170
24599WAT      O74038   0.073   3.073   8.747
24599WAT     H174039   0.143   3.043   8.681
24599WAT     H274040   0.005   3.001   8.758
24600WAT      O74041   8.938   3.292   7.100
24600WAT     H174042   9.006   3.223   7.123
24600WAT     H274043   8.928   3.296   7.000
24601WAT      O74044   6.075   1.634   2.907
24601WAT     H174045   5.993   1.602   2.955
24601WAT     H274046   6.066   1.616   2.809
24602WAT      O74047   8.357   0.382   2.661
24602WAT     H174048   8.372   0.480   2.644
24602WAT     H274049   8.424   0.329   2.609
24603WAT      O74050   5.912   6.202   4.324
24603WAT     H174051   5.850   6.263   4.275
24603WAT     H274052   5.950   6.135   4.261
24604WAT      O74053   0.446   1.781   6.388
24604WAT     H174054   0.371   1.788   6.453
24604WAT     H274055   0.470   1.685   6.375
24605WAT      O74056   8.218   0.889   6.832
24605WAT     H174057   8.182   0.796   6.822
24605WAT     H274058   8.317   0.888   6.818
24606WAT      O74059   5.176   3.541   5.406
24606WAT     H174060   5.241   3.475   5.368
24606WAT     H274061   5.223   3.602   5.469
24607WAT      O74062   0.297   2.498   3.427
24607WAT     H174063   0.264   2.423   3.369
24607WAT     H274064   0.263   2.585   3.390
24608WAT      O74065   3.553   7.866   5.580
24608WAT     H174066   3.534   7.960   5.553
24608WAT     H274067   3.650   7.857   5.607
24609WAT      O74068   9.251   0.626   4.456
24609WAT     H174069   9.249   0.698   4.526
24609WAT     H274070   9.330   0.568   4.470
24610WAT      O74071   3.959   2.528   7.371
24610WAT     H174072   4.014   2.529   7.454
24610WAT     H274073   4.016   2.550   7.292
24611WAT      O74074   5.599   7.080   2.954
24611WAT     H174075   5.585   7.084   2.855
24611WAT     H274076   5.512   7.060   3.000
24612WAT      O74077   8.332   3.600   1.969
24612WAT     H174078   8.402   3.570   1.906
24612WAT     H274079   8.340   3.699   1.984
24613WAT      O74080   6.640   6.364   4.114
24613WAT     H174081   6.566   6.319   4.164
24613WAT     H274082   6.604   6.444   4.066
24614WAT      O74083   8.119   0.319   9.193
24614WAT     H174084   8.126   0.380   9.272
24614WAT     H274085   8.023   0.314   9.163
24615WAT      O74086   3.268   3.480   7.238
24615WAT     H174087   3.176   3.484   7.199
24615WAT     H274088   3.336   3.489   7.164
24616WAT      O74089   9.047   4.854   2.609
24616WAT     H174090   8.997   4.834   2.693
24616WAT     H274091   9.054   4.953   2.598
24617WAT      O74092   6.488   0.598   9.717
24617WAT     H174093   6.525   0.586   9.809
24617WAT     H274094   6.389   0.611   9.723
24618WAT      O74095   7.513   1.268   2.155
24618WAT     H174096   7.572   1.317   2.219
24618WAT     H274097   7.559   1.185   2.124
24619WAT      O74098   7.862   8.658   0.370
24619WAT     H174099   7.917   8.576   0.357
24619WAT     H274100   7.892   8.706   0.453
24620WAT      O74101   8.436   1.905   0.808
24620WAT     H174102   8.401   1.856   0.887
24620WAT     H274103   8.528   1.873   0.786
24621WAT      O74104   7.963   7.121   5.913
24621WAT     H174105   7.873   7.099   5.950
24621WAT     H274106   8.031   7.123   5.987
24622WAT      O74107   1.399   3.649   9.180
24622WAT     H174108   1.442   3.577   9.127
24622WAT     H274109   1.412   3.631   9.278
24623WAT      O74110   6.855   3.460   9.409
24623WAT     H174111   6.847   3.522   9.487
24623WAT     H274112   6.919   3.498   9.342
24624WAT      O74113   2.696   5.808   7.817
24624WAT     H174114   2.635   5.816   7.896
24624WAT     H274115   2.790   5.793   7.848
24625WAT      O74116   7.120   2.356   7.449
24625WAT     H174117   7.216   2.348   7.421
24625WAT     H274118   7.117   2.390   7.543
24626WAT      O74119   0.795   0.007   3.195
24626WAT     H174120   0.829   0.062   3.271
24626WAT     H274121   0.806   0.056   3.109
24627WAT      O74122   3.341   7.900   6.298
24627WAT     H174123   3.325   7.802   6.288
24627WAT     H274124   3.254   7.946   6.316
24628WAT      O74125   6.449   4.149   0.601
24628WAT     H174126   6.441   4.050   0.613
24628WAT     H274127   6.370   4.182   0.549
24629WAT      O74128   6.702   5.034   7.187
24629WAT     H174129   6.769   4.963   7.210
24629WAT     H274130   6.706   5.053   7.089
24630WAT      O74131   9.272   5.225   5.724
24630WAT     H174132   9.282   5.255   5.819
24630WAT     H274133   9.176   5.232   5.697
24631WAT      O74134   5.908   9.348   2.700
24631WAT     H174135   5.927   9.440   2.665
24631WAT     H274136   5.811   9.340   2.723
24632WAT      O74137   0.738   2.999   0.190
24632WAT     H174138   0.648   2.993   0.146
24632WAT     H274139   0.807   2.956   0.132
24633WAT      O74140   6.719   6.677   3.166
24633WAT     H174141   6.675   6.592   3.138
24633WAT     H274142   6.810   6.657   3.202
24634WAT      O74143   6.714   2.368   0.569
24634WAT     H174144   6.674   2.446   0.619
24634WAT     H274145   6.807   2.353   0.601
24635WAT      O74146   7.312   4.263   7.306
24635WAT     H174147   7.311   4.311   7.218
24635WAT     H274148   7.307   4.165   7.291
24636WAT      O74149   8.152   2.628   1.975
24636WAT     H174150   8.249   2.648   1.973
24636WAT     H274151   8.130   2.577   2.058
24637WAT      O74152   0.000   6.053   8.777
24637WAT     H174153   0.089   6.008   8.779
24637WAT     H274154  -0.013   6.096   8.688
24638WAT      O74155   4.917   5.048   1.919
24638WAT     H174156   4.994   5.088   1.969
24638WAT     H274157   4.950   5.003   1.836
24639WAT      O74158   4.860   3.543   1.500
24639WAT     H174159   4.927   3.495   1.442
24639WAT     H274160   4.825   3.479   1.568
24640WAT      O74161   5.105   4.167   0.731
24640WAT     H174162   5.168   4.242   0.713
24640WAT     H274163   5.157   4.082   0.742
24641WAT      O74164   9.328   3.633   1.889
24641WAT     H174165   9.420   3.595   1.881
24641WAT     H274166   9.298   3.629   1.984
24642WAT      O74167   2.401   3.831   9.430
24642WAT     H174168   2.403   3.928   9.456
24642WAT     H274169   2.478   3.812   9.369
24643WAT      O74170   9.836   1.672   5.919
24643WAT     H174171   9.833   1.630   6.010
24643WAT     H274172   9.775   1.751   5.917
24644WAT      O74173   2.486   0.146   2.993
24644WAT     H174174   2.495   0.143   3.093
24644WAT     H274175   2.567   0.190   2.954
24645WAT      O74176   0.247   3.766   7.381
24645WAT     H174177   0.151   3.772   7.354
24645WAT     H274178   0.259   3.806   7.471
24646WAT      O74179   2.600   1.257   3.932
24646WAT     H174180   2.651   1.172   3.935
24646WAT     H274181   2.587   1.292   4.025
24647WAT      O74182   2.261   3.153   8.694
24647WAT     H174183   2.171   3.149   8.737
24647WAT     H274184   2.257   3.114   8.602
24648WAT      O74185   7.601   7.986   4.808
24648WAT     H174186   7.538   7.932   4.863
24648WAT     H274187   7.585   7.968   4.711
24649WAT      O74188   6.349   5.926   2.279
24649WAT     H174189   6.325   5.932   2.183
24649WAT     H274190   6.445   5.899   2.289
24650WAT      O74191   2.666   5.059   0.283
24650WAT     H174192   2.685   4.969   0.323
24650WAT     H274193   2.579   5.094   0.319
24651WAT      O74194   5.243   1.711   0.587
24651WAT     H174195   5.253   1.639   0.518
24651WAT     H274196   5.204   1.672   0.671
24652WAT      O74197   8.842   6.211   8.452
24652WAT     H174198   8.877   6.203   8.546
24652WAT     H274199   8.891   6.284   8.405
24653WAT      O74200   1.232   7.569   7.143
24653WAT     H174201   1.249   7.630   7.065
24653WAT     H274202   1.260   7.476   7.120
24654WAT      O74203   0.819   7.821   5.597
24654WAT     H174204   0.745   7.763   5.630
24654WAT     H274205   0.791   7.917   5.605
24655WAT      O74206   3.699   5.713   5.566
24655WAT     H174207   3.645   5.673   5.639
24655WAT     H274208   3.642   5.776   5.513
24656WAT      O74209   9.476   4.253   6.155
24656WAT     H174210   9.566   4.232   6.119
24656WAT     H274211   9.430   4.318   6.094
24657WAT      O74212   8.998   3.329   3.380
24657WAT     H174213   8.929   3.315   3.309
24657WAT     H274214   9.053   3.247   3.390
24658WAT      O74215   1.366   2.677   7.685
24658WAT     H174216   1.370   2.716   7.776
24658WAT     H274217   1.283   2.710   7.638
24659WAT      O74218   1.052   0.128   0.586
24659WAT     H174219   1.098   0.206   0.543
24659WAT     H274220   0.971   0.162   0.635
24660WAT      O74221   3.891   6.258   4.152
24660WAT     H174222   3.818   6.199   4.119
24660WAT     H274223   3.971   6.203   4.177
24661WAT      O74224   8.782   6.170   9.470
24661WAT     H174225   8.793   6.269   9.473
24661WAT     H274226   8.860   6.129   9.422
24662WAT      O74227   9.653   1.898   9.434
24662WAT     H174228   9.740   1.849   9.438
24662WAT     H274229   9.577   1.835   9.448
24663WAT      O74230   3.665   7.204   2.753
24663WAT     H174231   3.711   7.275   2.699
24663WAT     H274232   3.632   7.132   2.692
24664WAT      O74233   5.589   5.479   0.495
24664WAT     H174234   5.640   5.446   0.416
24664WAT     H274235   5.516   5.540   0.464
24665WAT      O74236   1.457   3.491   1.094
24665WAT     H174237   1.443   3.477   1.192
24665WAT     H274238   1.525   3.427   1.060
24666WAT      O74239   9.707   4.730   7.600
24666WAT     H174240   9.804   4.757   7.606
24666WAT     H274241   9.674   4.748   7.507
24667WAT      O74242   2.709   2.389   7.779
24667WAT     H174243   2.630   2.358   7.831
24667WAT     H274244   2.681   2.408   7.685
24668WAT      O74245   1.861   8.071   4.870
24668WAT     H174246   1.917   7.998   4.909
24668WAT     H274247   1.790   8.098   4.935
24669WAT      O74248   8.820   1.304   1.179
24669WAT     H174249   8.855   1.213   1.156
24669WAT     H274250   8.723   1.298   1.202
24670WAT      O74251   5.823   5.635   1.923
24670WAT     H174252   5.841   5.733   1.925
24670WAT     H274253   5.794   5.605   2.014
24671WAT      O74254   7.753   4.529   2.368
24671WAT     H174255   7.701   4.611   2.345
24671WAT     H274256   7.700   4.473   2.433
24672WAT      O74257   2.611   2.257   3.955
24672WAT     H174258   2.539   2.208   3.906
24672WAT     H274259   2.572   2.304   4.033
24673WAT      O74260   1.146   0.810   0.995
24673WAT     H174261   1.128   0.905   1.020
24673WAT     H274262   1.139   0.753   1.077
24674WAT      O74263   9.711   7.478   4.796
24674WAT     H174264   9.738   7.574   4.798
24674WAT     H274265   9.614   7.471   4.772
24675WAT      O74266   2.491   8.852   1.070
24675WAT     H174267   2.512   8.915   1.145
24675WAT     H274268   2.533   8.886   0.986
24676WAT      O74269   0.187   9.284   0.330
24676WAT     H174270   0.090   9.266   0.311
24676WAT     H274271   0.206   9.381   0.318
24677WAT      O74272   6.696   3.975   8.818
24677WAT     H174273   6.718   4.031   8.898
24677WAT     H274274   6.781   3.938   8.780
24678WAT      O74275   6.958   0.293   9.315
24678WAT     H174276   7.005   0.212   9.350
24678WAT     H274277   7.003   0.324   9.231
24679WAT      O74278   1.828   8.620   3.394
24679WAT     H174279   1.770   8.685   3.344
24679WAT     H274280   1.808   8.627   3.492
24680WAT      O74281   2.114   4.985   1.565
24680WAT     H174282   2.150   4.918   1.630
24680WAT     H274283   2.068   5.058   1.615
24681WAT      O74284   9.627   5.305   4.358
24681WAT     H174285   9.662   5.256   4.278
24681WAT     H274286   9.700   5.313   4.427
24682WAT      O74287   3.215   8.538   7.188
24682WAT     H174288   3.297   8.486   7.161
24682WAT     H274289   3.237   8.636   7.188
24683WAT      O74290   4.110   0.152   5.190
24683WAT     H174291   4.037   0.218   5.208
24683WAT     H274292   4.180   0.159   5.262
24684WAT      O74293   3.234   7.283   0.117
24684WAT     H174294   3.160   7.242   0.062
24684WAT     H274295   3.301   7.213   0.139
24685WAT      O74296   2.095   7.799   1.696
24685WAT     H174297   2.031   7.775   1.623
24685WAT     H274298   2.110   7.719   1.754
24686WAT      O74299   0.009   4.052   1.565
24686WAT     H174300   0.024   4.139   1.518
24686WAT     H274301   0.097   4.004   1.574
24687WAT      O74302   3.504   9.675   0.502
24687WAT     H174303   3.515   9.631   0.591
24687WAT     H274304   3.411   9.710   0.493
24688WAT      O74305   3.414   4.118   4.057
24688WAT     H174306   3.482   4.070   4.002
24688WAT     H274307   3.426   4.216   4.049
24689WAT      O74308   7.847   1.917   3.772
24689WAT     H174309   7.869   2.004   3.816
24689WAT     H274310   7.906   1.904   3.692
24690WAT      O74311   4.256   5.673   6.304
24690WAT     H174312   4.251   5.629   6.215
24690WAT     H274313   4.286   5.768   6.294
24691WAT      O74314   5.361   3.631   8.061
24691WAT     H174315   5.340   3.551   8.119
24691WAT     H274316   5.313   3.623   7.974
24692WAT      O74317   1.690   9.845   4.824
24692WAT     H174318   1.780   9.801   4.820
24692WAT     H274319   1.654   9.855   4.732
24693WAT      O74320   8.792   9.102   0.678
24693WAT     H174321   8.813   9.101   0.776
24693WAT     H274322   8.843   9.176   0.634
24694WAT      O74323   0.345   7.895   5.844
24694WAT     H174324   0.345   7.991   5.871
24694WAT     H274325   0.252   7.867   5.821
24695WAT      O74326   5.103   4.462   9.168
24695WAT     H174327   5.024   4.472   9.108
24695WAT     H274328   5.135   4.367   9.167
24696WAT      O74329   1.862   4.915   3.949
24696WAT     H174330   1.950   4.892   3.991
24696WAT     H274331   1.857   5.014   3.933
24697WAT      O74332   8.698   9.439   5.078
24697WAT     H174333   8.628   9.369   5.065
24697WAT     H274334   8.746   9.422   5.165
24698WAT      O74335   0.562   8.861   1.221
24698WAT     H174336   0.490   8.920   1.256
24698WAT     H274337   0.622   8.915   1.161
24699WAT      O74338   5.821   6.933   8.227
24699WAT     H174339   5.904   6.987   8.234
24699WAT     H274340   5.772   6.935   8.314
24700WAT      O74341   3.655   6.469   8.026
24700WAT     H174342   3.726   6.535   8.050
24700WAT     H274343   3.584   6.514   7.972
24701WAT      O74344   6.132   3.384   9.596
24701WAT     H174345   6.110   3.353   9.504
24701WAT     H274346   6.149   3.482   9.595
24702WAT      O74347   8.860   1.123   6.609
24702WAT     H174348   8.866   1.215   6.571
24702WAT     H274349   8.786   1.119   6.676
24703WAT      O74350   7.755   6.145   4.527
24703WAT     H174351   7.745   6.166   4.430
24703WAT     H274352   7.733   6.048   4.543
24704WAT      O74353   2.556   7.415   6.169
24704WAT     H174354   2.578   7.325   6.133
24704WAT     H274355   2.618   7.483   6.129
24705WAT      O74356   2.227   6.788   5.718
24705WAT     H174357   2.134   6.756   5.701
24705WAT     H274358   2.284   6.711   5.747
24706WAT      O74359   1.536   6.754   8.768
24706WAT     H174360   1.541   6.717   8.676
24706WAT     H274361   1.623   6.798   8.791
24707WAT      O74362   7.541   2.437   9.434
24707WAT     H174363   7.497   2.351   9.408
24707WAT     H274364   7.640   2.428   9.422
24708WAT      O74365   4.996   7.105   6.679
24708WAT     H174366   4.995   7.085   6.777
24708WAT     H274367   4.972   7.201   6.664
24709WAT      O74368   4.230   5.524   6.856
24709WAT     H174369   4.316   5.511   6.807
24709WAT     H274370   4.242   5.593   6.927
24710WAT      O74371   1.561   8.794   1.064
24710WAT     H174372   1.641   8.739   1.040
24710WAT     H274373   1.495   8.791   0.989
24711WAT      O74374   3.103   5.894   3.373
24711WAT     H174375   3.142   5.803   3.357
24711WAT     H274376   3.131   5.928   3.463
24712WAT      O74377   2.570   4.714   1.259
24712WAT     H174378   2.544   4.629   1.214
24712WAT     H274379   2.614   4.775   1.194
24713WAT      O74380   9.157   2.655   7.554
24713WAT     H174381   9.149   2.700   7.643
24713WAT     H274382   9.246   2.676   7.514
24714WAT      O74383   6.587   3.555   7.727
24714WAT     H174384   6.525   3.543   7.650
24714WAT     H274385   6.556   3.630   7.785
24715WAT      O74386   2.473   2.118   7.678
24715WAT     H174387   2.412   2.197   7.681
24715WAT     H274388   2.448   2.059   7.602
24716WAT      O74389   1.510   4.896   7.837
24716WAT     H174390   1.477   4.803   7.825
24716WAT     H274391   1.485   4.929   7.928
24717WAT      O74392   4.349   8.256   0.356
24717WAT     H174393   4.298   8.171   0.373
24717WAT     H274394   4.411   8.273   0.433
24718WAT      O74395   9.434   8.801   4.397
24718WAT     H174396   9.521   8.807   4.347
24718WAT     H274397   9.396   8.709   4.387
24719WAT      O74398   1.801   1.118   9.199
24719WAT     H174399   1.738   1.096   9.125
24719WAT     H274400   1.876   1.174   9.164
24720WAT      O74401   2.059   8.183   8.478
24720WAT     H174402   1.998   8.105   8.470
24720WAT     H274403   2.076   8.203   8.575
24721WAT      O74404   3.152   2.467   9.470
24721WAT     H174405   3.246   2.471   9.435
24721WAT     H274406   3.102   2.548   9.440
24722WAT      O74407   2.048   7.628   4.174
24722WAT     H174408   2.148   7.631   4.181
24722WAT     H274409   2.020   7.652   4.082
24723WAT      O74410   1.069   9.071   6.175
24723WAT     H174411   1.040   9.157   6.133
24723WAT     H274412   0.997   9.002   6.164
24724WAT      O74413   3.055   8.279   7.743
24724WAT     H174414   3.078   8.372   7.772
24724WAT     H274415   3.010   8.231   7.818
24725WAT      O74416   6.543   3.157   9.319
24725WAT     H174417   6.553   3.064   9.284
24725WAT     H274418   6.447   3.176   9.337
24726WAT      O74419   8.152   9.122   6.606
24726WAT     H174420   8.202   9.040   6.576
24726WAT     H274421   8.148   9.188   6.531
24727WAT      O74422   4.744   6.014   6.108
24727WAT     H174423   4.740   6.002   6.207
24727WAT     H274424   4.808   6.089   6.086
24728WAT      O74425   8.313   2.343   6.235
24728WAT     H174426   8.235   2.401   6.261
24728WAT     H274427   8.396   2.379   6.277
24729WAT      O74428   7.218   6.017   3.168
24729WAT     H174429   7.128   6.033   3.128
24729WAT     H274430   7.209   5.957   3.247
24730WAT      O74431   6.275   3.631   2.778
24730WAT     H174432   6.328   3.613   2.861
24730WAT     H274433   6.223   3.715   2.789
24731WAT      O74434   8.950   8.143   9.810
24731WAT     H174435   9.048   8.161   9.796
24731WAT     H274436   8.938   8.094   9.896
24732WAT      O74437   0.645   7.773   8.721
24732WAT     H174438   0.632   7.679   8.690
24732WAT     H274439   0.583   7.834   8.671
24733WAT      O74440   5.043   9.096   1.939
24733WAT     H174441   5.092   9.038   1.874
24733WAT     H274442   4.984   9.159   1.890
24734WAT      O74443   2.577   7.718   4.983
24734WAT     H174444   2.483   7.750   4.971
24734WAT     H274445   2.626   7.725   4.896
24735WAT      O74446   6.823   5.042   4.782
24735WAT     H174447   6.875   4.972   4.830
24735WAT     H274448   6.789   5.109   4.847
24736WAT      O74449   2.631   4.563   2.305
24736WAT     H174450   2.587   4.642   2.347
24736WAT     H274451   2.648   4.582   2.208
24737WAT      O74452   8.545   5.642   1.558
24737WAT     H174453   8.487   5.651   1.639
24737WAT     H274454   8.509   5.701   1.485
24738WAT      O74455   9.112   8.369   1.131
24738WAT     H174456   9.053   8.408   1.060
24738WAT     H274457   9.059   8.354   1.214
24739WAT      O74458   7.685   4.433   9.760
24739WAT     H174459   7.692   4.532   9.750
24739WAT     H274460   7.589   4.406   9.754
24740WAT      O74461   5.165   6.420   4.614
24740WAT     H174462   5.200   6.348   4.674
24740WAT     H274463   5.117   6.379   4.537
24741WAT      O74464   0.264   7.021   1.860
24741WAT     H174465   0.238   7.062   1.948
24741WAT     H274466   0.303   6.930   1.877
24742WAT      O74467   5.442   3.644   9.080
24742WAT     H174468   5.452   3.738   9.048
24742WAT     H274469   5.474   3.581   9.009
24743WAT      O74470   3.046   2.201   9.451
24743WAT     H174471   3.084   2.292   9.462
24743WAT     H274472   2.948   2.202   9.474
24744WAT      O74473   5.434   1.779   5.676
24744WAT     H174474   5.344   1.755   5.713
24744WAT     H274475   5.495   1.701   5.687
24745WAT      O74476   9.040   6.793   4.790
24745WAT     H174477   9.087   6.806   4.702
24745WAT     H274478   9.093   6.835   4.863
24746WAT      O74479   8.777   2.093   6.857
24746WAT     H174480   8.741   2.140   6.777
24746WAT     H274481   8.718   2.015   6.879
24747WAT      O74482   1.964   2.003   6.196
24747WAT     H174483   1.951   1.960   6.106
24747WAT     H274484   2.052   1.975   6.234
24748WAT      O74485   5.579   1.497   1.674
24748WAT     H174486   5.664   1.447   1.661
24748WAT     H274487   5.578   1.578   1.615
24749WAT      O74488   3.616   9.053   3.908
24749WAT     H174489   3.704   9.007   3.908
24749WAT     H274490   3.564   9.025   3.989
24750WAT      O74491   8.069   0.626   0.996
24750WAT     H174492   8.025   0.536   1.004
24750WAT     H274493   8.161   0.615   0.959
24751WAT      O74494   4.288   7.530   5.347
24751WAT     H174495   4.191   7.541   5.368
24751WAT     H274496   4.342   7.563   5.424
24752WAT      O74497   7.152   9.188   5.073
24752WAT     H174498   7.220   9.116   5.057
24752WAT     H274499   7.103   9.169   5.158
24753WAT      O74500   4.959   6.979   5.647
24753WAT     H174501   5.003   6.919   5.580
24753WAT     H274502   4.865   6.998   5.618
24754WAT      O74503   5.937   2.103   3.336
24754WAT     H174504   5.967   2.093   3.241
24754WAT     H274505   5.997   2.049   3.395
24755WAT      O74506   6.559   8.999   0.614
24755WAT     H174507   6.518   8.909   0.627
24755WAT     H274508   6.601   9.004   0.524
24756WAT      O74509   7.524   8.828   1.207
24756WAT     H174510   7.570   8.740   1.222
24756WAT     H274511   7.589   8.902   1.225
24757WAT      O74512   7.462   4.351   7.522
24757WAT     H174513   7.420   4.295   7.450
24757WAT     H274514   7.548   4.388   7.489
24758WAT      O74515   1.711   7.736   0.546
24758WAT     H174516   1.693   7.834   0.554
24758WAT     H274517   1.638   7.693   0.493
24759WAT      O74518   4.767   7.994   7.490
24759WAT     H174519   4.733   7.929   7.558
24759WAT     H274520   4.708   7.992   7.409
24760WAT      O74521   4.619   0.278   5.793
24760WAT     H174522   4.639   0.335   5.713
24760WAT     H274523   4.630   0.331   5.876
24761WAT      O74524   5.785   7.401   1.720
24761WAT     H174525   5.718   7.470   1.748
24761WAT     H274526   5.745   7.344   1.648
24762WAT      O74527   0.636   4.775   3.475
24762WAT     H174528   0.586   4.801   3.393
24762WAT     H274529   0.726   4.819   3.476
24763WAT      O74530   8.093   9.741   4.713
24763WAT     H174531   8.090   9.826   4.765
24763WAT     H274532   8.185   9.701   4.720
24764WAT      O74533   0.003   3.519   0.730
24764WAT     H174534   0.028   3.426   0.703
24764WAT     H274535   0.011   3.580   0.651
24765WAT      O74536   5.865   5.718   2.657
24765WAT     H174537   5.789   5.660   2.627
24765WAT     H274538   5.926   5.665   2.716
24766WAT      O74539   3.407   8.189   8.414
24766WAT     H174540   3.401   8.186   8.513
24766WAT     H274541   3.402   8.096   8.377
24767WAT      O74542   9.384   1.852   0.455
24767WAT     H174543   9.287   1.843   0.477
24767WAT     H274544   9.439   1.814   0.529
24768WAT      O74545   7.448   5.266   9.454
24768WAT     H174546   7.390   5.344   9.474
24768WAT     H274547   7.530   5.297   9.404
24769WAT      O74548   1.668   5.364   6.965
24769WAT     H174549   1.714   5.399   7.046
24769WAT     H274550   1.576   5.403   6.958
24770WAT      O74551   7.089   4.173   2.530
24770WAT     H174552   7.135   4.255   2.497
24770WAT     H274553   7.128   4.092   2.486
24771WAT      O74554   8.060   2.725   1.009
24771WAT     H174555   8.150   2.770   1.001
24771WAT     H274556   8.070   2.628   0.988
24772WAT      O74557   1.999   1.653   2.671
24772WAT     H174558   1.950   1.720   2.614
24772WAT     H274559   2.091   1.639   2.634
24773WAT      O74560   5.255   0.989   5.457
24773WAT     H174561   5.162   1.017   5.432
24773WAT     H274562   5.303   0.956   5.376
24774WAT      O74563   2.830   3.768   0.047
24774WAT     H174564   2.760   3.816  -0.006
24774WAT     H274565   2.907   3.829   0.063
24775WAT      O74566   4.283   3.340   7.747
24775WAT     H174567   4.205   3.399   7.769
24775WAT     H274568   4.317   3.363   7.656
24776WAT      O74569   1.929   4.529   0.553
24776WAT     H174570   1.932   4.521   0.653
24776WAT     H274571   1.881   4.450   0.515
24777WAT      O74572   3.966   7.591  -0.001
24777WAT     H174573   3.975   7.506  -0.053
24777WAT     H274574   3.964   7.571   0.096
24778WAT      O74575   4.266   9.463   1.615
24778WAT     H174576   4.212   9.382   1.641
24778WAT     H274577   4.204   9.534   1.582
24779WAT      O74578   6.059   5.353   3.745
24779WAT     H174579   6.138   5.412   3.761
24779WAT     H274580   5.975   5.408   3.747
24780WAT      O74581   5.188   2.364   9.833
24780WAT     H174582   5.145   2.454   9.845
24780WAT     H274583   5.261   2.353   9.901
24781WAT      O74584   6.594   2.149   9.476
24781WAT     H174585   6.660   2.223   9.464
24781WAT     H274586   6.598   2.088   9.397
24782WAT      O74587   2.012   9.817   4.795
24782WAT     H174588   2.097   9.826   4.847
24782WAT     H274589   2.020   9.742   4.729
24783WAT      O74590   6.865   1.419   8.705
24783WAT     H174591   6.927   1.456   8.635
24783WAT     H274592   6.918   1.368   8.772
24784WAT      O74593   7.681   6.404   6.569
24784WAT     H174594   7.620   6.470   6.612
24784WAT     H274595   7.743   6.453   6.507
24785WAT      O74596   2.020   2.966   2.999
24785WAT     H174597   2.113   2.994   3.021
24785WAT     H274598   1.983   3.026   2.928
24786WAT      O74599   7.783   3.660   9.403
24786WAT     H174600   7.764   3.574   9.451
24786WAT     H274601   7.881   3.666   9.385
24787WAT      O74602   5.316   7.420   0.462
24787WAT     H174603   5.355   7.414   0.554
24787WAT     H274604   5.222   7.454   0.467
24788WAT      O74605   7.240   0.840   1.919
24788WAT     H174606   7.264   0.863   1.824
24788WAT     H274607   7.144   0.814   1.924
24789WAT      O74608   6.898   3.971   9.878
24789WAT     H174609   6.852   4.006   9.797
24789WAT     H274610   6.971   4.034   9.905
24790WAT      O74611   1.123   0.794   4.524
24790WAT     H174612   1.038   0.788   4.472
24790WAT     H274613   1.200   0.793   4.461
24791WAT      O74614   1.535   3.077   8.888
24791WAT     H174615   1.616   3.104   8.838
24791WAT     H274616   1.559   3.006   8.955
24792WAT      O74617   8.203   8.857   7.035
24792WAT     H174618   8.126   8.861   6.972
24792WAT     H274619   8.287   8.882   6.986
24793WAT      O74620   0.310   0.424   0.029
24793WAT     H174621   0.248   0.497   0.056
24793WAT     H274622   0.317   0.357   0.104
24794WAT      O74623   3.339   0.084   9.514
24794WAT     H174624   3.243   0.106   9.532
24794WAT     H274625   3.347   0.044   9.423
24795WAT      O74626   8.027   3.221   6.332
24795WAT     H174627   8.072   3.132   6.321
24795WAT     H274628   7.966   3.237   6.255
24796WAT      O74629   6.200   9.553   2.228
24796WAT     H174630   6.281   9.549   2.287
24796WAT     H274631   6.192   9.645   2.190
24797WAT      O74632   3.433   7.167   3.999
24797WAT     H174633   3.404   7.101   3.930
24797WAT     H274634   3.398   7.258   3.976
24798WAT      O74635   1.902   4.155   1.829
24798WAT     H174636   1.815   4.202   1.845
24798WAT     H274637   1.958   4.209   1.767
24799WAT      O74638   8.431   9.819   1.476
24799WAT     H174639   8.391   9.732   1.446
24799WAT     H274640   8.377   9.857   1.551
24800WAT      O74641   9.203   5.042   9.385
24800WAT     H174642   9.273   5.105   9.417
24800WAT     H274643   9.118   5.093   9.370
24801WAT      O74644   7.350   1.276   8.941
24801WAT     H174645   7.263   1.322   8.959
24801WAT     H274646   7.358   1.256   8.843
24802WAT      O74647   1.733   6.539   4.715
24802WAT     H174648   1.636   6.519   4.727
24802WAT     H274649   1.756   6.539   4.618
24803WAT      O74650   0.643   2.364   5.275
24803WAT     H174651   0.601   2.376   5.186
24803WAT     H274652   0.742   2.349   5.265
24804WAT      O74653   0.454   1.900   3.331
24804WAT     H174654   0.355   1.907   3.314
24804WAT     H274655   0.503   1.898   3.244
24805WAT      O74656   6.590   4.342   1.255
24805WAT     H174657   6.589   4.287   1.172
24805WAT     H274658   6.497   4.368   1.280
24806WAT      O74659   1.622   5.216   2.358
24806WAT     H174660   1.708   5.245   2.314
24806WAT     H274661   1.578   5.146   2.303
24807WAT      O74662   6.112   0.346   4.035
24807WAT     H174663   6.146   0.430   3.993
24807WAT     H274664   6.164   0.268   4.000
24808WAT      O74665   1.152   8.751   6.680
24808WAT     H174666   1.147   8.789   6.772
24808WAT     H274667   1.231   8.790   6.632
24809WAT      O74668   3.791   9.697   3.842
24809WAT     H174669   3.865   9.660   3.785
24809WAT     H274670   3.723   9.742   3.784
24810WAT      O74671   2.666   0.992   7.930
24810WAT     H174672   2.687   0.895   7.920
24810WAT     H274673   2.596   1.019   7.864
24811WAT      O74674   1.703   5.349   3.351
24811WAT     H174675   1.658   5.372   3.264
24811WAT     H274676   1.706   5.250   3.362
24812WAT      O74677   4.986   7.344   4.818
24812WAT     H174678   5.061   7.336   4.752
24812WAT     H274679   4.960   7.253   4.849
24813WAT      O74680   8.021   6.645   0.090
24813WAT     H174681   8.070   6.722   0.048
24813WAT     H274682   8.004   6.665   0.186
24814WAT      O74683   4.579   6.620   9.615
24814WAT     H174684   4.484   6.647   9.596
24814WAT     H274685   4.581   6.562   9.697
24815WAT      O74686   2.722   1.882   4.881
24815WAT     H174687   2.677   1.880   4.970
24815WAT     H274688   2.697   1.800   4.829
24816WAT      O74689   2.216   7.141   4.527
24816WAT     H174690   2.283   7.123   4.455
24816WAT     H274691   2.201   7.239   4.535
24817WAT      O74692   5.165   0.938   8.658
24817WAT     H174693   5.184   1.025   8.611
24817WAT     H274694   5.207   0.939   8.749
24818WAT      O74695   9.029   8.241   4.180
24818WAT     H174696   9.104   8.307   4.188
24818WAT     H274697   8.968   8.250   4.259
24819WAT      O74698   3.679   2.390   2.974
24819WAT     H174699   3.762   2.386   2.918
24819WAT     H274700   3.686   2.323   3.048
24820WAT      O74701   1.199   5.337   0.230
24820WAT     H174702   1.153   5.383   0.154
24820WAT     H274703   1.168   5.242   0.235
24821WAT      O74704   3.870   2.805   3.871
24821WAT     H174705   3.965   2.794   3.844
24821WAT     H274706   3.848   2.739   3.943
24822WAT      O74707   6.986   1.400   0.409
24822WAT     H174708   7.069   1.447   0.439
24822WAT     H274709   6.905   1.447   0.443
24823WAT      O74710   0.389   6.356   1.633
24823WAT     H174711   0.311   6.334   1.691
24823WAT     H274712   0.360   6.423   1.564
24824WAT      O74713   5.957   3.592   5.307
24824WAT     H174714   5.953   3.606   5.406
24824WAT     H274715   5.874   3.626   5.264
24825WAT      O74716   2.154   8.497   5.484
24825WAT     H174717   2.080   8.546   5.529
24825WAT     H274718   2.122   8.408   5.453
24826WAT      O74719   1.846   7.576   4.884
24826WAT     H174720   1.944   7.576   4.865
24826WAT     H274721   1.808   7.666   4.865
24827WAT      O74722   4.168   3.087   2.864
24827WAT     H174723   4.143   3.172   2.911
24827WAT     H274724   4.086   3.031   2.850
24828WAT      O74725   1.159   8.411   9.427
24828WAT     H174726   1.231   8.401   9.358
24828WAT     H274727   1.158   8.505   9.460
24829WAT      O74728   9.735   3.917   4.507
24829WAT     H174729   9.654   3.909   4.450
24829WAT     H274730   9.775   3.826   4.521
24830WAT      O74731   4.002   5.622   4.741
24830WAT     H174732   4.032   5.712   4.772
24830WAT     H274733   4.010   5.617   4.642
24831WAT      O74734   6.042   4.311   5.711
24831WAT     H174735   6.082   4.397   5.743
24831WAT     H274736   6.037   4.246   5.788
24832WAT      O74737   6.200   1.613   8.725
24832WAT     H174738   6.118   1.643   8.676
24832WAT     H274739   6.225   1.521   8.695
24833WAT      O74740   4.383   1.306   5.772
24833WAT     H174741   4.379   1.207   5.759
24833WAT     H274742   4.353   1.352   5.688
24834WAT      O74743   2.922   7.565   7.865
24834WAT     H174744   2.979   7.485   7.849
24834WAT     H274745   2.973   7.648   7.840
24835WAT      O74746   8.174   3.965   7.431
24835WAT     H174747   8.121   3.978   7.347
24835WAT     H274748   8.216   3.874   7.430
24836WAT      O74749   7.120   3.718   8.051
24836WAT     H174750   7.126   3.724   8.151
24836WAT     H274751   7.040   3.770   8.021
24837WAT      O74752   6.792   0.733   2.167
24837WAT     H174753   6.844   0.732   2.253
24837WAT     H274754   6.779   0.827   2.137
24838WAT      O74755   0.539   1.009   6.303
24838WAT     H174756   0.585   0.984   6.218
24838WAT     H274757   0.466   1.074   6.284
24839WAT      O74758   8.470   7.902   5.690
24839WAT     H174759   8.549   7.902   5.751
24839WAT     H274760   8.397   7.847   5.729
24840WAT      O74761   4.556   2.533   7.314
24840WAT     H174762   4.460   2.512   7.328
24840WAT     H274763   4.570   2.632   7.320
24841WAT      O74764   3.925   2.002   2.001
24841WAT     H174765   3.852   1.985   2.066
24841WAT     H274766   3.991   1.926   2.004
24842WAT      O74767   7.477   2.789   7.999
24842WAT     H174768   7.539   2.821   8.070
24842WAT     H274769   7.387   2.832   8.011
24843WAT      O74770   9.279   0.820   8.699
24843WAT     H174771   9.363   0.767   8.691
24843WAT     H274772   9.209   0.764   8.744
24844WAT      O74773   2.717   8.801   1.345
24844WAT     H174774   2.773   8.790   1.263
24844WAT     H274775   2.777   8.807   1.425
24845WAT      O74776   4.276   5.155   7.737
24845WAT     H174777   4.375   5.146   7.730
24845WAT     H274778   4.240   5.084   7.798
24846WAT      O74779   1.815   7.237   1.963
24846WAT     H174780   1.756   7.233   2.044
24846WAT     H274781   1.878   7.314   1.972
24847WAT      O74782   1.407   0.994   7.294
24847WAT     H174783   1.442   0.946   7.213
24847WAT     H274784   1.410   1.092   7.278
24848WAT      O74785   4.388   9.098   8.723
24848WAT     H174786   4.323   9.061   8.789
24848WAT     H274787   4.363   9.193   8.702
24849WAT      O74788   4.819   1.562   2.901
24849WAT     H174789   4.783   1.513   2.821
24849WAT     H274790   4.745   1.575   2.967
24850WAT      O74791   3.613   9.330   3.923
24850WAT     H174792   3.635   9.236   3.898
24850WAT     H274793   3.621   9.342   4.022
24851WAT      O74794   1.379   1.404   2.771
24851WAT     H174795   1.411   1.496   2.793
24851WAT     H274796   1.349   1.400   2.676
24852WAT      O74797   5.693   3.789   9.453
24852WAT     H174798   5.613   3.830   9.410
24852WAT     H274799   5.676   3.693   9.472
24853WAT      O74800   9.097   5.312   4.691
24853WAT     H174801   9.108   5.404   4.728
24853WAT     H274802   9.004   5.300   4.657
24854WAT      O74803   1.994   0.216   4.074
24854WAT     H174804   1.908   0.165   4.067
24854WAT     H274805   1.980   0.308   4.038
24855WAT      O74806   3.173   8.293   1.266
24855WAT     H174807   3.153   8.239   1.348
24855WAT     H274808   3.113   8.373   1.262
24856WAT      O74809   9.075   3.456   6.305
24856WAT     H174810   9.121   3.520   6.367
24856WAT     H274811   9.140   3.424   6.236
24857WAT      O74812   3.377   4.886   9.860
24857WAT     H174813   3.409   4.916   9.770
24857WAT     H274814   3.290   4.839   9.851
24858WAT      O74815   2.980   2.053   8.098
24858WAT     H174816   2.961   2.138   8.049
24858WAT     H274817   2.948   1.976   8.044
24859WAT      O74818   8.708   7.867   8.206
24859WAT     H174819   8.651   7.797   8.163
24859WAT     H274820   8.679   7.880   8.301
24860WAT      O74821   6.149   7.789   2.330
24860WAT     H174822   6.086   7.714   2.351
24860WAT     H274823   6.235   7.751   2.296
24861WAT      O74824   1.131   5.569   1.926
24861WAT     H174825   1.116   5.491   1.864
24861WAT     H274826   1.225   5.566   1.960
24862WAT      O74827   2.606   9.490   7.277
24862WAT     H174828   2.555   9.575   7.287
24862WAT     H274829   2.583   9.447   7.190
24863WAT      O74830   4.981   3.801   3.254
24863WAT     H174831   4.888   3.769   3.238
24863WAT     H274832   4.987   3.899   3.236
24864WAT      O74833   5.450   4.529   0.851
24864WAT     H174834   5.540   4.504   0.817
24864WAT     H274835   5.452   4.532   0.951
24865WAT      O74836   9.730   1.310   9.849
24865WAT     H174837   9.740   1.408   9.869
24865WAT     H274838   9.740   1.296   9.750
24866WAT      O74839   8.077   7.993   1.833
24866WAT     H174840   7.982   7.965   1.816
24866WAT     H274841   8.135   7.913   1.846
24867WAT      O74842   6.655   9.731   7.718
24867WAT     H174843   6.700   9.756   7.804
24867WAT     H274844   6.556   9.726   7.733
24868WAT      O74845   4.592   4.461   5.166
24868WAT     H174846   4.562   4.386   5.107
24868WAT     H274847   4.690   4.454   5.182
24869WAT      O74848   4.019   1.865   1.395
24869WAT     H174849   3.920   1.858   1.385
24869WAT     H274850   4.042   1.950   1.442
24870WAT      O74851   7.311   4.868   3.361
24870WAT     H174852   7.318   4.912   3.451
24870WAT     H274853   7.223   4.892   3.320
24871WAT      O74854   3.211   0.670   4.900
24871WAT     H174855   3.305   0.640   4.882
24871WAT     H274856   3.153   0.649   4.821
24872WAT      O74857   3.303   7.330   4.493
24872WAT     H174858   3.320   7.384   4.411
24872WAT     H274859   3.222   7.274   4.480
24873WAT      O74860   3.435   2.036   5.195
24873WAT     H174861   3.432   2.036   5.095
24873WAT     H274862   3.530   2.041   5.226
24874WAT      O74863   0.538   6.575   2.437
24874WAT     H174864   0.517   6.550   2.343
24874WAT     H274865   0.514   6.500   2.498
24875WAT      O74866   5.248   3.358   7.516
24875WAT     H174867   5.158   3.329   7.548
24875WAT     H274868   5.238   3.418   7.437
24876WAT      O74869   8.490   0.750   7.949
24876WAT     H174870   8.555   0.826   7.947
24876WAT     H274871   8.402   0.783   7.983
24877WAT      O74872   5.143   7.231   5.982
24877WAT     H174873   5.116   7.159   6.046
24877WAT     H274874   5.238   7.258   6.001
24878WAT      O74875   6.882   8.626   5.410
24878WAT     H174876   6.941   8.655   5.335
24878WAT     H274877   6.844   8.535   5.389
24879WAT      O74878   4.521   4.028   0.274
24879WAT     H174879   4.486   3.972   0.199
24879WAT     H274880   4.518   3.977   0.359
24880WAT      O74881   8.759   3.467   4.419
24880WAT     H174882   8.827   3.398   4.443
24880WAT     H274883   8.783   3.554   4.462
24881WAT      O74884   4.184   0.975   6.254
24881WAT     H174885   4.204   0.958   6.157
24881WAT     H274886   4.169   1.073   6.267
24882WAT      O74887   4.856   5.712   5.784
24882WAT     H174888   4.887   5.633   5.732
24882WAT     H274889   4.850   5.791   5.723
24883WAT      O74890   4.542   9.165   5.509
24883WAT     H174891   4.606   9.186   5.583
24883WAT     H274892   4.472   9.236   5.504
24884WAT      O74893   5.121   3.897   8.799
24884WAT     H174894   5.096   3.865   8.890
24884WAT     H274895   5.183   3.832   8.756
24885WAT      O74896   9.799   6.117   4.795
24885WAT     H174897   9.884   6.138   4.747
24885WAT     H274898   9.723   6.118   4.730
24886WAT      O74899   7.560   2.634   2.029
24886WAT     H174900   7.461   2.639   2.047
24886WAT     H274901   7.576   2.578   1.948
24887WAT      O74902   7.702   0.990   0.902
24887WAT     H174903   7.684   0.920   0.972
24887WAT     H274904   7.622   1.049   0.893
24888WAT      O74905   4.639   9.536   1.761
24888WAT     H174906   4.578   9.613   1.744
24888WAT     H274907   4.692   9.517   1.679
24889WAT      O74908   0.833   0.540   3.136
24889WAT     H174909   0.897   0.471   3.104
24889WAT     H274910   0.885   0.621   3.166
24890WAT      O74911   1.006   3.809   5.617
24890WAT     H174912   0.918   3.811   5.571
24890WAT     H274913   1.065   3.741   5.574
24891WAT      O74914   0.890   6.309   5.330
24891WAT     H174915   0.793   6.326   5.313
24891WAT     H274916   0.933   6.272   5.248
24892WAT      O74917   8.302   3.028   3.569
24892WAT     H174918   8.240   2.961   3.609
24892WAT     H274919   8.348   3.079   3.642
24893WAT      O74920   0.926   2.077   4.953
24893WAT     H174921   0.966   2.137   5.022
24893WAT     H274922   0.948   2.112   4.862
24894WAT      O74923   4.895   8.214   7.932
24894WAT     H174924   4.846   8.189   8.016
24894WAT     H274925   4.876   8.309   7.910
24895WAT      O74926   2.887   8.249   3.723
24895WAT     H174927   2.809   8.300   3.758
24895WAT     H274928   2.926   8.297   3.645
24896WAT      O74929   3.074   8.209   0.879
24896WAT     H174930   3.038   8.126   0.838
24896WAT     H274931   3.142   8.185   0.949
24897WAT      O74932   3.465   8.660   6.157
24897WAT     H174933   3.475   8.667   6.058
24897WAT     H274934   3.408   8.582   6.180
24898WAT      O74935   4.351   6.000   1.846
24898WAT     H174936   4.417   5.935   1.809
24898WAT     H274937   4.372   6.018   1.942
24899WAT      O74938   0.528   2.078   3.079
24899WAT     H174939   0.470   2.159   3.068
24899WAT     H274940   0.549   2.040   2.989
24900WAT      O74941   0.921   7.148   0.234
24900WAT     H174942   0.919   7.244   0.207
24900WAT     H274943   0.832   7.106   0.214
24901WAT      O74944   6.751   9.752   5.120
24901WAT     H174945   6.685   9.772   5.193
24901WAT     H274946   6.701   9.721   5.038
24902WAT      O74947   2.152   2.571   6.746
24902WAT     H174948   2.060   2.535   6.761
24902WAT     H274949   2.164   2.591   6.648
24903WAT      O74950   1.554   8.966   8.292
24903WAT     H174951   1.550   9.021   8.376
24903WAT     H274952   1.625   9.003   8.232
24904WAT      O74953   2.320   5.465   7.054
24904WAT     H174954   2.303   5.542   7.116
24904WAT     H274955   2.290   5.490   6.962
24905WAT      O74956   6.370   9.672   0.512
24905WAT     H174957   6.433   9.596   0.500
24905WAT     H274958   6.374   9.732   0.432
24906WAT      O74959   9.631   6.101   5.843
24906WAT     H174960   9.612   6.018   5.792
24906WAT     H274961   9.700   6.155   5.795
24907WAT      O74962   8.534   4.431   7.170
24907WAT     H174963   8.549   4.378   7.086
24907WAT     H274964   8.614   4.424   7.229
24908WAT      O74965   6.812   2.021   0.769
24908WAT     H174966   6.854   1.967   0.843
24908WAT     H274967   6.720   1.986   0.751
24909WAT      O74968   9.215   9.527   3.262
24909WAT     H174969   9.134   9.510   3.206
24909WAT     H274970   9.187   9.574   3.346
24910WAT      O74971   4.276   0.364   7.264
24910WAT     H174972   4.343   0.302   7.223
24910WAT     H274973   4.283   0.359   7.364
24911WAT      O74974   9.827   8.772   6.354
24911WAT     H174975   9.879   8.855   6.332
24911WAT     H274976   9.779   8.784   6.441
24912WAT      O74977   8.227   7.014   7.002
24912WAT     H174978   8.317   7.008   6.958
24912WAT     H274979   8.197   7.109   7.003
24913WAT      O74980   5.312   0.411   4.406
24913WAT     H174981   5.302   0.469   4.325
24913WAT     H274982   5.369   0.332   4.384
24914WAT      O74983   7.679   6.505   1.637
24914WAT     H174984   7.774   6.487   1.663
24914WAT     H274985   7.631   6.418   1.623
24915WAT      O74986   2.858   6.896   2.785
24915WAT     H174987   2.897   6.949   2.860
24915WAT     H274988   2.762   6.875   2.806
24916WAT      O74989   4.046   6.737   2.136
24916WAT     H174990   4.048   6.816   2.197
24916WAT     H274991   4.010   6.763   2.047
24917WAT      O74992   2.197   6.047   3.570
24917WAT     H174993   2.131   5.989   3.522
24917WAT     H274994   2.195   6.139   3.531
24918WAT      O74995   7.741   5.072   3.579
24918WAT     H174996   7.748   5.020   3.664
24918WAT     H274997   7.655   5.121   3.577
24919WAT      O74998   2.163   1.350   0.873
24919WAT     H174999   2.104   1.279   0.913
24919WAT     H275000   2.129   1.373   0.782
24920WAT      O75001   8.826   0.809   8.332
24920WAT     H175002   8.911   0.824   8.381
24920WAT     H275003   8.776   0.895   8.325
24921WAT      O75004   1.866   1.751   0.752
24921WAT     H175005   1.965   1.751   0.769
24921WAT     H275006   1.830   1.659   0.765
24922WAT      O75007   5.213   8.124   1.770
24922WAT     H175008   5.252   8.032   1.765
24922WAT     H275009   5.122   8.124   1.728
24923WAT      O75010   4.017   7.155   0.360
24923WAT     H175011   4.073   7.080   0.325
24923WAT     H275012   3.985   7.211   0.284
24924WAT      O75013   7.072   6.591   9.388
24924WAT     H175014   7.005   6.528   9.426
24924WAT     H275015   7.152   6.539   9.358
24925WAT      O75016   1.376   5.856   2.118
24925WAT     H175017   1.300   5.810   2.164
24925WAT     H275018   1.354   5.953   2.107
24926WAT      O75019   6.702   4.117   1.861
24926WAT     H175020   6.748   4.201   1.831
24926WAT     H275021   6.660   4.132   1.950
24927WAT      O75022   1.935   5.499   3.351
24927WAT     H175023   1.988   5.525   3.271
24927WAT     H275024   1.859   5.439   3.323
24928WAT      O75025   1.696   2.884   0.978
24928WAT     H175026   1.768   2.829   0.935
24928WAT     H275027   1.729   2.922   1.064
24929WAT      O75028   8.309   4.556   9.705
24929WAT     H175029   8.233   4.606   9.745
24929WAT     H275030   8.288   4.534   9.609
24930WAT      O75031   2.235   8.217   6.211
24930WAT     H175032   2.154   8.274   6.198
24930WAT     H275033   2.303   8.239   6.141
24931WAT      O75034   1.758   7.554   3.873
24931WAT     H175035   1.737   7.580   3.779
24931WAT     H275036   1.713   7.468   3.895
24932WAT      O75037   9.766   1.096   3.303
24932WAT     H175038   9.763   1.168   3.233
24932WAT     H275039   9.730   1.131   3.389
24933WAT      O75040   8.650   4.655   0.154
24933WAT     H175041   8.745   4.647   0.126
24933WAT     H275042   8.622   4.571   0.201
24934WAT      O75043   2.526   7.281   4.043
24934WAT     H175044   2.623   7.262   4.057
24934WAT     H275045   2.499   7.252   3.951
24935WAT      O75046   3.450   7.050   9.719
24935WAT     H175047   3.354   7.028   9.708
24935WAT     H275048   3.506   6.969   9.700
24936WAT      O75049   0.656   5.368   0.427
24936WAT     H175050   0.601   5.364   0.344
24936WAT     H275051   0.753   5.359   0.403
24937WAT      O75052   9.630   3.952   1.105
24937WAT     H175053   9.697   4.018   1.140
24937WAT     H275054   9.639   3.945   1.006
24938WAT      O75055   3.655   0.221   2.588
24938WAT     H175056   3.628   0.298   2.646
24938WAT     H275057   3.654   0.249   2.492
24939WAT      O75058   0.568   9.461   7.285
24939WAT     H175059   0.638   9.436   7.352
24939WAT     H275060   0.478   9.466   7.330
24940WAT      O75061   6.027   5.610   8.165
24940WAT     H175062   6.000   5.624   8.070
24940WAT     H275063   6.106   5.548   8.169
24941WAT      O75064   3.361   5.144   1.729
24941WAT     H175065   3.338   5.056   1.686
24941WAT     H275066   3.347   5.136   1.828
24942WAT      O75067   6.365   4.159   5.727
24942WAT     H175068   6.427   4.224   5.772
24942WAT     H275069   6.343   4.193   5.636
24943WAT      O75070   5.450   6.872   1.085
24943WAT     H175071   5.377   6.895   1.020
24943WAT     H275072   5.506   6.952   1.103
24944WAT      O75073   5.538   7.361   0.022
24944WAT     H175074   5.619   7.419   0.035
24944WAT     H275075   5.517   7.356  -0.075
24945WAT      O75076   5.195   3.248   7.018
24945WAT     H175077   5.263   3.320   7.010
24945WAT     H275078   5.224   3.168   6.965
24946WAT      O75079   5.394   0.287   2.726
24946WAT     H175080   5.428   0.336   2.646
24946WAT     H275081   5.303   0.250   2.708
24947WAT      O75082   8.533   7.960   8.909
24947WAT     H175083   8.503   7.957   9.004
24947WAT     H275084   8.455   7.981   8.850
24948WAT      O75085   1.326   8.644   8.354
24948WAT     H175086   1.424   8.634   8.342
24948WAT     H275087   1.300   8.739   8.334
24949WAT      O75088   1.793   6.435   7.070
24949WAT     H175089   1.800   6.364   7.000
24949WAT     H275090   1.885   6.465   7.096
24950WAT      O75091   1.440   8.643   1.763
24950WAT     H175092   1.519   8.679   1.811
24950WAT     H275093   1.445   8.543   1.760
24951WAT      O75094   8.044   4.611   8.683
24951WAT     H175095   8.099   4.601   8.601
24951WAT     H275096   7.955   4.650   8.659
24952WAT      O75097   7.931   7.412   0.724
24952WAT     H175098   8.013   7.455   0.761
24952WAT     H275099   7.911   7.451   0.634
24953WAT      O75100   8.616   5.064   3.682
24953WAT     H175101   8.537   5.019   3.724
24953WAT     H275102   8.661   5.121   3.750
24954WAT      O75103   8.403   7.409   4.785
24954WAT     H175104   8.323   7.375   4.736
24954WAT     H275105   8.435   7.339   4.849
24955WAT      O75106   3.379   1.037   9.412
24955WAT     H175107   3.282   1.012   9.416
24955WAT     H275108   3.406   1.077   9.499
24956WAT      O75109   6.560   8.779   9.787
24956WAT     H175110   6.626   8.734   9.727
24956WAT     H275111   6.525   8.713   9.853
24957WAT      O75112   6.988   1.896   1.537
24957WAT     H175113   6.902   1.845   1.545
24957WAT     H275114   7.064   1.832   1.526
24958WAT      O75115   4.143   8.126   4.566
24958WAT     H175116   4.153   8.109   4.468
24958WAT     H275117   4.160   8.041   4.616
24959WAT      O75118   1.728   1.872   5.778
24959WAT     H175119   1.721   1.832   5.869
24959WAT     H275120   1.781   1.956   5.782
24960WAT      O75121   1.374   4.824   3.736
24960WAT     H175122   1.397   4.838   3.833
24960WAT     H275123   1.421   4.742   3.702
24961WAT      O75124   8.378   0.471   8.514
24961WAT     H175125   8.323   0.455   8.595
24961WAT     H275126   8.332   0.433   8.434
24962WAT      O75127   4.983   0.289   2.813
24962WAT     H175128   5.021   0.303   2.905
24962WAT     H275129   5.048   0.237   2.758
24963WAT      O75130   1.938   3.996   6.189
24963WAT     H175131   1.956   3.924   6.257
24963WAT     H275132   2.005   3.990   6.115
24964WAT      O75133   4.445   1.544   1.947
24964WAT     H175134   4.499   1.474   1.901
24964WAT     H275135   4.504   1.595   2.010
24965WAT      O75136   1.405   4.345   5.916
24965WAT     H175137   1.430   4.253   5.885
24965WAT     H275138   1.335   4.339   5.987
24966WAT      O75139   6.531   9.166   3.413
24966WAT     H175140   6.601   9.221   3.457
24966WAT     H275141   6.559   9.145   3.319
24967WAT      O75142   0.343   2.033   7.148
24967WAT     H175143   0.358   2.132   7.140
24967WAT     H275144   0.369   1.989   7.063
24968WAT      O75145   6.990   7.915   8.505
24968WAT     H175146   6.910   7.960   8.542
24968WAT     H275147   6.974   7.893   8.408
24969WAT      O75148   5.656   8.177   1.083
24969WAT     H175149   5.580   8.112   1.092
24969WAT     H275150   5.706   8.180   1.169
24970WAT      O75151   6.226   3.007   8.055
24970WAT     H175152   6.168   2.925   8.062
24970WAT     H275153   6.283   3.001   7.974
24971WAT      O75154   3.742   6.791   1.244
24971WAT     H175155   3.736   6.731   1.324
24971WAT     H275156   3.809   6.753   1.179
24972WAT      O75157   0.778   4.780   1.382
24972WAT     H175158   0.875   4.804   1.395
24972WAT     H275159   0.741   4.745   1.468
24973WAT      O75160   6.648   2.813   4.218
24973WAT     H175161   6.603   2.900   4.238
24973WAT     H275162   6.701   2.822   4.134
24974WAT      O75163   3.074   5.794   0.426
24974WAT     H175164   3.099   5.743   0.509
24974WAT     H275165   3.100   5.890   0.436
24975WAT      O75166   0.399   9.260   8.985
24975WAT     H175167   0.345   9.305   8.914
24975WAT     H275168   0.344   9.250   9.068
24976WAT      O75169   1.518   1.967   8.681
24976WAT     H175170   1.603   1.998   8.639
24976WAT     H275171   1.538   1.931   8.773
24977WAT      O75172   2.091   9.010   1.655
24977WAT     H175173   2.160   9.025   1.584
24977WAT     H275174   2.013   8.961   1.617
24978WAT      O75175   5.494   7.048   9.606
24978WAT     H175176   5.400   7.021   9.628
24978WAT     H275177   5.504   7.056   9.507
24979WAT      O75178   8.055   1.491   8.197
24979WAT     H175179   8.113   1.454   8.124
24979WAT     H275180   8.010   1.416   8.246
24980WAT      O75181   5.798   6.597   0.091
24980WAT     H175182   5.869   6.598   0.021
24980WAT     H275183   5.741   6.679   0.083
24981WAT      O75184   1.224   2.591   2.540
24981WAT     H175185   1.124   2.599   2.533
24981WAT     H275186   1.267   2.672   2.500
24982WAT      O75187   7.956   0.811   9.720
24982WAT     H175188   7.978   0.736   9.782
24982WAT     H275189   7.884   0.867   9.761
24983WAT      O75190   7.423   7.474   4.270
24983WAT     H175191   7.422   7.385   4.225
24983WAT     H275192   7.479   7.469   4.353
24984WAT      O75193   6.384   3.763   3.533
24984WAT     H175194   6.478   3.767   3.498
24984WAT     H275195   6.374   3.682   3.590
24985WAT      O75196   5.450   5.607   0.289
24985WAT     H175197   5.460   5.540   0.216
24985WAT     H275198   5.479   5.697   0.256
24986WAT      O75199   1.330   7.268   3.567
24986WAT     H175200   1.349   7.177   3.603
24986WAT     H275201   1.293   7.261   3.474
24987WAT      O75202   6.488   2.115   5.724
24987WAT     H175203   6.544   2.171   5.785
24987WAT     H275204   6.547   2.052   5.673
24988WAT      O75205   7.271   1.597   5.398
24988WAT     H175206   7.183   1.595   5.352
24988WAT     H275207   7.344   1.577   5.332
24989WAT      O75208   1.990   7.162   3.169
24989WAT     H175209   1.963   7.253   3.200
24989WAT     H275210   2.088   7.149   3.186
24990WAT      O75211   2.976   4.462   5.871
24990WAT     H175212   2.932   4.529   5.930
24990WAT     H275213   3.072   4.452   5.897
24991WAT      O75214   1.209   3.156   2.214
24991WAT     H175215   1.227   3.061   2.191
24991WAT     H275216   1.216   3.169   2.312
24992WAT      O75217   0.421   2.302   7.111
24992WAT     H175218   0.480   2.311   7.191
24992WAT     H275219   0.383   2.391   7.087
24993WAT      O75220   0.146   6.597   5.458
24993WAT     H175221   0.211   6.533   5.417
24993WAT     H275222   0.053   6.563   5.445
24994WAT      O75223   6.004   9.783   8.087
24994WAT     H175224   6.073   9.822   8.149
24994WAT     H275225   5.913   9.793   8.129
24995WAT      O75226   8.561   5.367   5.232
24995WAT     H175227   8.653   5.344   5.263
24995WAT     H275228   8.532   5.301   5.162
24996WAT      O75229   9.862   3.058   3.947
24996WAT     H175230   9.818   2.995   3.883
24996WAT     H275231   9.924   3.118   3.897
24997WAT      O75232   6.603   4.179   2.090
24997WAT     H175233   6.537   4.232   2.143
24997WAT     H275234   6.686   4.166   2.144
24998WAT      O75235   8.987   7.512   7.810
24998WAT     H175236   8.999   7.429   7.756
24998WAT     H275237   8.889   7.534   7.815
24999WAT      O75238   8.561   0.349   4.587
24999WAT     H175239   8.583   0.352   4.490
24999WAT     H275240   8.590   0.435   4.630
25000WAT      O75241   4.205   0.005   6.988
25000WAT     H175242   4.177  -0.090   6.974
25000WAT     H275243   4.141   0.066   6.941
25001WAT      O75244   4.540   3.294   1.782
25001WAT     H175245   4.573   3.217   1.837
25001WAT     H275246   4.616   3.334   1.732
25002WAT      O75247   0.940   6.296   2.365
25002WAT     H175248   0.980   6.370   2.310
25002WAT     H275249   0.915   6.333   2.455
25003WAT      O75250   6.531   1.283   6.076
25003WAT     H175251   6.473   1.350   6.030
25003WAT     H275252   6.480   1.241   6.152
25004WAT      O75253   8.320   1.031   2.489
25004WAT     H175254   8.252   1.100   2.514
25004WAT     H275255   8.290   0.941   2.520
25005WAT      O75256   9.449   1.387   7.229
25005WAT     H175257   9.435   1.331   7.310
25005WAT     H275258   9.467   1.482   7.256
25006WAT      O75259   9.718   4.517   6.067
25006WAT     H175260   9.749   4.611   6.079
25006WAT     H275261   9.761   4.458   6.136
25007WAT      O75262   7.552   1.735   4.264
25007WAT     H175263   7.456   1.705   4.274
25007WAT     H275264   7.600   1.718   4.350
25008WAT      O75265   7.029   0.167   7.057
25008WAT     H175266   7.046   0.265   7.071
25008WAT     H275267   6.997   0.152   6.963
25009WAT      O75268   0.847   1.015   9.092
25009WAT     H175269   0.941   1.050   9.096
25009WAT     H275270   0.799   1.039   9.176
25010WAT      O75271   7.679   8.472   3.366
25010WAT     H175272   7.733   8.397   3.327
25010WAT     H275273   7.716   8.497   3.455
25011WAT      O75274   9.459   0.236   8.352
25011WAT     H175275   9.559   0.233   8.339
25011WAT     H275276   9.416   0.267   8.268
25012WAT      O75277   1.455   4.697   0.383
25012WAT     H175278   1.358   4.700   0.360
25012WAT     H275279   1.506   4.759   0.323
25013WAT      O75280   2.777   7.236   6.118
25013WAT     H175281   2.740   7.189   6.198
25013WAT     H275282   2.816   7.169   6.055
25014WAT      O75283   8.826   2.600   3.990
25014WAT     H175284   8.922   2.625   4.004
25014WAT     H275285   8.813   2.568   3.897
25015WAT      O75286   2.699   6.447   6.260
25015WAT     H175287   2.732   6.354   6.273
25015WAT     H275288   2.769   6.512   6.290
25016WAT      O75289   1.275   7.198   3.313
25016WAT     H175290   1.276   7.124   3.247
25016WAT     H275291   1.272   7.286   3.265
25017WAT      O75292   4.469   9.175   6.653
25017WAT     H175293   4.440   9.252   6.597
25017WAT     H275294   4.438   9.187   6.747
25018WAT      O75295   5.453   4.035   9.674
25018WAT     H175296   5.548   4.028   9.704
25018WAT     H275297   5.424   4.131   9.677
25019WAT      O75298   3.885   4.321   5.101
25019WAT     H175299   3.841   4.328   5.191
25019WAT     H275300   3.918   4.227   5.088
25020WAT      O75301   1.750   5.612   6.054
25020WAT     H175302   1.722   5.707   6.058
25020WAT     H275303   1.776   5.588   5.960
25021WAT      O75304   7.671   1.656   7.982
25021WAT     H175305   7.680   1.611   8.071
25021WAT     H275306   7.722   1.741   7.982
25022WAT      O75307   1.414   1.295   4.936
25022WAT     H175308   1.400   1.198   4.916
25022WAT     H275309   1.329   1.334   4.972
25023WAT      O75310   8.612   2.659   0.315
25023WAT     H175311   8.557   2.601   0.375
25023WAT     H275312   8.556   2.690   0.238
25024WAT      O75313   5.886   5.594   9.278
25024WAT     H175314   5.877   5.593   9.178
25024WAT     H275315   5.974   5.555   9.304
25025WAT      O75316   1.616   9.120   7.589
25025WAT     H175317   1.624   9.042   7.526
25025WAT     H275318   1.527   9.163   7.578
25026WAT      O75319   7.265   3.559   7.301
25026WAT     H175320   7.278   3.644   7.352
25026WAT     H275321   7.171   3.527   7.313
25027WAT      O75322   5.373   9.593   4.614
25027WAT     H175323   5.366   9.508   4.665
25027WAT     H275324   5.316   9.663   4.657
25028WAT      O75325   9.007   2.713   5.737
25028WAT     H175326   9.052   2.627   5.712
25028WAT     H275327   8.908   2.701   5.731
25029WAT      O75328   8.098   6.778   9.270
25029WAT     H175329   8.060   6.785   9.362
25029WAT     H275330   8.050   6.705   9.220
25030WAT      O75331   5.432   2.139   2.383
25030WAT     H175332   5.467   2.045   2.379
25030WAT     H275333   5.336   2.140   2.355
25031WAT      O75334   7.000   9.186   8.045
25031WAT     H175335   6.981   9.281   8.018
25031WAT     H275336   6.914   9.138   8.061
25032WAT      O75337   7.388   9.340   8.539
25032WAT     H175338   7.399   9.439   8.526
25032WAT     H275339   7.384   9.296   8.449
25033WAT      O75340   2.490   4.902   5.392
25033WAT     H175341   2.547   4.971   5.435
25033WAT     H275342   2.540   4.859   5.317
25034WAT      O75343   8.099   0.015   7.229
25034WAT     H175344   8.160   0.082   7.272
25034WAT     H275345   8.017   0.004   7.285
25035WAT      O75346   7.379   9.167   8.315
25035WAT     H175347   7.458   9.118   8.352
25035WAT     H275348   7.370   9.146   8.217
25036WAT      O75349   3.483   2.506   4.603
25036WAT     H175350   3.431   2.433   4.560
25036WAT     H275351   3.555   2.537   4.540
25037WAT      O75352   6.928   6.055   3.391
25037WAT     H175353   6.854   5.995   3.418
25037WAT     H275354   6.943   6.048   3.292
25038WAT      O75355   7.257   4.228   1.403
25038WAT     H175356   7.334   4.237   1.340
25038WAT     H275357   7.172   4.222   1.350
25039WAT      O75358   5.135   3.890   3.633
25039WAT     H175359   5.099   3.810   3.585
25039WAT     H275360   5.196   3.942   3.572
25040WAT      O75361   4.990   2.625   4.609
25040WAT     H175362   4.957   2.545   4.658
25040WAT     H275363   5.016   2.696   4.674
25041WAT      O75364   6.586   8.687   8.759
25041WAT     H175365   6.632   8.773   8.784
25041WAT     H275366   6.649   8.631   8.705
25042WAT      O75367   7.639   5.401   9.297
25042WAT     H175368   7.601   5.436   9.211
25042WAT     H275369   7.735   5.375   9.282
25043WAT      O75370   4.778   3.843   3.848
25043WAT     H175371   4.837   3.896   3.787
25043WAT     H275372   4.804   3.863   3.943
25044WAT      O75373   6.455   3.808   0.567
25044WAT     H175374   6.541   3.758   0.558
25044WAT     H275375   6.397   3.790   0.488
25045WAT      O75376   2.918   0.655   8.014
25045WAT     H175377   2.838   0.673   7.956
25045WAT     H275378   2.999   0.647   7.956
25046WAT      O75379   8.367   3.284   2.537
25046WAT     H175380   8.430   3.361   2.547
25046WAT     H275381   8.416   3.207   2.494
25047WAT      O75382   9.686   7.010   8.412
25047WAT     H175383   9.771   6.978   8.370
25047WAT     H275384   9.679   7.109   8.401
25048WAT      O75385   1.407   2.563   0.280
25048WAT     H175386   1.401   2.463   0.277
25048WAT     H275387   1.501   2.591   0.261
25049WAT      O75388   2.191   9.641   1.278
25049WAT     H175389   2.098   9.645   1.315
25049WAT     H275390   2.198   9.566   1.212
25050WAT      O75391   6.768   9.299   0.361
25050WAT     H175392   6.701   9.373   0.374
25050WAT     H275393   6.812   9.278   0.448
25051WAT      O75394   0.257   3.997   0.638
25051WAT     H175395   0.212   4.024   0.553
25051WAT     H275396   0.298   4.077   0.681
25052WAT      O75397   7.923   0.277   0.401
25052WAT     H175398   7.940   0.219   0.480
25052WAT     H275399   7.961   0.368   0.417
25053WAT      O75400   1.444   3.879   6.959
25053WAT     H175401   1.530   3.843   6.994
25053WAT     H275402   1.374   3.807   6.962
25054WAT      O75403   1.999   6.538   3.752
25054WAT     H175404   2.036   6.590   3.829
25054WAT     H275405   2.067   6.471   3.722
25055WAT      O75406   9.545   5.240   5.751
25055WAT     H175407   9.593   5.269   5.668
25055WAT     H275408   9.452   5.211   5.727
25056WAT      O75409   4.026   3.660   8.925
25056WAT     H175410   3.940   3.632   8.969
25056WAT     H275411   4.095   3.590   8.940
25057WAT      O75412   4.933   4.074   2.325
25057WAT     H175413   5.020   4.025   2.319
25057WAT     H275414   4.934   4.151   2.262
25058WAT      O75415   6.023   6.900   3.935
25058WAT     H175416   6.049   6.842   4.013
25058WAT     H275417   5.939   6.950   3.957
25059WAT      O75418   9.608   6.675   0.861
25059WAT     H175419   9.519   6.662   0.816
25059WAT     H275420   9.604   6.635   0.953
25060WAT      O75421   7.987   8.401   0.368
25060WAT     H175422   8.052   8.363   0.434
25060WAT     H275423   7.894   8.376   0.394
25061WAT      O75424   0.294   5.865   6.361
25061WAT     H175425   0.326   5.936   6.422
25061WAT     H275426   0.358   5.854   6.285
25062WAT      O75427   4.513   2.145   2.345
25062WAT     H175428   4.561   2.200   2.277
25062WAT     H275429   4.425   2.115   2.308
25063WAT      O75430   7.432   7.763   6.034
25063WAT     H175431   7.337   7.735   6.022
25063WAT     H275432   7.489   7.716   5.967
25064WAT      O75433   1.087   0.170   2.330
25064WAT     H175434   1.116   0.084   2.288
25064WAT     H275435   1.092   0.244   2.262
25065WAT      O75436   9.208   2.136   2.596
25065WAT     H175437   9.128   2.133   2.656
25065WAT     H275438   9.192   2.079   2.516
25066WAT      O75439   1.992   1.002   3.642
25066WAT     H175440   2.039   1.061   3.575
25066WAT     H275441   2.003   0.906   3.615
25067WAT      O75442   0.225   3.777   8.322
25067WAT     H175443   0.290   3.827   8.379
25067WAT     H275444   0.147   3.748   8.379
25068WAT      O75445   7.280   7.661   7.480
25068WAT     H175446   7.194   7.618   7.509
25068WAT     H275447   7.356   7.617   7.527
25069WAT      O75448   5.149   2.322   5.150
25069WAT     H175449   5.082   2.383   5.109
25069WAT     H275450   5.236   2.329   5.102
25070WAT      O75451   2.770   0.636   2.531
25070WAT     H175452   2.860   0.597   2.548
25070WAT     H275453   2.703   0.592   2.591
25071WAT      O75454   2.190   0.085   0.489
25071WAT     H175455   2.218   0.096   0.584
25071WAT     H275456   2.099   0.043   0.486
25072WAT      O75457   4.378   1.982   3.197
25072WAT     H175458   4.445   2.034   3.250
25072WAT     H275459   4.421   1.950   3.112
25073WAT      O75460   9.480   1.188   2.955
25073WAT     H175461   9.437   1.106   2.917
25073WAT     H275462   9.579   1.180   2.948
25074WAT      O75463   0.296   1.060   1.115
25074WAT     H175464   0.232   1.009   1.173
25074WAT     H275465   0.389   1.028   1.131
25075WAT      O75466   4.269   7.500   9.754
25075WAT     H175467   4.213   7.574   9.715
25075WAT     H275468   4.226   7.412   9.733
25076WAT      O75469   1.644   9.505   6.938
25076WAT     H175470   1.575   9.454   6.886
25076WAT     H275471   1.598   9.574   6.994
25077WAT      O75472   2.104   4.168   3.633
25077WAT     H175473   2.198   4.186   3.605
25077WAT     H275474   2.046   4.245   3.607
25078WAT      O75475   8.986   4.566   2.259
25078WAT     H175476   9.033   4.479   2.244
25078WAT     H275477   8.918   4.580   2.187
25079WAT      O75478   5.370   4.702   8.928
25079WAT     H175479   5.370   4.759   9.009
25079WAT     H275480   5.409   4.753   8.851
25080WAT      O75481   5.016   6.160   8.059
25080WAT     H175482   4.979   6.072   8.031
25080WAT     H275483   4.969   6.191   8.141
25081WAT      O75484   5.989   9.077   6.719
25081WAT     H175485   5.957   9.014   6.790
25081WAT     H275486   6.070   9.125   6.751
25082WAT      O75487   8.993   7.405   3.688
25082WAT     H175488   9.067   7.408   3.755
25082WAT     H275489   9.029   7.375   3.600
25083WAT      O75490   6.357   8.352   9.229
25083WAT     H175491   6.367   8.383   9.324
25083WAT     H275492   6.382   8.256   9.223
25084WAT      O75493   2.078   6.367   8.787
25084WAT     H175494   2.128   6.336   8.707
25084WAT     H275495   2.121   6.332   8.870
25085WAT      O75496   0.882   6.037   2.415
25085WAT     H175497   0.920   6.130   2.421
25085WAT     H275498   0.823   6.020   2.494
25086WAT      O75499   0.703   3.626   1.370
25086WAT     H175500   0.620   3.673   1.339
25086WAT     H275501   0.758   3.602   1.290
25087WAT      O75502   3.075   6.874   1.172
25087WAT     H175503   2.987   6.910   1.204
25087WAT     H275504   3.081   6.777   1.196
25088WAT      O75505   9.317   4.791   0.680
25088WAT     H175506   9.267   4.724   0.736
25088WAT     H275507   9.302   4.772   0.583
25089WAT      O75508   2.647   3.349   0.215
25089WAT     H175509   2.592   3.416   0.264
25089WAT     H275510   2.741   3.350   0.251
25090WAT      O75511   4.357   8.397   5.480
25090WAT     H175512   4.298   8.331   5.433
25090WAT     H275513   4.446   8.356   5.498
25091WAT      O75514   2.361   6.909   8.709
25091WAT     H175515   2.451   6.929   8.748
25091WAT     H275516   2.319   6.994   8.677
25092WAT      O75517   0.713   5.656   2.381
25092WAT     H175518   0.680   5.750   2.375
25092WAT     H275519   0.684   5.605   2.300
25093WAT      O75520   8.291   9.260   1.249
25093WAT     H175521   8.317   9.197   1.176
25093WAT     H275522   8.198   9.239   1.279
25094WAT      O75523   8.065   5.934   1.099
25094WAT     H175524   7.987   5.995   1.114
25094WAT     H275525   8.033   5.845   1.070
25095WAT      O75526   7.440   6.769   5.989
25095WAT     H175527   7.383   6.833   6.042
25095WAT     H275528   7.510   6.730   6.048
25096WAT      O75529   1.327   5.228   4.975
25096WAT     H175530   1.419   5.188   4.972
25096WAT     H275531   1.288   5.213   5.066
25097WAT      O75532   2.791   7.701   6.885
25097WAT     H175533   2.737   7.711   6.969
25097WAT     H275534   2.864   7.770   6.885
25098WAT      O75535   9.354   4.336   8.180
25098WAT     H175536   9.395   4.268   8.241
25098WAT     H275537   9.335   4.420   8.231
25099WAT      O75538   7.046   3.426   2.094
25099WAT     H175539   7.102   3.507   2.073
25099WAT     H275540   7.106   3.351   2.123
25100WAT      O75541   1.524   0.609   6.766
25100WAT     H175542   1.466   0.682   6.802
25100WAT     H275543   1.472   0.525   6.758
25101WAT      O75544   3.951   1.848   5.113
25101WAT     H175545   3.916   1.935   5.076
25101WAT     H275546   3.913   1.834   5.204
25102WAT      O75547   5.613   9.386   7.957
25102WAT     H175548   5.586   9.482   7.943
25102WAT     H275549   5.666   9.378   8.041
25103WAT      O75550   2.160   0.728   1.053
25103WAT     H175551   2.108   0.757   1.134
25103WAT     H275552   2.227   0.799   1.029
25104WAT      O75553   1.817   5.768   6.691
25104WAT     H175554   1.821   5.867   6.704
25104WAT     H275555   1.829   5.722   6.779
25105WAT      O75556   5.385   2.440   7.637
25105WAT     H175557   5.456   2.401   7.696
25105WAT     H275558   5.327   2.366   7.602
25106WAT      O75559   4.909   2.432   0.768
25106WAT     H175560   4.886   2.347   0.816
25106WAT     H275561   4.825   2.471   0.729
25107WAT      O75562   3.952   6.661   1.107
25107WAT     H175563   3.873   6.616   1.066
25107WAT     H275564   4.013   6.693   1.035
25108WAT      O75565   2.404   8.779   2.600
25108WAT     H175566   2.347   8.802   2.679
25108WAT     H275567   2.500   8.799   2.621
25109WAT      O75568   8.466   1.990   7.508
25109WAT     H175569   8.519   1.909   7.531
25109WAT     H275570   8.459   2.050   7.588
25110WAT      O75571   8.730   1.091   8.333
25110WAT     H175572   8.723   1.158   8.407
25110WAT     H275573   8.644   1.088   8.282
25111WAT      O75574   7.093   5.888   4.802
25111WAT     H175575   7.130   5.884   4.895
25111WAT     H275576   7.078   5.795   4.768
25112WAT      O75577   9.167   2.514   0.185
25112WAT     H175578   9.088   2.569   0.158
25112WAT     H275579   9.144   2.461   0.266
25113WAT      O75580   8.612   5.101   8.968
25113WAT     H175581   8.710   5.085   8.979
25113WAT     H275582   8.561   5.022   9.004
25114WAT      O75583   3.718   2.283   3.852
25114WAT     H175584   3.801   2.311   3.899
25114WAT     H275585   3.644   2.346   3.874
25115WAT      O75586   9.252   5.451   5.073
25115WAT     H175587   9.161   5.415   5.094
25115WAT     H275588   9.249   5.500   4.986
25116WAT      O75589   7.963   7.309   5.271
25116WAT     H175590   7.903   7.288   5.193
25116WAT     H275591   7.947   7.242   5.343
25117WAT      O75592   4.595   9.084   8.923
25117WAT     H175593   4.547   9.081   8.835
25117WAT     H275594   4.679   9.031   8.916
25118WAT      O75595   1.817   5.103   2.098
25118WAT     H175596   1.910   5.127   2.068
25118WAT     H275597   1.751   5.158   2.046
25119WAT      O75598   9.122   5.949   6.078
25119WAT     H175599   9.123   5.851   6.059
25119WAT     H275600   9.189   5.995   6.020
25120WAT      O75601   1.215   0.300   3.999
25120WAT     H175602   1.253   0.391   4.014
25120WAT     H275603   1.247   0.263   3.912
25121WAT      O75604   7.161   2.346   3.150
25121WAT     H175605   7.122   2.334   3.241
25121WAT     H275606   7.161   2.444   3.127
25122WAT      O75607   0.515   6.967   2.111
25122WAT     H175608   0.539   6.995   2.204
25122WAT     H275609   0.590   6.991   2.049
25123WAT      O75610   3.768   1.739   1.411
25123WAT     H175611   3.703   1.717   1.484
25123WAT     H275612   3.792   1.656   1.361
25124WAT      O75613   2.719   4.292   9.108
25124WAT     H175614   2.745   4.296   9.012
25124WAT     H275615   2.753   4.373   9.156
25125WAT      O75616   3.890   0.053   7.849
25125WAT     H175617   3.810   0.020   7.799
25125WAT     H275618   3.862   0.092   7.936
25126WAT      O75619   1.347   6.035   6.788
25126WAT     H175620   1.348   6.126   6.747
25126WAT     H275621   1.287   5.975   6.735
25127WAT      O75622   2.678   5.588   9.492
25127WAT     H175623   2.690   5.687   9.478
25127WAT     H275624   2.646   5.572   9.585
25128WAT      O75625   8.783   2.700   2.774
25128WAT     H175626   8.770   2.602   2.764
25128WAT     H275627   8.750   2.729   2.864
25129WAT      O75628   7.857   9.463   4.169
25129WAT     H175629   7.787   9.532   4.188
25129WAT     H275630   7.815   9.384   4.124
25130WAT      O75631   5.279   8.485   5.168
25130WAT     H175632   5.302   8.541   5.088
25130WAT     H275633   5.363   8.453   5.212
25131WAT      O75634   2.981   5.939   7.314
25131WAT     H175635   2.888   5.905   7.300
25131WAT     H275636   3.031   5.936   7.227
25132WAT      O75637   8.872   7.787   9.350
25132WAT     H175638   8.928   7.717   9.394
25132WAT     H275639   8.928   7.839   9.285
25133WAT      O75640   4.664   3.985   8.814
25133WAT     H175641   4.714   4.009   8.731
25133WAT     H275642   4.571   4.019   8.808
25134WAT      O75643   1.375   5.086   6.281
25134WAT     H175644   1.369   5.110   6.378
25134WAT     H275645   1.344   5.164   6.226
25135WAT      O75646   9.002   9.610   6.852
25135WAT     H175647   9.041   9.544   6.787
25135WAT     H275648   8.921   9.571   6.894
25136WAT      O75649   1.353   9.401   9.770
25136WAT     H175650   1.280   9.336   9.792
25136WAT     H275651   1.350   9.478   9.833
25137WAT      O75652   6.505   7.999   8.991
25137WAT     H175653   6.574   7.940   8.949
25137WAT     H275654   6.533   8.095   8.981
25138WAT      O75655   7.426   8.022   6.105
25138WAT     H175656   7.455   8.030   6.200
25138WAT     H275657   7.397   7.928   6.086
25139WAT      O75658   0.120   5.647   8.161
25139WAT     H175659   0.086   5.566   8.209
25139WAT     H275660   0.103   5.728   8.216
25140WAT      O75661   3.867   1.767   8.521
25140WAT     H175662   3.912   1.678   8.511
25140WAT     H275663   3.830   1.795   8.432
25141WAT      O75664   3.172   6.213   6.392
25141WAT     H175665   3.243   6.250   6.452
25141WAT     H275666   3.214   6.179   6.308
25142WAT      O75667   1.799   4.124   6.010
25142WAT     H175668   1.851   4.075   6.080
25142WAT     H275669   1.701   4.103   6.021
25143WAT      O75670   9.322   8.696   3.253
25143WAT     H175671   9.358   8.747   3.332
25143WAT     H275672   9.397   8.648   3.208
25144WAT      O75673   9.496   1.660   6.073
25144WAT     H175674   9.541   1.570   6.076
25144WAT     H275675   9.541   1.722   6.136
25145WAT      O75676   4.295   9.639   5.958
25145WAT     H175677   4.286   9.703   5.881
25145WAT     H275678   4.391   9.615   5.971
25146WAT      O75679   6.008   3.955   5.645
25146WAT     H175680   5.921   3.990   5.679
25146WAT     H275681   6.082   3.982   5.707
25147WAT      O75682   7.447   0.184   9.118
25147WAT     H175683   7.392   0.255   9.162
25147WAT     H275684   7.529   0.167   9.174
25148WAT      O75685   8.391   5.905   0.839
25148WAT     H175686   8.334   5.825   0.821
25148WAT     H275687   8.370   5.977   0.772
25149WAT      O75688   2.114   5.700   8.242
25149WAT     H175689   2.126   5.767   8.316
25149WAT     H275690   2.017   5.677   8.234
25150WAT      O75691   3.406   0.461   3.806
25150WAT     H175692   3.391   0.368   3.840
25150WAT     H275693   3.493   0.464   3.756
25151WAT      O75694   1.106   5.687   7.403
25151WAT     H175695   1.014   5.651   7.412
25151WAT     H275696   1.151   5.688   7.492
25152WAT      O75697   5.700   5.399   9.236
25152WAT     H175698   5.774   5.427   9.297
25152WAT     H275699   5.620   5.374   9.290
25153WAT      O75700   8.789   4.365   4.016
25153WAT     H175701   8.736   4.349   3.932
25153WAT     H275702   8.727   4.389   4.090
25154WAT      O75703   5.076   7.769   6.833
25154WAT     H175704   5.028   7.763   6.921
25154WAT     H275705   5.174   7.782   6.850
25155WAT      O75706   2.998   1.706   6.503
25155WAT     H175707   2.946   1.723   6.419
25155WAT     H275708   2.971   1.617   6.540
25156WAT      O75709   5.130   0.710   0.469
25156WAT     H175710   5.188   0.631   0.489
25156WAT     H275711   5.158   0.751   0.383
25157WAT      O75712   0.558   0.331   2.523
25157WAT     H175713   0.644   0.294   2.559
25157WAT     H275714   0.506   0.258   2.479
25158WAT      O75715   6.578   3.419   2.294
25158WAT     H175716   6.552   3.360   2.371
25158WAT     H275717   6.677   3.417   2.283
25159WAT      O75718   6.541   3.385   9.760
25159WAT     H175719   6.600   3.447   9.812
25159WAT     H275720   6.576   3.377   9.667
25160WAT      O75721   6.056   1.740   6.092
25160WAT     H175722   6.107   1.764   6.175
25160WAT     H275723   6.069   1.812   6.024
25161WAT      O75724   3.946   6.118   0.988
25161WAT     H175725   3.924   6.211   1.018
25161WAT     H275726   3.931   6.110   0.890
25162WAT      O75727   9.475   3.901   6.683
25162WAT     H175728   9.501   3.916   6.779
25162WAT     H275729   9.512   3.813   6.653
25163WAT      O75730   2.443   3.900   7.016
25163WAT     H175731   2.479   3.993   7.022
25163WAT     H275732   2.502   3.837   7.067
25164WAT      O75733   7.853   7.079   9.309
25164WAT     H175734   7.809   7.099   9.397
25164WAT     H275735   7.842   6.983   9.287
25165WAT      O75736   3.600   7.568   1.158
25165WAT     H175737   3.515   7.613   1.184
25165WAT     H275738   3.597   7.472   1.184
25166WAT      O75739   4.030   2.152   2.738
25166WAT     H175740   4.110   2.122   2.687
25166WAT     H275741   4.038   2.122   2.833
25167WAT      O75742   2.606   3.761   9.210
25167WAT     H175743   2.628   3.856   9.190
25167WAT     H275744   2.529   3.731   9.154
25168WAT      O75745   1.030   9.598   3.857
25168WAT     H175746   1.052   9.685   3.812
25168WAT     H275747   1.026   9.612   3.956
25169WAT      O75748   4.218   4.214   2.643
25169WAT     H175749   4.251   4.164   2.723
25169WAT     H275750   4.150   4.282   2.673
25170WAT      O75751   9.709   8.385   7.222
25170WAT     H175752   9.612   8.362   7.223
25170WAT     H275753   9.722   8.477   7.260
25171WAT      O75754   1.800   0.816   6.486
25171WAT     H175755   1.845   0.863   6.410
25171WAT     H275756   1.842   0.727   6.500
25172WAT      O75757   4.825   7.658   2.578
25172WAT     H175758   4.862   7.695   2.664
25172WAT     H275759   4.825   7.558   2.582
25173WAT      O75760   6.880   0.028   4.535
25173WAT     H175761   6.941  -0.045   4.564
25173WAT     H275762   6.829  -0.001   4.453
25174WAT      O75763   0.141   2.682   4.389
25174WAT     H175764   0.106   2.630   4.467
25174WAT     H275765   0.158   2.620   4.313
25175WAT      O75766   0.032   7.562   9.053
25175WAT     H175767  -0.054   7.591   9.096
25175WAT     H275768   0.012   7.494   8.982
25176WAT      O75769   0.277   8.000   2.332
25176WAT     H175770   0.196   8.057   2.345
25176WAT     H275771   0.352   8.035   2.387
25177WAT      O75772   0.710   9.161   1.597
25177WAT     H175773   0.754   9.071   1.598
25177WAT     H275774   0.646   9.167   1.673
25178WAT      O75775   3.052   5.478   2.054
25178WAT     H175776   2.968   5.532   2.042
25178WAT     H275777   3.064   5.456   2.150
25179WAT      O75778   2.201   2.985   2.638
25179WAT     H175779   2.246   2.945   2.717
25179WAT     H275780   2.254   3.063   2.605
25180WAT      O75781   6.937   5.586   0.644
25180WAT     H175782   6.927   5.498   0.690
25180WAT     H275783   7.031   5.618   0.653
25181WAT      O75784   9.886   4.262   4.806
25181WAT     H175785   9.841   4.341   4.764
25181WAT     H275786   9.966   4.294   4.858
25182WAT      O75787   6.115   7.995   0.886
25182WAT     H175788   6.075   7.905   0.904
25182WAT     H275789   6.187   8.013   0.952
25183WAT      O75790   6.177   6.517   0.865
25183WAT     H175791   6.213   6.605   0.895
25183WAT     H275792   6.240   6.475   0.800
25184WAT      O75793   2.435   5.966   1.301
25184WAT     H175794   2.526   5.932   1.327
25184WAT     H275795   2.419   6.055   1.345
25185WAT      O75796   3.111   1.780   8.325
25185WAT     H175797   3.160   1.865   8.303
25185WAT     H275798   3.079   1.784   8.419
25186WAT      O75799   6.585   6.258   8.627
25186WAT     H175800   6.648   6.193   8.670
25186WAT     H275801   6.549   6.219   8.543
25187WAT      O75802   6.676   3.937   9.501
25187WAT     H175803   6.667   4.023   9.451
25187WAT     H275804   6.587   3.892   9.505
25188WAT      O75805   9.430   5.686   5.433
25188WAT     H175806   9.407   5.593   5.404
25188WAT     H275807   9.512   5.717   5.384
25189WAT      O75808   2.721   4.713   9.018
25189WAT     H175809   2.776   4.646   8.969
25189WAT     H275810   2.760   4.804   9.006
25190WAT      O75811   7.906   5.158   9.779
25190WAT     H175812   7.890   5.065   9.812
25190WAT     H275813   7.828   5.215   9.805
25191WAT      O75814   6.317   7.672   8.371
25191WAT     H175815   6.232   7.708   8.410
25191WAT     H275816   6.392   7.734   8.393
25192WAT      O75817   0.337   8.748   5.264
25192WAT     H175818   0.328   8.833   5.212
25192WAT     H275819   0.431   8.715   5.259
25193WAT      O75820   3.178   5.202   5.701
25193WAT     H175821   3.236   5.260   5.758
25193WAT     H275822   3.236   5.140   5.647
25194WAT      O75823   5.136   8.484   0.189
25194WAT     H175824   5.152   8.482   0.288
25194WAT     H275825   5.060   8.545   0.168
25195WAT      O75826   7.137   7.353   6.548
25195WAT     H175827   7.213   7.414   6.526
25195WAT     H275828   7.101   7.376   6.638
25196WAT      O75829   4.106   3.911   3.745
25196WAT     H175830   4.130   3.966   3.825
25196WAT     H275831   4.152   3.948   3.665
25197WAT      O75832   9.166   2.006   6.691
25197WAT     H175833   9.262   2.003   6.719
25197WAT     H275834   9.119   2.078   6.743
25198WAT      O75835   1.029   4.548   5.660
25198WAT     H175836   0.968   4.623   5.631
25198WAT     H275837   1.071   4.506   5.579
25199WAT      O75838   9.091   1.414   8.231
25199WAT     H175839   9.043   1.328   8.216
25199WAT     H275840   9.040   1.469   8.297
25200WAT      O75841   8.911   4.345   9.142
25200WAT     H175842   8.849   4.408   9.187
25200WAT     H275843   8.878   4.324   9.050
25201WAT      O75844   7.564   1.109   6.414
25201WAT     H175845   7.536   1.159   6.496
25201WAT     H275846   7.663   1.112   6.406
25202WAT      O75847   8.107   6.562   6.601
25202WAT     H175848   8.049   6.552   6.682
25202WAT     H275849   8.193   6.607   6.627
25203WAT      O75850   1.491   6.817   7.850
25203WAT     H175851   1.559   6.774   7.910
25203WAT     H275852   1.417   6.854   7.905
25204WAT      O75853   7.694   6.193   5.202
25204WAT     H175854   7.742   6.110   5.173
25204WAT     H275855   7.654   6.238   5.122
25205WAT      O75856   1.973   7.158   6.044
25205WAT     H175857   2.057   7.211   6.053
25205WAT     H275858   1.904   7.192   6.108
25206WAT      O75859   8.416   3.078   3.124
25206WAT     H175860   8.430   3.106   3.218
25206WAT     H275861   8.496   3.103   3.069
25207WAT      O75862   0.645   4.191   1.848
25207WAT     H175863   0.736   4.205   1.809
25207WAT     H275864   0.604   4.280   1.868
25208WAT      O75865   7.404   7.736   1.509
25208WAT     H175866   7.466   7.667   1.548
25208WAT     H275867   7.339   7.766   1.579
25209WAT      O75868   4.716   9.241   9.376
25209WAT     H175869   4.666   9.228   9.462
25209WAT     H275870   4.786   9.311   9.388
25210WAT      O75871   3.297   0.267   5.915
25210WAT     H175872   3.309   0.298   5.821
25210WAT     H275873   3.230   0.192   5.917
25211WAT      O75874   7.523   9.140   4.169
25211WAT     H175875   7.595   9.094   4.222
25211WAT     H275876   7.468   9.071   4.122
25212WAT      O75877   6.751   2.843   7.796
25212WAT     H175878   6.837   2.850   7.846
25212WAT     H275879   6.710   2.754   7.813
25213WAT      O75880   6.283   3.544   1.656
25213WAT     H175881   6.257   3.505   1.568
25213WAT     H275882   6.239   3.633   1.668
25214WAT      O75883   6.620   6.824   0.892
25214WAT     H175884   6.671   6.841   0.976
25214WAT     H275885   6.625   6.905   0.834
25215WAT      O75886   4.002   2.755   1.428
25215WAT     H175887   4.021   2.736   1.332
25215WAT     H275888   3.911   2.796   1.438
25216WAT      O75889   8.688   7.546   3.100
25216WAT     H175890   8.691   7.446   3.101
25216WAT     H275891   8.767   7.582   3.050
25217WAT      O75892   4.253   1.986   6.022
25217WAT     H175893   4.329   2.034   6.066
25217WAT     H275894   4.223   1.910   6.081
25218WAT      O75895   2.896   6.573   7.621
25218WAT     H175896   2.992   6.547   7.613
25218WAT     H275897   2.838   6.498   7.591
25219WAT      O75898   6.205   5.756   0.532
25219WAT     H175899   6.147   5.827   0.571
25219WAT     H275900   6.244   5.788   0.446
25220WAT      O75901   3.440   8.806   1.269
25220WAT     H175902   3.362   8.830   1.211
25220WAT     H275903   3.525   8.834   1.223
25221WAT      O75904   5.939   9.209   3.956
25221WAT     H175905   5.977   9.135   4.011
25221WAT     H275906   5.940   9.184   3.860
25222WAT      O75907   7.225   3.906   2.717
25222WAT     H175908   7.125   3.911   2.720
25222WAT     H275909   7.253   3.846   2.641
25223WAT      O75910   7.439   2.629   0.877
25223WAT     H175911   7.520   2.629   0.818
25223WAT     H275912   7.394   2.539   0.872
25224WAT      O75913   6.753   4.500   5.365
25224WAT     H175914   6.767   4.562   5.288
25224WAT     H275915   6.656   4.472   5.368
25225WAT      O75916   6.806   5.540   1.895
25225WAT     H175917   6.874   5.572   1.960
25225WAT     H275918   6.720   5.521   1.942
25226WAT      O75919   5.319   9.542   3.288
25226WAT     H175920   5.417   9.526   3.273
25226WAT     H275921   5.291   9.494   3.372
25227WAT      O75922   4.620   0.688   9.385
25227WAT     H175923   4.644   0.658   9.292
25227WAT     H275924   4.652   0.620   9.451
25228WAT      O75925   9.068   4.197   8.341
25228WAT     H175926   9.148   4.144   8.312
25228WAT     H275927   9.039   4.257   8.267
25229WAT      O75928   6.915   9.521   8.012
25229WAT     H175929   6.853   9.598   8.006
25229WAT     H275930   7.010   9.553   8.007
25230WAT      O75931   0.301   0.203   4.178
25230WAT     H175932   0.218   0.182   4.231
25230WAT     H275933   0.378   0.216   4.241
25231WAT      O75934   8.850   1.818   3.810
25231WAT     H175935   8.779   1.887   3.824
25231WAT     H275936   8.857   1.797   3.713
25232WAT      O75937   9.830   5.964   9.489
25232WAT     H175938   9.791   5.889   9.544
25232WAT     H275939   9.818   6.050   9.538
25233WAT      O75940   9.575   5.608   8.116
25233WAT     H175941   9.521   5.600   8.033
25233WAT     H275942   9.550   5.692   8.164
25234WAT      O75943   4.511   1.964   8.730
25234WAT     H175944   4.504   2.057   8.694
25234WAT     H275945   4.436   1.946   8.793
25235WAT      O75946   1.765   2.294   9.785
25235WAT     H175947   1.822   2.231   9.732
25235WAT     H275948   1.774   2.387   9.748
25236WAT      O75949   9.352   7.239   5.543
25236WAT     H175950   9.442   7.224   5.585
25236WAT     H275951   9.327   7.335   5.551
25237WAT      O75952   4.774   0.916   2.826
25237WAT     H175953   4.801   1.012   2.834
25237WAT     H275954   4.715   0.905   2.746
25238WAT      O75955   7.044   9.362   3.336
25238WAT     H175956   7.094   9.432   3.285
25238WAT     H275957   6.947   9.366   3.311
25239WAT      O75958   9.400   8.262   6.143
25239WAT     H175959   9.499   8.250   6.140
25239WAT     H275960   9.362   8.209   6.219
25240WAT      O75961   6.748   8.271   7.746
25240WAT     H175962   6.678   8.319   7.693
25240WAT     H275963   6.838   8.294   7.710
25241WAT      O75964   6.955   5.410   3.783
25241WAT     H175965   7.022   5.420   3.710
25241WAT     H275966   6.976   5.475   3.857
25242WAT      O75967   4.463   0.979   3.119
25242WAT     H175968   4.449   0.941   3.027
25242WAT     H275969   4.375   1.002   3.160
25243WAT      O75970   1.602   4.920   9.164
25243WAT     H175971   1.677   4.884   9.220
25243WAT     H275972   1.636   4.994   9.106
25244WAT      O75973   9.854   0.556   7.471
25244WAT     H175974   9.781   0.488   7.478
25244WAT     H275975   9.881   0.586   7.563
25245WAT      O75976   2.918   5.735   6.193
25245WAT     H175977   2.954   5.823   6.163
25245WAT     H275978   2.994   5.677   6.224
25246WAT      O75979   1.383   5.814   3.603
25246WAT     H175980   1.448   5.755   3.651
25246WAT     H275981   1.291   5.795   3.636
25247WAT      O75982   4.031   7.491   1.288
25247WAT     H175983   3.953   7.428   1.295
25247WAT     H275984   4.101   7.465   1.355
25248WAT      O75985   3.450   8.380   7.148
25248WAT     H175986   3.504   8.449   7.100
25248WAT     H275987   3.510   8.305   7.177
25249WAT      O75988   0.287   0.499   2.357
25249WAT     H175989   0.327   0.550   2.281
25249WAT     H275990   0.354   0.492   2.431
25250WAT      O75991   7.339   4.942   5.510
25250WAT     H175992   7.293   4.883   5.577
25250WAT     H275993   7.348   4.894   5.423
25251WAT      O75994   6.460   0.675   9.324
25251WAT     H175995   6.378   0.627   9.292
25251WAT     H275996   6.541   0.631   9.285
25252WAT      O75997   4.452   2.423   0.211
25252WAT     H175998   4.428   2.341   0.160
25252WAT     H275999   4.551   2.426   0.224
25253WAT      O76000   3.986   2.611   7.094
25253WAT     H176001   3.962   2.707   7.106
25253WAT     H276002   3.922   2.568   7.031
25254WAT      O76003   2.228   1.091   4.150
25254WAT     H176004   2.239   1.187   4.176
25254WAT     H276005   2.176   1.044   4.221
25255WAT      O76006   9.121   9.137   6.652
25255WAT     H176007   9.031   9.111   6.616
25255WAT     H276008   9.159   9.061   6.704
25256WAT      O76009   1.380   8.878   6.955
25256WAT     H176010   1.452   8.819   6.991
25256WAT     H276011   1.421   8.948   6.896
25257WAT      O76012   0.439   3.215   7.153
25257WAT     H176013   0.399   3.123   7.152
25257WAT     H276014   0.409   3.263   7.236
25258WAT      O76015   6.525   1.041   3.069
25258WAT     H176016   6.566   1.025   3.159
25258WAT     H276017   6.529   1.139   3.048
25259WAT      O76018   3.089   5.765   5.351
25259WAT     H176019   3.187   5.744   5.356
25259WAT     H276020   3.077   5.863   5.332
25260WAT      O76021   6.474   9.164   1.265
25260WAT     H176022   6.431   9.074   1.274
25260WAT     H276023   6.491   9.183   1.168
25261WAT      O76024   6.104   7.883   6.803
25261WAT     H176025   6.037   7.862   6.874
25261WAT     H276026   6.121   7.802   6.748
25262WAT      O76027   8.600   2.672   5.433
25262WAT     H176028   8.531   2.745   5.433
25262WAT     H276029   8.637   2.661   5.525
25263WAT      O76030   5.368   1.830   7.566
25263WAT     H176031   5.398   1.749   7.617
25263WAT     H276032   5.368   1.810   7.468
25264WAT      O76033   9.614   8.863   3.024
25264WAT     H176034   9.626   8.764   3.025
25264WAT     H276035   9.663   8.903   3.102
25265WAT      O76036   6.264   7.606   7.401
25265WAT     H176037   6.273   7.706   7.398
25265WAT     H276038   6.335   7.568   7.459
25266WAT      O76039   8.664   5.955   4.650
25266WAT     H176040   8.759   5.966   4.622
25266WAT     H276041   8.656   5.875   4.709
25267WAT      O76042   9.517   6.264   9.668
25267WAT     H176043   9.481   6.267   9.575
25267WAT     H276044   9.477   6.339   9.721
25268WAT      O76045   0.111   1.220   3.003
25268WAT     H176046   0.083   1.124   3.002
25268WAT     H276047   0.197   1.230   2.953
25269WAT      O76048   2.726   1.689   0.804
25269WAT     H176049   2.817   1.707   0.841
25269WAT     H276050   2.688   1.773   0.766
25270WAT      O76051   7.554   1.040   9.055
25270WAT     H176052   7.468   1.087   9.074
25270WAT     H276053   7.557   1.014   8.959
25271WAT      O76054   3.063   3.650   4.517
25271WAT     H176055   3.067   3.640   4.417
25271WAT     H276056   3.151   3.684   4.550
25272WAT      O76057   9.249   3.686   9.795
25272WAT     H176058   9.150   3.700   9.802
25272WAT     H276059   9.294   3.728   9.874
25273WAT      O76060   3.969   7.264   1.763
25273WAT     H176061   3.887   7.307   1.799
25273WAT     H276062   4.024   7.332   1.714
25274WAT      O76063   3.169   3.221   3.275
25274WAT     H176064   3.240   3.280   3.316
25274WAT     H276065   3.192   3.203   3.180
25275WAT      O76066   0.681   4.936   7.206
25275WAT     H176067   0.630   5.011   7.247
25275WAT     H276068   0.689   4.861   7.272
25276WAT      O76069   0.084   3.921   9.702
25276WAT     H176070   0.080   3.997   9.766
25276WAT     H276071  -0.007   3.879   9.694
25277WAT      O76072   5.203   6.040   8.771
25277WAT     H176073   5.128   5.980   8.799
25277WAT     H276074   5.285   6.017   8.825
25278WAT      O76075   3.955   8.846   7.254
25278WAT     H176076   4.002   8.835   7.342
25278WAT     H276077   3.997   8.786   7.186
25279WAT      O76078   1.171   9.789   4.660
25279WAT     H176079   1.115   9.871   4.675
25279WAT     H276080   1.149   9.750   4.570
25280WAT      O76081   4.248   0.633   4.223
25280WAT     H176082   4.324   0.696   4.203
25280WAT     H276083   4.166   0.686   4.243
25281WAT      O76084   7.844   8.980   8.771
25281WAT     H176085   7.750   8.948   8.781
25281WAT     H276086   7.853   9.036   8.690
25282WAT      O76087   3.771   2.246   3.210
25282WAT     H176088   3.844   2.301   3.251
25282WAT     H276089   3.742   2.176   3.275
25283WAT      O76090   8.976   6.903   6.103
25283WAT     H176091   8.918   6.854   6.039
25283WAT     H276092   9.023   6.978   6.056
25284WAT      O76093   5.920   0.007   3.451
25284WAT     H176094   5.850   0.062   3.497
25284WAT     H276095   5.888  -0.018   3.360
25285WAT      O76096   2.898   9.819   4.971
25285WAT     H176097   2.943   9.828   4.882
25285WAT     H276098   2.800   9.803   4.956
25286WAT      O76099   6.392   1.029   0.277
25286WAT     H176100   6.453   1.092   0.325
25286WAT     H276101   6.426   1.013   0.184
25287WAT      O76102   5.392   7.527   5.402
25287WAT     H176103   5.480   7.499   5.440
25287WAT     H276104   5.320   7.465   5.435
25288WAT      O76105   4.691   1.750   8.440
25288WAT     H176106   4.592   1.762   8.451
25288WAT     H276107   4.708   1.673   8.379
25289WAT      O76108   8.719   5.622   6.887
25289WAT     H176109   8.796   5.590   6.943
25289WAT     H276110   8.634   5.607   6.937
25290WAT      O76111   3.131   9.609   4.912
25290WAT     H176112   3.221   9.567   4.927
25290WAT     H276113   3.117   9.682   4.978
25291WAT      O76114   1.940   5.453   7.984
25291WAT     H176115   1.878   5.378   7.958
25291WAT     H276116   2.031   5.415   8.001
25292WAT      O76117   7.165   9.320   9.707
25292WAT     H176118   7.091   9.259   9.736
25292WAT     H276119   7.224   9.339   9.785
25293WAT      O76120   4.475   7.685   8.779
25293WAT     H176121   4.548   7.754   8.783
25293WAT     H276122   4.403   7.716   8.717
25294WAT      O76123   2.105   7.320   7.561
25294WAT     H176124   2.012   7.288   7.542
25294WAT     H276125   2.117   7.411   7.521
25295WAT      O76126   7.171   8.328   4.343
25295WAT     H176127   7.222   8.349   4.427
25295WAT     H276128   7.219   8.257   4.291
25296WAT      O76129   3.906   1.032   4.879
25296WAT     H176130   3.816   0.990   4.881
25296WAT     H276131   3.962   0.996   4.954
25297WAT      O76132   4.817   3.892   5.074
25297WAT     H176133   4.825   3.874   5.172
25297WAT     H276134   4.725   3.867   5.044
25298WAT      O76135   2.554   0.219   7.351
25298WAT     H176136   2.556   0.318   7.334
25298WAT     H276137   2.498   0.201   7.432
25299WAT      O76138   2.977   6.790   0.352
25299WAT     H176139   2.938   6.808   0.262
25299WAT     H276140   3.076   6.796   0.348
25300WAT      O76141   6.145   1.144   0.971
25300WAT     H176142   6.158   1.045   0.983
25300WAT     H276143   6.108   1.183   1.055
25301WAT      O76144   4.067   6.281   6.972
25301WAT     H176145   3.981   6.278   7.022
25301WAT     H276146   4.100   6.376   6.968
25302WAT      O76147   1.535   8.566   3.299
25302WAT     H176148   1.460   8.559   3.233
25302WAT     H276149   1.558   8.662   3.313
25303WAT      O76150   2.782   2.025   0.492
25303WAT     H176151   2.732   2.019   0.406
25303WAT     H276152   2.792   2.122   0.518
25304WAT      O76153   8.632   0.586   4.748
25304WAT     H176154   8.546   0.638   4.745
25304WAT     H276155   8.706   0.644   4.715
25305WAT      O76156   2.118   8.930   9.622
25305WAT     H176157   2.210   8.894   9.639
25305WAT     H276158   2.089   8.904   9.529
25306WAT      O76159   4.846   3.974   7.672
25306WAT     H176160   4.829   3.881   7.639
25306WAT     H276161   4.762   4.012   7.709
25307WAT      O76162   1.242   6.813   0.470
25307WAT     H176163   1.150   6.850   0.481
25307WAT     H276164   1.255   6.736   0.534
25308WAT      O76165   6.124   5.930   4.362
25308WAT     H176166   6.119   6.006   4.426
25308WAT     H276167   6.052   5.940   4.293
25309WAT      O76168   5.871   6.220   9.111
25309WAT     H176169   5.788   6.231   9.166
25309WAT     H276170   5.913   6.132   9.132
25310WAT      O76171   0.614   9.723   2.096
25310WAT     H176172   0.641   9.637   2.140
25310WAT     H276173   0.672   9.738   2.016
25311WAT      O76174   0.951   9.681   5.953
25311WAT     H176175   0.913   9.589   5.960
25311WAT     H276176   0.898   9.744   6.010
25312WAT      O76177   2.724   1.590   3.742
25312WAT     H176178   2.753   1.495   3.759
25312WAT     H276179   2.646   1.611   3.800
25313WAT      O76180   1.643   0.973   6.845
25313WAT     H176181   1.576   1.040   6.813
25313WAT     H276182   1.675   0.918   6.767
25314WAT      O76183   6.189   4.406   7.157
25314WAT     H176184   6.126   4.331   7.136
25314WAT     H276185   6.210   4.456   7.073
25315WAT      O76186   9.418   0.107   6.144
25315WAT     H176187   9.416   0.200   6.180
25315WAT     H276188   9.327   0.067   6.149
25316WAT      O76189   4.566   2.806   9.526
25316WAT     H176190   4.665   2.814   9.542
25316WAT     H276191   4.540   2.864   9.449
25317WAT      O76192   8.818   2.783   9.623
25317WAT     H176193   8.734   2.816   9.579
25317WAT     H276194   8.897   2.809   9.569
25318WAT      O76195   6.993   7.410   1.356
25318WAT     H176196   6.986   7.474   1.280
25318WAT     H276197   7.046   7.330   1.327
25319WAT      O76198   7.051   9.100   3.982
25319WAT     H176199   6.954   9.104   4.007
25319WAT     H276200   7.103   9.057   4.055
25320WAT      O76201   8.906   7.302   5.717
25320WAT     H176202   8.860   7.267   5.799
25320WAT     H276203   8.990   7.350   5.744
25321WAT      O76204   7.034   6.909   6.112
25321WAT     H176205   7.004   6.839   6.048
25321WAT     H276206   7.065   6.866   6.197
25322WAT      O76207   6.843   7.847   6.167
25322WAT     H176208   6.864   7.915   6.238
25322WAT     H276209   6.803   7.766   6.210
25323WAT      O76210   5.998   0.940   2.291
25323WAT     H176211   6.037   0.849   2.277
25323WAT     H276212   5.905   0.942   2.255
25324WAT      O76213   4.834   4.576   5.578
25324WAT     H176214   4.870   4.515   5.649
25324WAT     H276215   4.899   4.650   5.563
25325WAT      O76216   8.385   2.540   3.328
25325WAT     H176217   8.432   2.512   3.412
25325WAT     H276218   8.418   2.629   3.299
25326WAT      O76219   8.119   4.124   2.411
25326WAT     H176220   8.195   4.119   2.346
25326WAT     H276221   8.056   4.048   2.394
25327WAT      O76222   6.689   1.066   8.722
25327WAT     H176223   6.664   1.067   8.625
25327WAT     H276224   6.638   0.994   8.769
25328WAT      O76225   7.170   0.787   2.510
25328WAT     H176226   7.194   0.738   2.594
25328WAT     H276227   7.127   0.874   2.533
25329WAT      O76228   3.225   4.379   0.992
25329WAT     H176229   3.128   4.403   1.000
25329WAT     H276230   3.263   4.367   1.084
25330WAT      O76231   5.881   5.916   4.535
25330WAT     H176232   5.830   6.000   4.516
25330WAT     H276233   5.974   5.939   4.563
25331WAT      O76234   9.041   9.207   4.224
25331WAT     H176235   9.102   9.142   4.178
25331WAT     H276236   8.969   9.236   4.160
25332WAT      O76237   9.329   8.533   4.821
25332WAT     H176238   9.302   8.492   4.908
25332WAT     H276239   9.426   8.517   4.805
25333WAT      O76240   6.510   0.731   5.261
25333WAT     H176241   6.561   0.760   5.180
25333WAT     H276242   6.552   0.649   5.300
25334WAT      O76243   0.496   3.778   1.032
25334WAT     H176244   0.432   3.846   0.996
25334WAT     H276245   0.452   3.726   1.105
25335WAT      O76246   5.988   4.810   1.765
25335WAT     H176247   5.973   4.804   1.864
25335WAT     H276248   6.063   4.875   1.746
25336WAT      O76249   4.002   5.416   2.520
25336WAT     H176250   3.931   5.402   2.589
25336WAT     H276251   3.963   5.400   2.429
25337WAT      O76252   2.208   3.159   3.795
25337WAT     H176253   2.244   3.163   3.701
25337WAT     H276254   2.175   3.067   3.813
25338WAT      O76255   2.616   7.211   6.693
25338WAT     H176256   2.649   7.286   6.752
25338WAT     H276257   2.519   7.223   6.676
25339WAT      O76258   1.804   0.009   6.325
25339WAT     H176259   1.775   0.096   6.365
25339WAT     H276260   1.765  -0.001   6.234
25340WAT      O76261   7.024   8.972   8.395
25340WAT     H176262   7.046   9.070   8.390
25340WAT     H276263   6.950   8.959   8.460
25341WAT      O76264   4.798   3.729   8.907
25341WAT     H176265   4.874   3.764   8.961
25341WAT     H276266   4.735   3.805   8.886
25342WAT      O76267   9.232   0.436   2.011
25342WAT     H176268   9.229   0.535   2.005
25342WAT     H276269   9.311   0.402   1.960
25343WAT      O76270   3.460   8.758   7.273
25343WAT     H176271   3.481   8.676   7.327
25343WAT     H276272   3.544   8.794   7.233
25344WAT      O76273   9.207   5.891   8.166
25344WAT     H176274   9.193   5.980   8.209
25344WAT     H276275   9.211   5.820   8.236
25345WAT      O76276   4.828   1.310   7.202
25345WAT     H176277   4.891   1.343   7.273
25345WAT     H276278   4.827   1.210   7.203
25346WAT      O76279   6.731   3.244   3.451
25346WAT     H176280   6.771   3.335   3.435
25346WAT     H276281   6.680   3.216   3.370
25347WAT      O76282   2.073   1.654   9.609
25347WAT     H176283   2.105   1.726   9.670
25347WAT     H276284   2.023   1.585   9.662
25348WAT      O76285   2.314   1.594   3.449
25348WAT     H176286   2.250   1.668   3.470
25348WAT     H276287   2.407   1.624   3.468
25349WAT      O76288   7.674   6.952   3.671
25349WAT     H176289   7.592   6.909   3.633
25349WAT     H276290   7.663   7.051   3.671
25350WAT      O76291   9.332   9.639   1.400
25350WAT     H176292   9.361   9.735   1.396
25350WAT     H276293   9.252   9.627   1.341
25351WAT      O76294   9.648   4.369   6.787
25351WAT     H176295   9.680   4.394   6.696
25351WAT     H276296   9.704   4.415   6.856
25352WAT      O76297   2.575   8.675   0.234
25352WAT     H176298   2.521   8.671   0.150
25352WAT     H276299   2.670   8.698   0.213
25353WAT      O76300   3.300   2.318   3.092
25353WAT     H176301   3.329   2.263   3.014
25353WAT     H276302   3.360   2.300   3.170
25354WAT      O76303   2.350   7.544   5.075
25354WAT     H176304   2.441   7.544   5.034
25354WAT     H276305   2.349   7.482   5.154
25355WAT      O76306   2.667   2.687   7.560
25355WAT     H176307   2.763   2.709   7.572
25355WAT     H276308   2.611   2.767   7.584
25356WAT      O76309   9.108   8.462   5.245
25356WAT     H176310   9.102   8.536   5.312
25356WAT     H276311   9.048   8.387   5.273
25357WAT      O76312   7.120   8.523   4.172
25357WAT     H176313   7.140   8.454   4.241
25357WAT     H276314   7.096   8.479   4.085
25358WAT      O76315   4.884   4.745   6.711
25358WAT     H176316   4.930   4.730   6.624
25358WAT     H276317   4.892   4.663   6.768
25359WAT      O76318   2.825   1.723   6.288
25359WAT     H176319   2.788   1.632   6.304
25359WAT     H276320   2.854   1.731   6.192
25360WAT      O76321   9.057   8.767   2.274
25360WAT     H176322   9.046   8.685   2.217
25360WAT     H276323   8.968   8.812   2.285
25361WAT      O76324   4.831   9.204   6.674
25361WAT     H176325   4.855   9.108   6.663
25361WAT     H276326   4.739   9.211   6.713
25362WAT      O76327   6.433   7.642   5.525
25362WAT     H176328   6.528   7.616   5.540
25362WAT     H276329   6.376   7.560   5.517
25363WAT      O76330   7.464   4.489   6.404
25363WAT     H176331   7.386   4.466   6.463
25363WAT     H276332   7.546   4.444   6.438
25364WAT      O76333   7.093   2.825   1.416
25364WAT     H176334   7.137   2.800   1.502
25364WAT     H276335   7.111   2.922   1.397
25365WAT      O76336   6.009   4.533   9.229
25365WAT     H176337   5.941   4.506   9.160
25365WAT     H276338   5.976   4.613   9.278
25366WAT      O76339   3.125   3.984   3.197
25366WAT     H176340   3.045   4.033   3.165
25366WAT     H276341   3.208   4.036   3.174
25367WAT      O76342   2.008   3.583   0.369
25367WAT     H176343   2.042   3.546   0.456
25367WAT     H276344   1.913   3.554   0.355
25368WAT      O76345   7.753   3.988   4.015
25368WAT     H176346   7.771   4.081   4.045
25368WAT     H276347   7.799   3.972   3.927
25369WAT      O76348   2.915   5.850   9.054
25369WAT     H176349   2.932   5.833   9.151
25369WAT     H276350   3.002   5.863   9.006
25370WAT      O76351   3.471   3.667   1.339
25370WAT     H176352   3.382   3.686   1.297
25370WAT     H276353   3.543   3.687   1.273
25371WAT      O76354   5.379   0.320   9.153
25371WAT     H176355   5.310   0.389   9.176
25371WAT     H276356   5.333   0.240   9.114
25372WAT      O76357   8.781   6.099   9.092
25372WAT     H176358   8.732   6.183   9.068
25372WAT     H276359   8.874   6.122   9.122
25373WAT      O76360   9.568   1.913   7.431
25373WAT     H176361   9.608   1.857   7.504
25373WAT     H276362   9.552   2.006   7.465
25374WAT      O76363   3.587   5.022   5.617
25374WAT     H176364   3.547   4.940   5.575
25374WAT     H276365   3.580   5.014   5.717
25375WAT      O76366   6.619   0.133   6.306
25375WAT     H176367   6.592   0.061   6.241
25375WAT     H276368   6.707   0.109   6.347
25376WAT      O76369   8.442   1.622   7.962
25376WAT     H176370   8.503   1.544   7.951
25376WAT     H276371   8.470   1.676   8.042
25377WAT      O76372   4.466   6.889   7.272
25377WAT     H176373   4.521   6.806   7.279
25377WAT     H276374   4.372   6.866   7.249
25378WAT      O76375   7.494   2.877   8.942
25378WAT     H176376   7.421   2.934   8.904
25378WAT     H276377   7.479   2.865   9.040
25379WAT      O76378   1.134   5.173   8.659
25379WAT     H176379   1.123   5.260   8.707
25379WAT     H276380   1.185   5.109   8.716
25380WAT      O76381   7.798   1.965   7.733
25380WAT     H176382   7.891   1.934   7.717
25380WAT     H276383   7.794   2.014   7.820
25381WAT      O76384   0.809   8.040   4.294
25381WAT     H176385   0.822   7.942   4.278
25381WAT     H276386   0.750   8.077   4.221
25382WAT      O76387   8.845   6.887   1.716
25382WAT     H176388   8.929   6.939   1.707
25382WAT     H276389   8.800   6.910   1.803
25383WAT      O76390   5.516   7.377   6.250
25383WAT     H176391   5.473   7.462   6.221
25383WAT     H276392   5.445   7.308   6.269
25384WAT      O76393   1.923   2.757   5.849
25384WAT     H176394   1.844   2.707   5.883
25384WAT     H276395   2.004   2.699   5.854
25385WAT      O76396   7.205   1.439   1.649
25385WAT     H176397   7.121   1.477   1.689
25385WAT     H276398   7.226   1.352   1.692
25386WAT      O76399   3.914   5.283   0.312
25386WAT     H176400   3.982   5.227   0.360
25386WAT     H276401   3.891   5.362   0.369
25387WAT      O76402   9.125   0.558   6.011
25387WAT     H176403   9.167   0.609   6.087
25387WAT     H276404   9.092   0.622   5.942
25388WAT      O76405   3.970   5.752   8.649
25388WAT     H176406   3.949   5.729   8.744
25388WAT     H276407   3.888   5.785   8.603
25389WAT      O76408   0.361   3.780   7.015
25389WAT     H176409   0.265   3.766   7.039
25389WAT     H276410   0.389   3.710   6.948
25390WAT      O76411   1.514   2.367   0.581
25390WAT     H176412   1.522   2.463   0.607
25390WAT     H276413   1.433   2.354   0.523
25391WAT      O76414   9.597   6.177   2.054
25391WAT     H176415   9.690   6.153   2.083
25391WAT     H276416   9.597   6.268   2.015
25392WAT      O76417   0.899   2.691   9.253
25392WAT     H176418   0.975   2.754   9.265
25392WAT     H276419   0.847   2.716   9.171
25393WAT      O76420   0.929   1.680   4.336
25393WAT     H176421   0.874   1.618   4.392
25393WAT     H276422   0.870   1.749   4.294
25394WAT      O76423   0.138   5.433   8.681
25394WAT     H176424   0.079   5.510   8.656
25394WAT     H276425   0.167   5.444   8.776
25395WAT      O76426   7.833   3.525   1.358
25395WAT     H176427   7.737   3.534   1.332
25395WAT     H276428   7.863   3.430   1.346
25396WAT      O76429   7.065   0.758   3.155
25396WAT     H176430   7.113   0.670   3.164
25396WAT     H276431   7.110   0.813   3.084
25397WAT      O76432   0.631   5.888   3.613
25397WAT     H176433   0.546   5.854   3.573
25397WAT     H276434   0.671   5.817   3.670
25398WAT      O76435   2.835   0.623   8.443
25398WAT     H176436   2.851   0.696   8.510
25398WAT     H276437   2.756   0.569   8.471
25399WAT      O76438   7.037   5.537   5.090
25399WAT     H176439   7.027   5.466   5.021
25399WAT     H276440   6.978   5.615   5.066
25400WAT      O76441   2.263   8.048   1.405
25400WAT     H176442   2.313   8.134   1.413
25400WAT     H276443   2.299   7.982   1.472
25401WAT      O76444   7.101   1.748   0.435
25401WAT     H176445   7.199   1.739   0.452
25401WAT     H276446   7.059   1.804   0.507
25402WAT      O76447   3.164   8.144   7.185
25402WAT     H176448   3.234   8.130   7.255
25402WAT     H276449   3.168   8.068   7.119
25403WAT      O76450   3.696   6.669   0.292
25403WAT     H176451   3.617   6.650   0.350
25403WAT     H276452   3.719   6.766   0.298
25404WAT      O76453   7.515   7.602   3.811
25404WAT     H176454   7.466   7.514   3.807
25404WAT     H276455   7.591   7.601   3.747
25405WAT      O76456   4.505   2.454   8.796
25405WAT     H176457   4.496   2.461   8.896
25405WAT     H276458   4.602   2.450   8.772
25406WAT      O76459   3.874   4.591   8.581
25406WAT     H176460   3.848   4.500   8.550
25406WAT     H276461   3.913   4.586   8.672
25407WAT      O76462   5.467   1.528   3.070
25407WAT     H176463   5.536   1.510   3.140
25407WAT     H276464   5.499   1.490   2.983
25408WAT      O76465   8.899   5.970   1.166
25408WAT     H176466   8.939   5.890   1.210
25408WAT     H276467   8.846   5.941   1.086
25409WAT      O76468   9.005   4.618   9.550
25409WAT     H176469   9.016   4.538   9.491
25409WAT     H276470   8.908   4.644   9.554
25410WAT      O76471   0.251   8.015   6.177
25410WAT     H176472   0.308   7.941   6.212
25410WAT     H276473   0.271   8.099   6.227
25411WAT      O76474   2.550   2.659   3.034
25411WAT     H176475   2.450   2.655   3.031
25411WAT     H276476   2.583   2.731   2.973
25412WAT      O76477   6.886   8.938   2.536
25412WAT     H176478   6.838   9.005   2.593
25412WAT     H276479   6.984   8.946   2.550
25413WAT      O76480   6.307   8.535   3.270
25413WAT     H176481   6.293   8.631   3.246
25413WAT     H276482   6.404   8.513   3.263
25414WAT      O76483   0.838   5.425   5.839
25414WAT     H176484   0.790   5.338   5.834
25414WAT     H276485   0.775   5.496   5.872
25415WAT      O76486   2.583   1.611   3.516
25415WAT     H176487   2.641   1.597   3.596
25415WAT     H276488   2.635   1.593   3.433
25416WAT      O76489   1.405   3.329   1.651
25416WAT     H176490   1.464   3.305   1.728
25416WAT     H276491   1.433   3.418   1.615
25417WAT      O76492   8.349   1.358   5.521
25417WAT     H176493   8.252   1.366   5.496
25417WAT     H276494   8.399   1.437   5.483
25418WAT      O76495   2.493   8.307   5.397
25418WAT     H176496   2.570   8.337   5.340
25418WAT     H276497   2.507   8.336   5.491
25419WAT      O76498   0.099   4.210   5.936
25419WAT     H176499   0.011   4.210   5.985
25419WAT     H276500   0.102   4.288   5.874
25420WAT      O76501   3.465   4.229   8.861
25420WAT     H176502   3.411   4.149   8.885
25420WAT     H276503   3.562   4.206   8.864
25421WAT      O76504   0.007   7.625   2.588
25421WAT     H176505   0.041   7.685   2.516
25421WAT     H276506   0.060   7.540   2.588
25422WAT      O76507   1.737   5.167   4.613
25422WAT     H176508   1.644   5.169   4.576
25422WAT     H276509   1.771   5.073   4.612
25423WAT      O76510   9.562   2.289   8.281
25423WAT     H176511   9.595   2.383   8.291
25423WAT     H276512   9.472   2.290   8.236
25424WAT      O76513   9.215   3.494   9.052
25424WAT     H176514   9.226   3.395   9.043
25424WAT     H276515   9.298   3.533   9.092
25425WAT      O76516   2.037   3.213   8.894
25425WAT     H176517   2.106   3.187   8.961
25425WAT     H276518   1.947   3.213   8.937
25426WAT      O76519   4.298   6.148   0.432
25426WAT     H176520   4.304   6.186   0.340
25426WAT     H276521   4.235   6.203   0.488
25427WAT      O76522   6.972   4.225   4.578
25427WAT     H176523   6.983   4.295   4.649
25427WAT     H276524   7.039   4.152   4.593
25428WAT      O76525   9.807   1.713   0.607
25428WAT     H176526   9.781   1.765   0.526
25428WAT     H276527   9.728   1.704   0.667
25429WAT      O76528   5.998   2.589   4.669
25429WAT     H176529   6.082   2.552   4.630
25429WAT     H276530   5.950   2.643   4.600
25430WAT      O76531   1.194   4.710   8.279
25430WAT     H176532   1.225   4.775   8.350
25430WAT     H276533   1.266   4.642   8.263
25431WAT      O76534   0.132   0.360   0.996
25431WAT     H176535   0.094   0.344   1.087
25431WAT     H276536   0.141   0.273   0.948
25432WAT      O76537   6.920   1.244   8.098
25432WAT     H176538   6.866   1.263   8.017
25432WAT     H276539   6.982   1.321   8.115
25433WAT      O76540   6.629   1.060   4.895
25433WAT     H176541   6.593   1.056   4.989
25433WAT     H276542   6.712   1.115   4.894
25434WAT      O76543   7.029   3.541   7.760
25434WAT     H176544   7.116   3.530   7.710
25434WAT     H276545   7.008   3.456   7.807
25435WAT      O76546   1.476   9.162   0.571
25435WAT     H176547   1.408   9.119   0.630
25435WAT     H276548   1.533   9.092   0.528
25436WAT      O76549   1.607   2.223   2.922
25436WAT     H176550   1.621   2.133   2.963
25436WAT     H276551   1.526   2.265   2.963
25437WAT      O76552   5.173   3.889   2.741
25437WAT     H176553   5.251   3.906   2.682
25437WAT     H276554   5.139   3.975   2.778
25438WAT      O76555   4.245   7.791   9.379
25438WAT     H176556   4.320   7.725   9.386
25438WAT     H276557   4.191   7.788   9.464
25439WAT      O76558   0.709   1.460   9.344
25439WAT     H176559   0.757   1.490   9.427
25439WAT     H276560   0.618   1.501   9.340
25440WAT      O76561   8.714   2.733   7.746
25440WAT     H176562   8.677   2.786   7.669
25440WAT     H276563   8.659   2.651   7.759
25441WAT      O76564   1.491   9.162   1.016
25441WAT     H176565   1.456   9.107   0.940
25441WAT     H276566   1.516   9.253   0.983
25442WAT      O76567   9.480   4.066   6.468
25442WAT     H176568   9.573   4.097   6.448
25442WAT     H276569   9.481   4.007   6.549
25443WAT      O76570   2.360   9.815   4.303
25443WAT     H176571   2.317   9.755   4.235
25443WAT     H276572   2.292   9.839   4.373
25444WAT      O76573   6.578   6.632   3.552
25444WAT     H176574   6.627   6.718   3.563
25444WAT     H276575   6.608   6.587   3.468
25445WAT      O76576   0.646   9.787   7.929
25445WAT     H176577   0.662   9.879   7.965
25445WAT     H276578   0.704   9.772   7.849
25446WAT      O76579   1.680   9.755   7.319
25446WAT     H176580   1.660   9.815   7.397
25446WAT     H276581   1.776   9.765   7.293
25447WAT      O76582   2.829   5.753   9.808
25447WAT     H176583   2.834   5.816   9.730
25447WAT     H276584   2.743   5.766   9.856
25448WAT      O76585   1.259   3.053   6.260
25448WAT     H176586   1.321   3.089   6.331
25448WAT     H276587   1.206   3.127   6.221
25449WAT      O76588   7.769   8.956   2.467
25449WAT     H176589   7.702   8.887   2.437
25449WAT     H276590   7.786   9.020   2.392
25450WAT      O76591   0.843   2.584   1.579
25450WAT     H176592   0.919   2.556   1.520
25450WAT     H276593   0.869   2.666   1.630
25451WAT      O76594   6.862   0.895   5.206
25451WAT     H176595   6.794   0.850   5.148
25451WAT     H276596   6.903   0.971   5.157
25452WAT      O76597   1.440   1.293   5.300
25452WAT     H176598   1.424   1.228   5.226
25452WAT     H276599   1.374   1.368   5.293
25453WAT      O76600   5.974   4.236   6.746
25453WAT     H176601   5.963   4.238   6.646
25453WAT     H276602   6.061   4.192   6.768
25454WAT      O76603   1.241   9.802   4.143
25454WAT     H176604   1.244   9.887   4.196
25454WAT     H276605   1.304   9.736   4.183
25455WAT      O76606   1.918   9.819   2.342
25455WAT     H176607   2.012   9.845   2.322
25455WAT     H276608   1.913   9.721   2.358
25456WAT      O76609   5.535   4.463   1.258
25456WAT     H176610   5.481   4.397   1.311
25456WAT     H276611   5.559   4.541   1.317
25457WAT      O76612   4.449   6.689   0.600
25457WAT     H176613   4.383   6.757   0.632
25457WAT     H276614   4.484   6.637   0.677
25458WAT      O76615   2.934   0.350   6.245
25458WAT     H176616   3.011   0.304   6.289
25458WAT     H276617   2.922   0.315   6.152
25459WAT      O76618   3.844   0.560   6.678
25459WAT     H176619   3.824   0.558   6.580
25459WAT     H276620   3.809   0.644   6.718
25460WAT      O76621   0.997   7.363   8.942
25460WAT     H176622   0.942   7.443   8.918
25460WAT     H276623   0.938   7.290   8.977
25461WAT      O76624   6.414   4.856   5.180
25461WAT     H176625   6.426   4.821   5.273
25461WAT     H276626   6.500   4.896   5.148
25462WAT      O76627   9.199   7.055   0.509
25462WAT     H176628   9.174   7.139   0.461
25462WAT     H276629   9.130   7.035   0.579
25463WAT      O76630   7.800   5.347   2.513
25463WAT     H176631   7.878   5.409   2.508
25463WAT     H276632   7.783   5.322   2.609
25464WAT      O76633   7.483   3.674   0.512
25464WAT     H176634   7.548   3.639   0.444
25464WAT     H276635   7.525   3.749   0.563
25465WAT      O76636   3.330   4.154   9.779
25465WAT     H176637   3.406   4.167   9.715
25465WAT     H276638   3.362   4.105   9.860
25466WAT      O76639   1.454   3.171   0.450
25466WAT     H176640   1.473   3.078   0.481
25466WAT     H276641   1.367   3.173   0.402
25467WAT      O76642   0.097   8.995   6.344
25467WAT     H176643   0.116   9.040   6.257
25467WAT     H276644   0.176   8.938   6.369
25468WAT      O76645   6.815   6.411   1.194
25468WAT     H176646   6.843   6.484   1.256
25468WAT     H276647   6.731   6.369   1.229
25469WAT      O76648   1.436   7.531   2.059
25469WAT     H176649   1.409   7.628   2.063
25469WAT     H276650   1.355   7.474   2.068
25470WAT      O76651   1.746   1.292   6.717
25470WAT     H176652   1.744   1.261   6.622
25470WAT     H276653   1.840   1.292   6.750
25471WAT      O76654   5.104   8.489   4.175
25471WAT     H176655   5.113   8.586   4.196
25471WAT     H276656   5.101   8.475   4.076
25472WAT      O76657   3.035   4.951   0.249
25472WAT     H176658   3.034   4.888   0.171
25472WAT     H276659   2.997   5.039   0.220
25473WAT      O76660   1.358   3.978   1.523
25473WAT     H176661   1.353   4.058   1.583
25473WAT     H276662   1.454   3.955   1.505
25474WAT      O76663   7.375   8.589   4.712
25474WAT     H176664   7.318   8.670   4.700
25474WAT     H276665   7.381   8.567   4.809
25475WAT      O76666   2.517   2.815   4.175
25475WAT     H176667   2.425   2.852   4.174
25475WAT     H276668   2.536   2.772   4.086
25476WAT      O76669   6.786   0.715   3.066
25476WAT     H176670   6.883   0.714   3.090
25476WAT     H276671   6.732   0.748   3.144
25477WAT      O76672   5.043   8.618   3.349
25477WAT     H176673   4.946   8.606   3.368
25477WAT     H276674   5.075   8.544   3.291
25478WAT      O76675   8.134   3.402   9.388
25478WAT     H176676   8.217   3.368   9.345
25478WAT     H276677   8.157   3.475   9.452
25479WAT      O76678   6.696   4.821   1.444
25479WAT     H176679   6.683   4.864   1.533
25479WAT     H276680   6.724   4.726   1.457
25480WAT      O76681   9.267   9.057   4.678
25480WAT     H176682   9.360   9.051   4.713
25480WAT     H276683   9.268   9.050   4.579
25481WAT      O76684   5.341   9.699   3.741
25481WAT     H176685   5.408   9.639   3.700
25481WAT     H276686   5.253   9.652   3.748
25482WAT      O76687   0.890   2.874   1.167
25482WAT     H176688   0.880   2.909   1.073
25482WAT     H276689   0.814   2.906   1.223
25483WAT      O76690   4.691   3.096   2.728
25483WAT     H176691   4.598   3.060   2.719
25483WAT     H276692   4.687   3.191   2.757
25484WAT      O76693   2.773   6.366   4.369
25484WAT     H176694   2.868   6.395   4.375
25484WAT     H276695   2.726   6.418   4.297
25485WAT      O76696   6.185   6.612   6.170
25485WAT     H176697   6.128   6.597   6.251
25485WAT     H276698   6.277   6.640   6.198
25486WAT      O76699   7.363   0.819   4.959
25486WAT     H176700   7.454   0.859   4.967
25486WAT     H276701   7.308   0.873   4.895
25487WAT      O76702   1.337   1.830   2.511
25487WAT     H176703   1.367   1.830   2.606
25487WAT     H276704   1.411   1.861   2.452
25488WAT      O76705   6.331   2.481   4.245
25488WAT     H176706   6.377   2.450   4.328
25488WAT     H276707   6.377   2.443   4.165
25489WAT      O76708   9.224   2.373   0.764
25489WAT     H176709   9.283   2.425   0.825
25489WAT     H276710   9.190   2.433   0.691
25490WAT      O76711   7.938   4.671   7.387
25490WAT     H176712   7.954   4.746   7.323
25490WAT     H276713   8.007   4.600   7.372
25491WAT      O76714   5.043   0.048   6.818
25491WAT     H176715   5.030   0.026   6.722
25491WAT     H276716   4.962   0.096   6.852
25492WAT      O76717   4.919   2.988   1.615
25492WAT     H176718   4.974   3.008   1.534
25492WAT     H276719   4.928   3.062   1.681
25493WAT      O76720   7.915   8.994   3.966
25493WAT     H176721   7.844   8.926   3.984
25493WAT     H276722   7.873   9.078   3.930
25494WAT      O76723   3.540   3.108   3.985
25494WAT     H176724   3.546   3.058   3.899
25494WAT     H276725   3.632   3.132   4.016
25495WAT      O76726   3.613   6.421   2.725
25495WAT     H176727   3.673   6.347   2.695
25495WAT     H276728   3.611   6.493   2.656
25496WAT      O76729   5.316   0.239   5.888
25496WAT     H176730   5.224   0.279   5.890
25496WAT     H276731   5.329   0.181   5.968
25497WAT      O76732   7.975   0.773   0.779
25497WAT     H176733   8.028   0.730   0.852
25497WAT     H276734   7.969   0.872   0.796
25498WAT      O76735   0.727   0.908   1.797
25498WAT     H176736   0.686   0.868   1.880
25498WAT     H276737   0.824   0.883   1.792
25499WAT      O76738   6.688   5.818   4.423
25499WAT     H176739   6.748   5.740   4.441
25499WAT     H276740   6.603   5.807   4.474
25500WAT      O76741   1.222   6.067   5.367
25500WAT     H176742   1.217   6.076   5.267
25500WAT     H276743   1.222   5.971   5.392
25501WAT      O76744   1.562   0.277   3.143
25501WAT     H176745   1.648   0.320   3.118
25501WAT     H276746   1.561   0.182   3.112
25502WAT      O76747   3.545   1.662   6.070
25502WAT     H176748   3.546   1.650   5.971
25502WAT     H276749   3.623   1.720   6.097
25503WAT      O76750   5.838   2.434   6.631
25503WAT     H176751   5.913   2.452   6.695
25503WAT     H276752   5.752   2.467   6.671
25504WAT      O76753   4.508   0.094   3.830
25504WAT     H176754   4.453   0.173   3.804
25504WAT     H276755   4.564   0.066   3.752
25505WAT      O76756   0.735   0.242   2.165
25505WAT     H176757   0.821   0.227   2.116
25505WAT     H276758   0.721   0.167   2.231
25506WAT      O76759   7.505   8.885   4.603
25506WAT     H176760   7.597   8.896   4.565
25506WAT     H276761   7.506   8.909   4.700
25507WAT      O76762   2.916   4.946   3.009
25507WAT     H176763   2.838   4.885   3.016
25507WAT     H276764   2.971   4.942   3.093
25508WAT      O76765   3.642   6.000   3.000
25508WAT     H176766   3.739   6.005   3.028
25508WAT     H276767   3.631   5.930   2.931
25509WAT      O76768   2.241   4.818   5.381
25509WAT     H176769   2.340   4.811   5.377
25509WAT     H276770   2.215   4.877   5.458
25510WAT      O76771   7.649   7.469   6.422
25510WAT     H176772   7.702   7.390   6.391
25510WAT     H276773   7.629   7.528   6.343
25511WAT      O76774   8.590   5.772   9.579
25511WAT     H176775   8.541   5.704   9.632
25511WAT     H276776   8.687   5.770   9.604
25512WAT      O76777   9.690   9.078   1.088
25512WAT     H176778   9.605   9.120   1.057
25512WAT     H276779   9.744   9.049   1.009
25513WAT      O76780   8.836   2.048   6.448
25513WAT     H176781   8.790   2.112   6.510
25513WAT     H276782   8.849   1.960   6.495
25514WAT      O76783   9.677   5.474   3.729
25514WAT     H176784   9.687   5.571   3.750
25514WAT     H276785   9.740   5.448   3.656
25515WAT      O76786   4.544   2.668   5.901
25515WAT     H176787   4.641   2.652   5.919
25515WAT     H276788   4.531   2.761   5.867
25516WAT      O76789   6.312   6.717   8.736
25516WAT     H176790   6.261   6.794   8.697
25516WAT     H276791   6.251   6.639   8.748
25517WAT      O76792   1.110   4.971   6.323
25517WAT     H176793   1.074   5.052   6.368
25517WAT     H276794   1.209   4.965   6.340
25518WAT      O76795   4.675   1.691   1.363
25518WAT     H176796   4.742   1.742   1.417
25518WAT     H276797   4.584   1.704   1.401
25519WAT      O76798   2.930   4.214   1.367
25519WAT     H176799   2.976   4.303   1.362
25519WAT     H276800   2.971   4.151   1.301
25520WAT      O76801   0.907   0.405   5.049
25520WAT     H176802   0.875   0.337   4.984
25520WAT     H276803   0.908   0.495   5.005
25521WAT      O76804   3.511   0.703   1.519
25521WAT     H176805   3.607   0.729   1.502
25521WAT     H276806   3.483   0.740   1.607
25522WAT      O76807   8.407   5.233   1.760
25522WAT     H176808   8.492   5.277   1.731
25522WAT     H276809   8.371   5.177   1.685
25523WAT      O76810   7.707   7.849   8.113
25523WAT     H176811   7.796   7.819   8.080
25523WAT     H276812   7.693   7.815   8.206
25524WAT      O76813   1.961   9.807   0.441
25524WAT     H176814   1.902   9.730   0.462
25524WAT     H276815   1.932   9.850   0.355
25525WAT      O76816   5.534   2.742   2.094
25525WAT     H176817   5.456   2.695   2.054
25525WAT     H276818   5.588   2.676   2.147
25526WAT      O76819   7.647   5.196   4.298
25526WAT     H176820   7.609   5.131   4.364
25526WAT     H276821   7.710   5.149   4.236
25527WAT      O76822   6.448   2.281   1.462
25527WAT     H176823   6.387   2.330   1.524
25527WAT     H276824   6.395   2.217   1.407
25528WAT      O76825   9.653   8.365   1.124
25528WAT     H176826   9.557   8.353   1.097
25528WAT     H276827   9.681   8.459   1.108
25529WAT      O76828   4.327   5.912   8.965
25529WAT     H176829   4.289   6.004   8.963
25529WAT     H276830   4.331   5.875   8.872
25530WAT      O76831   5.752   9.670   1.928
25530WAT     H176832   5.824   9.710   1.986
25530WAT     H276833   5.791   9.596   1.874
25531WAT      O76834   2.504   5.684   3.183
25531WAT     H176835   2.547   5.632   3.256
25531WAT     H276836   2.575   5.733   3.131
25532WAT      O76837   8.831   3.071   9.794
25532WAT     H176838   8.784   3.062   9.706
25532WAT     H276839   8.915   3.016   9.792
25533WAT      O76840   9.651   7.129   1.134
25533WAT     H176841   9.711   7.055   1.164
25533WAT     H276842   9.571   7.091   1.087
25534WAT      O76843   1.245   8.496   0.986
25534WAT     H176844   1.206   8.537   1.068
25534WAT     H276845   1.332   8.452   1.008
25535WAT      O76846   8.371   1.141   9.813
25535WAT     H176847   8.452   1.137   9.755
25535WAT     H276848   8.391   1.096   9.900
25536WAT      O76849   1.897   8.783   2.205
25536WAT     H176850   1.831   8.859   2.207
25536WAT     H276851   1.987   8.818   2.181
25537WAT      O76852   2.044   1.358   9.555
25537WAT     H176853   2.007   1.316   9.638
25537WAT     H276854   2.113   1.298   9.515
25538WAT      O76855   5.029   0.150   3.633
25538WAT     H176856   5.044   0.236   3.584
25538WAT     H276857   4.932   0.127   3.631
25539WAT      O76858   6.659   5.980   8.939
25539WAT     H176859   6.578   5.923   8.929
25539WAT     H276860   6.697   6.002   8.849
25540WAT      O76861   8.658   4.205   2.012
25540WAT     H176862   8.710   4.180   1.930
25540WAT     H276863   8.560   4.201   1.992
25541WAT      O76864   4.098   3.168   7.388
25541WAT     H176865   4.192   3.193   7.411
25541WAT     H276866   4.084   3.072   7.411
25542WAT      O76867   9.219   7.747   0.873
25542WAT     H176868   9.209   7.654   0.838
25542WAT     H276869   9.149   7.805   0.831
25543WAT      O76870   3.894   9.099   3.354
25543WAT     H176871   3.880   9.147   3.441
25543WAT     H276872   3.969   9.142   3.304
25544WAT      O76873   3.790   3.242   1.759
25544WAT     H176874   3.709   3.274   1.711
25544WAT     H276875   3.826   3.161   1.713
25545WAT      O76876   8.267   7.883   2.680
25545WAT     H176877   8.284   7.823   2.758
25545WAT     H276878   8.347   7.884   2.621
25546WAT      O76879   4.229   7.919   6.309
25546WAT     H176880   4.261   7.957   6.397
25546WAT     H276881   4.227   7.992   6.241
25547WAT      O76882   4.818   8.957   8.831
25547WAT     H176883   4.900   8.983   8.883
25547WAT     H276884   4.827   8.989   8.737
25548WAT      O76885   5.636   4.625   3.930
25548WAT     H176886   5.719   4.592   3.976
25548WAT     H276887   5.579   4.673   3.997
25549WAT      O76888   5.888   7.638   3.360
25549WAT     H176889   5.958   7.649   3.289
25549WAT     H276890   5.884   7.722   3.415
25550WAT      O76891   0.987   2.523   1.915
25550WAT     H176892   0.944   2.612   1.896
25550WAT     H276893   0.989   2.507   2.014
25551WAT      O76894   8.720   2.530   7.363
25551WAT     H176895   8.641   2.493   7.412
25551WAT     H276896   8.697   2.543   7.267
25552WAT      O76897   9.071   4.565   1.913
25552WAT     H176898   9.042   4.483   1.963
25552WAT     H276899   9.160   4.549   1.870
25553WAT      O76900   6.966   5.024   5.415
25553WAT     H176901   6.879   5.009   5.463
25553WAT     H276902   7.009   5.108   5.449
25554WAT      O76903   5.263   8.518   1.048
25554WAT     H176904   5.173   8.495   1.012
25554WAT     H276905   5.322   8.438   1.043
25555WAT      O76906   1.648   2.054   2.654
25555WAT     H176907   1.612   1.979   2.709
25555WAT     H276908   1.637   2.032   2.557
25556WAT      O76909   1.953   2.805   0.884
25556WAT     H176910   2.037   2.809   0.938
25556WAT     H276911   1.962   2.736   0.812
25557WAT      O76912   1.761   2.807   7.269
25557WAT     H176913   1.730   2.847   7.182
25557WAT     H276914   1.850   2.764   7.255
25558WAT      O76915   4.395   3.036   9.815
25558WAT     H176916   4.424   3.051   9.910
25558WAT     H276917   4.428   3.110   9.758
25559WAT      O76918   1.473   0.055   9.251
25559WAT     H176919   1.472  -0.008   9.329
25559WAT     H276920   1.496   0.147   9.283
25560WAT      O76921   2.179   9.040   2.453
25560WAT     H176922   2.118   8.985   2.510
25560WAT     H276923   2.144   9.134   2.448
25561WAT      O76924   9.572   2.239   2.046
25561WAT     H176925   9.625   2.204   1.968
25561WAT     H276926   9.475   2.243   2.021
25562WAT      O76927   5.467   1.871   8.062
25562WAT     H176928   5.416   1.788   8.039
25562WAT     H276929   5.468   1.883   8.161
25563WAT      O76930   5.446   7.220   5.650
25563WAT     H176931   5.511   7.242   5.577
25563WAT     H276932   5.392   7.140   5.624
25564WAT      O76933   8.253   7.016   6.477
25564WAT     H176934   8.293   7.014   6.386
25564WAT     H276935   8.297   7.088   6.531
25565WAT      O76936   9.603   4.846   3.050
25565WAT     H176937   9.635   4.896   2.970
25565WAT     H276938   9.543   4.771   3.021
25566WAT      O76939   9.703   8.989   3.890
25566WAT     H176940   9.681   8.903   3.937
25566WAT     H276941   9.623   9.049   3.890
25567WAT      O76942   1.540   4.028   3.039
25567WAT     H176943   1.482   4.097   3.082
25567WAT     H276944   1.620   4.010   3.096
25568WAT      O76945   5.561   8.745   4.601
25568WAT     H176946   5.514   8.682   4.663
25568WAT     H276947   5.500   8.821   4.579
25569WAT      O76948   5.036   4.032   9.202
25569WAT     H176949   5.031   4.057   9.299
25569WAT     H276950   5.098   4.095   9.155
25570WAT      O76951   6.486   3.390   5.154
25570WAT     H176952   6.431   3.430   5.227
25570WAT     H276953   6.427   3.340   5.091
25571WAT      O76954   2.187   6.350   0.068
25571WAT     H176955   2.097   6.353   0.113
25571WAT     H276956   2.240   6.430   0.096
25572WAT      O76957   4.790   6.674   5.378
25572WAT     H176958   4.766   6.582   5.347
25572WAT     H276959   4.872   6.671   5.434
25573WAT      O76960   6.677   1.773   4.514
25573WAT     H176961   6.607   1.752   4.446
25573WAT     H276962   6.662   1.719   4.596
25574WAT      O76963   0.603   6.167   9.724
25574WAT     H176964   0.601   6.154   9.625
25574WAT     H276965   0.563   6.087   9.769
25575WAT      O76966   3.210   6.068   8.570
25575WAT     H176967   3.113   6.076   8.593
25575WAT     H276968   3.254   6.157   8.580
25576WAT      O76969   2.255   7.577   4.679
25576WAT     H176970   2.233   7.579   4.776
25576WAT     H276971   2.180   7.534   4.628
25577WAT      O76972   3.818   4.656   6.338
25577WAT     H176973   3.768   4.674   6.253
25577WAT     H276974   3.915   4.677   6.325
25578WAT      O76975   2.871   1.861   7.944
25578WAT     H176976   2.811   1.918   7.888
25578WAT     H276977   2.823   1.777   7.970
25579WAT      O76978   2.373   0.941   3.962
25579WAT     H176979   2.418   1.001   3.896
25579WAT     H276980   2.325   0.998   4.029
25580WAT      O76981   8.193   0.621   2.890
25580WAT     H176982   8.159   0.703   2.934
25580WAT     H276983   8.122   0.582   2.831
25581WAT      O76984   7.264   9.376   4.535
25581WAT     H176985   7.167   9.388   4.557
25581WAT     H276986   7.273   9.329   4.447
25582WAT      O76987   6.368   8.425   6.222
25582WAT     H176988   6.290   8.452   6.278
25582WAT     H276989   6.343   8.428   6.125
25583WAT      O76990   3.547   8.181   6.545
25583WAT     H176991   3.567   8.243   6.621
25583WAT     H276992   3.632   8.137   6.515
25584WAT      O76993   8.977   0.321   5.722
25584WAT     H176994   8.967   0.415   5.690
25584WAT     H276995   8.890   0.274   5.715
25585WAT      O76996   1.327   0.624   5.031
25585WAT     H176997   1.297   0.646   4.939
25585WAT     H276998   1.262   0.562   5.074
25586WAT      O76999   6.245   8.747   1.544
25586WAT     H177000   6.263   8.673   1.478
25586WAT     H277001   6.214   8.707   1.630
25587WAT      O77002   4.575   2.094   0.265
25587WAT     H177003   4.612   2.012   0.309
25587WAT     H277004   4.643   2.167   0.269
25588WAT      O77005   2.796   9.229   3.547
25588WAT     H177006   2.720   9.272   3.597
25588WAT     H277007   2.779   9.237   3.449
25589WAT      O77008   7.220   6.881   2.298
25589WAT     H177009   7.197   6.921   2.210
25589WAT     H277010   7.319   6.880   2.310
25590WAT      O77011   5.196   4.954   7.520
25590WAT     H177012   5.150   5.043   7.520
25590WAT     H277013   5.241   4.940   7.609
25591WAT      O77014   9.728   5.072   0.971
25591WAT     H177015   9.664   5.072   1.047
25591WAT     H277016   9.771   5.162   0.963
25592WAT      O77017   7.347   1.648   7.984
25592WAT     H177018   7.364   1.654   7.885
25592WAT     H277019   7.271   1.708   8.008
25593WAT      O77020   3.111   7.039   5.058
25593WAT     H177021   3.020   7.080   5.067
25593WAT     H277022   3.147   7.056   4.966
25594WAT      O77023   0.774   0.163   6.991
25594WAT     H177024   0.821   0.138   7.076
25594WAT     H277025   0.800   0.256   6.965
25595WAT      O77026   6.825   7.899   5.031
25595WAT     H177027   6.834   7.954   4.948
25595WAT     H277028   6.908   7.908   5.086
25596WAT      O77029   3.359   6.476   1.755
25596WAT     H177030   3.431   6.464   1.688
25596WAT     H277031   3.387   6.436   1.842
25597WAT      O77032   0.819   5.943   8.502
25597WAT     H177033   0.794   5.907   8.592
25597WAT     H277034   0.805   6.042   8.501
25598WAT      O77035   2.173   9.073   1.199
25598WAT     H177036   2.239   9.093   1.271
25598WAT     H277037   2.202   8.990   1.150
25599WAT      O77038   6.653   4.981   0.738
25599WAT     H177039   6.581   5.050   0.737
25599WAT     H277040   6.619   4.897   0.696
25600WAT      O77041   4.482   0.607   3.014
25600WAT     H177042   4.495   0.638   3.109
25600WAT     H277043   4.386   0.619   2.988
25601WAT      O77044   0.804   8.182   7.234
25601WAT     H177045   0.749   8.187   7.317
25601WAT     H277046   0.788   8.094   7.189
25602WAT      O77047   3.671   5.171   2.708
25602WAT     H177048   3.573   5.155   2.695
25602WAT     H277049   3.686   5.267   2.732
25603WAT      O77050   3.774   2.073   0.426
25603WAT     H177051   3.861   2.042   0.386
25603WAT     H277052   3.708   1.998   0.425
25604WAT      O77053   8.927   2.054   9.298
25604WAT     H177054   8.948   1.978   9.236
25604WAT     H277055   8.829   2.058   9.315
25605WAT      O77056   2.391   8.462   7.387
25605WAT     H177057   2.473   8.409   7.408
25605WAT     H277058   2.395   8.494   7.292
25606WAT      O77059   7.512   0.635   7.490
25606WAT     H177060   7.516   0.629   7.390
25606WAT     H277061   7.561   0.558   7.530
25607WAT      O77062   5.340   8.052   6.835
25607WAT     H177063   5.396   7.995   6.774
25607WAT     H277064   5.354   8.022   6.929
25608WAT      O77065   3.618   3.346   7.086
25608WAT     H177066   3.710   3.383   7.074
25608WAT     H277067   3.551   3.408   7.045
25609WAT      O77068   0.767   3.012   5.164
25609WAT     H177069   0.856   2.981   5.130
25609WAT     H277070   0.706   2.933   5.173
25610WAT      O77071   6.163   1.083   6.222
25610WAT     H177072   6.126   1.044   6.138
25610WAT     H277073   6.088   1.120   6.277
25611WAT      O77074   4.689   0.314   7.908
25611WAT     H177075   4.780   0.293   7.871
25611WAT     H277076   4.645   0.230   7.938
25612WAT      O77077   6.221   3.741   0.437
25612WAT     H177078   6.123   3.748   0.419
25612WAT     H277079   6.272   3.746   0.351
25613WAT      O77080   3.586   1.111   9.069
25613WAT     H177081   3.579   1.056   9.152
25613WAT     H277082   3.593   1.208   9.093
25614WAT      O77083   1.711   9.526   1.797
25614WAT     H177084   1.624   9.548   1.753
25614WAT     H277085   1.775   9.601   1.785
25615WAT      O77086   6.666   9.806   1.531
25615WAT     H177087   6.668   9.877   1.461
25615WAT     H277088   6.730   9.733   1.507
25616WAT      O77089   8.179   1.222   6.079
25616WAT     H177090   8.140   1.212   5.988
25616WAT     H277091   8.157   1.313   6.114
25617WAT      O77092   6.960   1.891   0.977
25617WAT     H177093   7.030   1.829   1.012
25617WAT     H277094   6.953   1.970   1.038
25618WAT      O77095   0.041   5.532   9.377
25618WAT     H177096  -0.042   5.484   9.404
25618WAT     H277097   0.038   5.549   9.278
25619WAT      O77098   3.181   5.263   5.409
25619WAT     H177099   3.126   5.305   5.482
25619WAT     H277100   3.274   5.245   5.444
25620WAT      O77101   1.664   1.035   4.549
25620WAT     H177102   1.684   1.132   4.537
25620WAT     H277103   1.626   1.019   4.641
25621WAT      O77104   2.983   2.287   4.528
25621WAT     H177105   3.044   2.209   4.534
25621WAT     H277106   2.932   2.297   4.613
25622WAT      O77107   4.322   1.860   0.070
25622WAT     H177108   4.329   1.765   0.039
25622WAT     H277109   4.337   1.865   0.168
25623WAT      O77110   6.551   2.092   5.191
25623WAT     H177111   6.601   2.057   5.112
25623WAT     H277112   6.493   2.169   5.164
25624WAT      O77113   1.837   6.649   1.642
25624WAT     H177114   1.791   6.561   1.651
25624WAT     H277115   1.769   6.722   1.638
25625WAT      O77116   7.979   9.546   8.542
25625WAT     H177117   7.991   9.623   8.604
25625WAT     H277118   8.066   9.498   8.531
25626WAT      O77119   9.209   9.778   6.484
25626WAT     H177120   9.252   9.691   6.460
25626WAT     H277121   9.263   9.822   6.557
25627WAT      O77122   8.787   3.334   5.428
25627WAT     H177123   8.756   3.262   5.366
25627WAT     H277124   8.854   3.295   5.492
25628WAT      O77125   2.867   2.186   5.012
25628WAT     H177126   2.897   2.131   4.934
25628WAT     H277127   2.888   2.282   4.996
25629WAT      O77128   5.377   5.368   8.609
25629WAT     H177129   5.438   5.383   8.687
25629WAT     H277130   5.337   5.456   8.581
25630WAT      O77131   8.429   0.148   8.514
25630WAT     H177132   8.431   0.055   8.476
25630WAT     H277133   8.364   0.204   8.463
25631WAT      O77134   1.358   7.675   1.654
25631WAT     H177135   1.353   7.714   1.746
25631WAT     H277136   1.268   7.682   1.609
25632WAT      O77137   5.872   1.394   0.635
25632WAT     H177138   5.954   1.429   0.589
25632WAT     H277139   5.897   1.316   0.692
25633WAT      O77140   0.875   6.488   0.606
25633WAT     H177141   0.805   6.468   0.675
25633WAT     H277142   0.919   6.403   0.577
25634WAT      O77143   2.175   6.059   4.967
25634WAT     H177144   2.163   6.047   4.868
25634WAT     H277145   2.111   5.999   5.015
25635WAT      O77146   9.608   8.740   7.042
25635WAT     H177147   9.630   8.838   7.043
25635WAT     H277148   9.692   8.687   7.032
25636WAT      O77149   0.112   3.637   4.648
25636WAT     H177150   0.157   3.710   4.699
25636WAT     H277151   0.077   3.568   4.711
25637WAT      O77152   4.748   2.797   4.579
25637WAT     H177153   4.799   2.716   4.609
25637WAT     H277154   4.657   2.795   4.619
25638WAT      O77155   9.493   0.264   4.340
25638WAT     H177156   9.478   0.279   4.242
25638WAT     H277157   9.580   0.217   4.354
25639WAT      O77158   2.684   8.792   5.821
25639WAT     H177159   2.707   8.840   5.905
25639WAT     H277160   2.707   8.695   5.830
25640WAT      O77161   4.080   3.342   4.057
25640WAT     H177162   4.128   3.286   3.990
25640WAT     H277163   4.017   3.403   4.010
25641WAT      O77164   2.371   1.590   2.896
25641WAT     H177165   2.338   1.496   2.894
25641WAT     H277166   2.340   1.638   2.814
25642WAT      O77167   6.691   7.897   5.476
25642WAT     H177168   6.788   7.880   5.489
25642WAT     H277169   6.656   7.955   5.549
25643WAT      O77170   4.121   8.610   7.772
25643WAT     H177171   4.212   8.647   7.791
25643WAT     H277172   4.051   8.673   7.807
25644WAT      O77173   0.786   3.416   7.504
25644WAT     H177174   0.767   3.320   7.482
25644WAT     H277175   0.726   3.475   7.450
25645WAT      O77176   6.472   5.375   4.536
25645WAT     H177177   6.380   5.386   4.573
25645WAT     H277178   6.500   5.280   4.547
25646WAT      O77179   8.153   3.308   0.388
25646WAT     H177180   8.090   3.253   0.334
25646WAT     H277181   8.202   3.250   0.453
25647WAT      O77182   9.138   6.675   9.781
25647WAT     H177183   9.148   6.651   9.685
25647WAT     H277184   9.066   6.619   9.823
25648WAT      O77185   0.664   5.489   5.109
25648WAT     H177186   0.722   5.550   5.162
25648WAT     H277187   0.692   5.490   5.013
25649WAT      O77188   5.891   6.670   4.350
25649WAT     H177189   5.855   6.595   4.295
25649WAT     H277190   5.851   6.666   4.442
25650WAT      O77191   2.955   6.091   8.825
25650WAT     H177192   2.950   5.994   8.803
25650WAT     H277193   3.030   6.108   8.889
25651WAT      O77194   5.185   6.130   1.524
25651WAT     H177195   5.179   6.175   1.435
25651WAT     H277196   5.218   6.036   1.512
25652WAT      O77197   1.240   7.959   4.322
25652WAT     H177198   1.175   7.994   4.390
25652WAT     H277199   1.268   7.866   4.347
25653WAT      O77200   3.535   9.055   5.435
25653WAT     H177201   3.599   8.984   5.405
25653WAT     H277202   3.509   9.111   5.356
25654WAT      O77203   7.917   5.377   0.942
25654WAT     H177204   7.996   5.408   0.995
25654WAT     H277205   7.835   5.384   0.998
25655WAT      O77206   3.610   0.691   4.035
25655WAT     H177207   3.619   0.756   4.111
25655WAT     H277208   3.674   0.716   3.963
25656WAT      O77209   8.692   6.663   5.085
25656WAT     H177210   8.749   6.655   5.003
25656WAT     H277211   8.746   6.703   5.159
25657WAT      O77212   4.231   2.065   2.329
25657WAT     H177213   4.263   1.981   2.284
25657WAT     H277214   4.172   2.115   2.265
25658WAT      O77215   2.858   1.238   1.382
25658WAT     H177216   2.763   1.228   1.353
25658WAT     H277217   2.915   1.255   1.301
25659WAT      O77218   2.338   6.324   2.171
25659WAT     H177219   2.247   6.322   2.212
25659WAT     H277220   2.331   6.300   2.074
25660WAT      O77221   1.290   2.396   0.818
25660WAT     H177222   1.375   2.419   0.867
25660WAT     H277223   1.212   2.434   0.867
25661WAT      O77224   6.709   6.326   2.349
25661WAT     H177225   6.667   6.322   2.258
25661WAT     H277226   6.715   6.421   2.379
25662WAT      O77227   5.430   3.749   3.598
25662WAT     H177228   5.366   3.684   3.555
25662WAT     H277229   5.481   3.797   3.527
25663WAT      O77230   4.954   1.744   3.885
25663WAT     H177231   4.971   1.660   3.833
25663WAT     H277232   4.951   1.822   3.822
25664WAT      O77233   8.780   5.191   6.946
25664WAT     H177234   8.853   5.247   6.905
25664WAT     H277235   8.773   5.212   7.043
25665WAT      O77236   3.614   7.539   6.205
25665WAT     H177237   3.651   7.469   6.266
25665WAT     H277238   3.610   7.504   6.112
25666WAT      O77239   3.279   7.065   3.290
25666WAT     H177240   3.276   6.998   3.215
25666WAT     H277241   3.188   7.104   3.304
25667WAT      O77242   3.508   6.052   8.953
25667WAT     H177243   3.591   6.054   8.898
25667WAT     H277244   3.437   6.106   8.908
25668WAT      O77245   3.606   9.538   0.725
25668WAT     H177246   3.664   9.474   0.675
25668WAT     H277247   3.606   9.514   0.822
25669WAT      O77248   9.295   4.286   7.151
25669WAT     H177249   9.331   4.340   7.075
25669WAT     H277250   9.195   4.288   7.150
25670WAT      O77251   9.114   4.998   4.113
25670WAT     H177252   9.201   4.951   4.127
25670WAT     H277253   9.119   5.050   4.027
25671WAT      O77254   1.708   4.852   1.670
25671WAT     H177255   1.773   4.781   1.641
25671WAT     H277256   1.615   4.818   1.657
25672WAT      O77257   8.877   7.115   2.920
25672WAT     H177258   8.960   7.063   2.901
25672WAT     H277259   8.797   7.055   2.916
25673WAT      O77260   6.316   6.512   1.670
25673WAT     H177261   6.241   6.576   1.653
25673WAT     H277262   6.289   6.420   1.640
25674WAT      O77263   5.032   4.038   0.334
25674WAT     H177264   5.050   3.963   0.270
25674WAT     H277265   5.030   4.125   0.285
25675WAT      O77266   9.868   6.810   4.514
25675WAT     H177267   9.922   6.894   4.505
25675WAT     H277268   9.773   6.828   4.490
25676WAT      O77269   1.138   9.200   9.782
25676WAT     H177270   1.107   9.137   9.852
25676WAT     H277271   1.163   9.150   9.699
25677WAT      O77272   8.612   3.325   0.998
25677WAT     H177273   8.678   3.367   1.060
25677WAT     H277274   8.637   3.229   0.982
25678WAT      O77275   2.666   3.906   2.569
25678WAT     H177276   2.688   3.994   2.610
25678WAT     H277277   2.568   3.889   2.578
25679WAT      O77278   3.866   7.200   1.284
25679WAT     H177279   3.961   7.174   1.264
25679WAT     H277280   3.805   7.132   1.244
25680WAT      O77281   5.134   3.567   0.020
25680WAT     H177282   5.206   3.620  -0.025
25680WAT     H277283   5.094   3.503  -0.046
25681WAT      O77284   9.549   7.207   7.686
25681WAT     H177285   9.646   7.199   7.708
25681WAT     H277286   9.499   7.235   7.768
25682WAT      O77287   9.507   8.518   5.838
25682WAT     H177288   9.516   8.421   5.815
25682WAT     H277289   9.468   8.527   5.930
25683WAT      O77290   4.540   9.587   6.489
25683WAT     H177291   4.610   9.524   6.522
25683WAT     H277292   4.509   9.559   6.398
25684WAT      O77293   2.057   3.677   8.972
25684WAT     H177294   2.019   3.754   9.023
25684WAT     H277295   2.156   3.687   8.963
25685WAT      O77296   5.576   5.988   5.972
25685WAT     H177297   5.498   5.984   6.035
25685WAT     H277298   5.594   6.084   5.948
25686WAT      O77299   5.416   7.311   3.532
25686WAT     H177300   5.414   7.405   3.496
25686WAT     H277301   5.500   7.298   3.585
25687WAT      O77302   8.457   1.099   0.691
25687WAT     H177303   8.433   1.003   0.677
25687WAT     H277304   8.411   1.134   0.772
25688WAT      O77305   8.784   5.128   3.468
25688WAT     H177306   8.706   5.092   3.519
25688WAT     H277307   8.763   5.126   3.370
25689WAT      O77308   2.329   8.692   7.520
25689WAT     H177309   2.322   8.669   7.617
25689WAT     H277310   2.340   8.608   7.467
25690WAT      O77311   5.884   3.197   5.279
25690WAT     H177312   5.965   3.252   5.299
25690WAT     H277313   5.834   3.179   5.363
25691WAT      O77314   1.527   5.615   6.961
25691WAT     H177315   1.579   5.695   6.992
25691WAT     H277316   1.429   5.634   6.965
25692WAT      O77317   3.418   1.939   3.134
25692WAT     H177318   3.466   1.935   3.221
25692WAT     H277319   3.391   2.034   3.115
25693WAT      O77320   7.604   9.822   3.524
25693WAT     H177321   7.577   9.759   3.597
25693WAT     H277322   7.547   9.805   3.443
25694WAT      O77323   4.868   2.714   8.175
25694WAT     H177324   4.892   2.699   8.270
25694WAT     H277325   4.778   2.757   8.169
25695WAT      O77326   8.593   0.687   1.604
25695WAT     H177327   8.543   0.766   1.569
25695WAT     H277328   8.680   0.716   1.644
25696WAT      O77329   1.535   4.075   4.966
25696WAT     H177330   1.534   4.068   4.866
25696WAT     H277331   1.494   3.992   5.005
25697WAT      O77332   8.756   8.470   2.184
25697WAT     H177333   8.811   8.390   2.161
25697WAT     H277334   8.665   8.461   2.142
25698WAT      O77335   5.483   7.663   4.695
25698WAT     H177336   5.537   7.653   4.779
25698WAT     H277337   5.388   7.637   4.714
25699WAT      O77338   4.563   3.734   7.447
25699WAT     H177339   4.541   3.830   7.434
25699WAT     H277340   4.636   3.707   7.384
25700WAT      O77341   2.930   4.460   3.134
25700WAT     H177342   2.999   4.520   3.175
25700WAT     H277343   2.894   4.504   3.051
25701WAT      O77344   0.951   2.751   7.925
25701WAT     H177345   0.965   2.850   7.928
25701WAT     H277346   0.904   2.721   8.008
25702WAT      O77347   0.326   5.545   3.899
25702WAT     H177348   0.386   5.596   3.961
25702WAT     H277349   0.305   5.456   3.940
25703WAT      O77350   3.451   6.232   0.488
25703WAT     H177351   3.486   6.221   0.395
25703WAT     H277352   3.352   6.226   0.487
25704WAT      O77353   7.392   0.194   6.734
25704WAT     H177354   7.395   0.101   6.696
25704WAT     H277355   7.481   0.218   6.772
25705WAT      O77356   6.453   3.041   2.996
25705WAT     H177357   6.528   3.092   3.040
25705WAT     H277358   6.369   3.056   3.048
25706WAT      O77359   8.640   0.546   8.557
25706WAT     H177360   8.652   0.640   8.591
25706WAT     H277361   8.543   0.523   8.554
25707WAT      O77362   8.668   0.361   5.170
25707WAT     H177363   8.597   0.291   5.168
25707WAT     H277364   8.627   0.450   5.189
25708WAT      O77365   0.616   4.050   5.589
25708WAT     H177366   0.646   4.140   5.618
25708WAT     H277367   0.555   4.058   5.510
25709WAT      O77368   9.745   0.255   8.709
25709WAT     H177369   9.736   0.301   8.798
25709WAT     H277370   9.780   0.320   8.642
25710WAT      O77371   6.451   9.126   2.114
25710WAT     H177372   6.355   9.148   2.098
25710WAT     H277373   6.500   9.210   2.138
25711WAT      O77374   0.279   1.144   7.522
25711WAT     H177375   0.332   1.114   7.601
25711WAT     H277376   0.324   1.221   7.478
25712WAT      O77377   6.574   8.794   1.414
25712WAT     H177378   6.544   8.765   1.323
25712WAT     H277379   6.560   8.720   1.479
25713WAT      O77380   9.685   5.287   3.270
25713WAT     H177381   9.645   5.247   3.187
25713WAT     H277382   9.663   5.229   3.348
25714WAT      O77383   8.982   3.234   2.216
25714WAT     H177384   9.065   3.270   2.173
25714WAT     H277385   9.007   3.161   2.280
25715WAT      O77386   9.650   5.357   0.687
25715WAT     H177387   9.574   5.317   0.738
25715WAT     H277388   9.682   5.292   0.619
25716WAT      O77389   8.083   0.431   5.160
25716WAT     H177390   8.078   0.346   5.213
25716WAT     H277391   7.991   0.470   5.152
25717WAT      O77392   9.638   1.163   3.594
25717WAT     H177393   9.551   1.163   3.544
25717WAT     H277394   9.696   1.237   3.560
25718WAT      O77395   4.875   5.967   5.378
25718WAT     H177396   4.804   5.986   5.310
25718WAT     H277397   4.954   6.026   5.360
25719WAT      O77398   8.170   2.371   4.427
25719WAT     H177399   8.245   2.411   4.479
25719WAT     H277400   8.096   2.345   4.489
25720WAT      O77401   8.127   3.127   3.204
25720WAT     H177402   8.101   3.137   3.300
25720WAT     H277403   8.222   3.094   3.198
25721WAT      O77404   9.348   4.344   3.671
25721WAT     H177405   9.279   4.276   3.645
25721WAT     H277406   9.371   4.333   3.768
25722WAT      O77407   2.747   7.140   4.432
25722WAT     H177408   2.701   7.072   4.375
25722WAT     H277409   2.827   7.099   4.476
25723WAT      O77410   2.473   7.615   1.018
25723WAT     H177411   2.517   7.527   1.031
25723WAT     H277412   2.415   7.612   0.937
25724WAT      O77413   3.354   2.657   9.676
25724WAT     H177414   3.293   2.722   9.631
25724WAT     H277415   3.354   2.571   9.625
25725WAT      O77416   7.247   9.741   6.006
25725WAT     H177417   7.213   9.833   5.989
25725WAT     H277418   7.343   9.745   6.032
25726WAT      O77419   1.524   9.701   7.100
25726WAT     H177420   1.432   9.738   7.114
25726WAT     H277421   1.580   9.721   7.181
25727WAT      O77422   8.346   9.649   4.796
25727WAT     H177423   8.381   9.689   4.881
25727WAT     H277424   8.423   9.630   4.735
25728WAT      O77425   4.918   2.605   8.438
25728WAT     H177426   5.007   2.627   8.477
25728WAT     H277427   4.849   2.666   8.478
25729WAT      O77428   7.840   5.164   7.747
25729WAT     H177429   7.883   5.124   7.665
25729WAT     H277430   7.747   5.129   7.756
25730WAT      O77431   9.777   4.878   2.545
25730WAT     H177432   9.681   4.906   2.550
25730WAT     H277433   9.830   4.948   2.498
25731WAT      O77434   8.095   9.247   1.020
25731WAT     H177435   8.023   9.184   0.993
25731WAT     H277436   8.178   9.227   0.969
25732WAT      O77437   5.846   3.160   1.328
25732WAT     H177438   5.764   3.135   1.277
25732WAT     H277439   5.921   3.177   1.264
25733WAT      O77440   2.807   4.532   3.574
25733WAT     H177441   2.882   4.598   3.587
25733WAT     H277442   2.794   4.481   3.659
25734WAT      O77443   3.964   3.207   7.894
25734WAT     H177444   3.923   3.284   7.943
25734WAT     H277445   3.943   3.122   7.942
25735WAT      O77446   4.322   6.818   8.751
25735WAT     H177447   4.380   6.813   8.832
25735WAT     H277448   4.349   6.746   8.686
25736WAT      O77449   9.870   5.832   8.303
25736WAT     H177450   9.897   5.916   8.256
25736WAT     H277451   9.770   5.822   8.298
25737WAT      O77452   9.447   5.137   8.999
25737WAT     H177453   9.404   5.224   9.023
25737WAT     H277454   9.405   5.063   9.052
25738WAT      O77455   8.345   5.172   8.960
25738WAT     H177456   8.444   5.164   8.944
25738WAT     H277457   8.324   5.148   9.055
25739WAT      O77458   5.801   4.410   9.055
25739WAT     H177459   5.755   4.358   9.127
25739WAT     H277460   5.842   4.346   8.990
25740WAT      O77461   5.949   8.735   2.501
25740WAT     H177462   5.943   8.704   2.406
25740WAT     H277463   6.036   8.781   2.515
25741WAT      O77464   9.379   4.688   2.026
25741WAT     H177465   9.364   4.610   1.965
25741WAT     H277466   9.476   4.693   2.050
25742WAT      O77467   7.960   7.142   4.055
25742WAT     H177468   7.984   7.072   3.988
25742WAT     H277469   7.985   7.110   4.147
25743WAT      O77470   4.686   8.975   7.657
25743WAT     H177471   4.735   8.888   7.650
25743WAT     H277472   4.753   9.049   7.666
25744WAT      O77473   9.528   1.426   9.241
25744WAT     H177474   9.496   1.518   9.265
25744WAT     H277475   9.453   1.361   9.253
25745WAT      O77476   8.034   8.937   9.047
25745WAT     H177477   8.075   9.006   9.106
25745WAT     H277478   7.976   8.981   8.978
25746WAT      O77479   9.428   5.523   1.241
25746WAT     H177480   9.474   5.604   1.278
25746WAT     H277481   9.335   5.548   1.213
25747WAT      O77482   4.936   5.102   6.214
25747WAT     H177483   5.033   5.110   6.190
25747WAT     H277484   4.912   5.173   6.280
25748WAT      O77485   7.951   4.777   2.634
25748WAT     H177486   7.883   4.791   2.707
25748WAT     H277487   7.923   4.827   2.552
25749WAT      O77488   4.230   5.133   1.349
25749WAT     H177489   4.237   5.033   1.356
25749WAT     H277490   4.154   5.164   1.407
25750WAT      O77491   9.153   4.850   9.562
25750WAT     H177492   9.143   4.917   9.488
25750WAT     H277493   9.105   4.766   9.536
25751WAT      O77494   6.887   2.096   9.297
25751WAT     H177495   6.896   2.028   9.224
25751WAT     H277496   6.869   2.050   9.383
25752WAT      O77497   9.071   6.977   8.282
25752WAT     H177498   9.014   7.052   8.315
25752WAT     H277499   9.061   6.899   8.344
25753WAT      O77500   7.150   6.225   2.904
25753WAT     H177501   7.244   6.240   2.936
25753WAT     H277502   7.152   6.195   2.809
25754WAT      O77503   9.059   5.808   5.781
25754WAT     H177504   8.960   5.801   5.767
25754WAT     H277505   9.089   5.901   5.756
25755WAT      O77506   7.044   2.921   0.845
25755WAT     H177507   7.102   2.941   0.923
25755WAT     H277508   6.973   2.991   0.837
25756WAT      O77509   2.620   5.407   2.017
25756WAT     H177510   2.554   5.425   2.090
25756WAT     H277511   2.690   5.344   2.050
25757WAT      O77512   4.220   8.025   0.455
25757WAT     H177513   4.291   7.955   0.462
25757WAT     H277514   4.163   8.023   0.538
25758WAT      O77515   1.118   2.018   3.035
25758WAT     H177516   1.053   2.065   2.975
25758WAT     H277517   1.100   1.920   3.034
25759WAT      O77518   4.677   4.764   0.689
25759WAT     H177519   4.699   4.835   0.622
25759WAT     H277520   4.709   4.792   0.779
25760WAT      O77521   1.505   0.807   1.293
25760WAT     H177522   1.517   0.861   1.210
25760WAT     H277523   1.409   0.810   1.321
25761WAT      O77524   8.844   6.765   3.851
25761WAT     H177525   8.940   6.753   3.828
25761WAT     H277526   8.793   6.792   3.770
25762WAT      O77527   6.899   5.324   0.763
25762WAT     H177528   6.884   5.259   0.689
25762WAT     H277529   6.985   5.304   0.809
25763WAT      O77530   8.089   0.811   3.832
25763WAT     H177531   8.140   0.727   3.811
25763WAT     H277532   8.153   0.886   3.845
25764WAT      O77533   8.722   0.043   3.595
25764WAT     H177534   8.795  -0.026   3.589
25764WAT     H277535   8.745   0.109   3.666
25765WAT      O77536   6.438   6.523   0.500
25765WAT     H177537   6.437   6.482   0.409
25765WAT     H277538   6.404   6.617   0.495
25766WAT      O77539   4.961   3.460   7.367
25766WAT     H177540   4.970   3.400   7.446
25766WAT     H277541   5.020   3.426   7.293
25767WAT      O77542   1.914   8.667   6.325
25767WAT     H177543   1.977   8.628   6.257
25767WAT     H277544   1.892   8.597   6.393
25768WAT      O77545   4.541   1.942   9.821
25768WAT     H177546   4.530   2.042   9.826
25768WAT     H277547   4.465   1.898   9.869
25769WAT      O77548   8.456   7.296   1.898
25769WAT     H177549   8.421   7.230   1.831
25769WAT     H277550   8.536   7.257   1.944
25770WAT      O77551   0.468   3.345   8.860
25770WAT     H177552   0.568   3.342   8.860
25770WAT     H277553   0.432   3.253   8.878
25771WAT      O77554   3.140   2.199   7.780
25771WAT     H177555   3.134   2.158   7.689
25771WAT     H277556   3.208   2.150   7.834
25772WAT      O77557   4.855   2.570   3.220
25772WAT     H177558   4.940   2.611   3.251
25772WAT     H277559   4.829   2.496   3.281
25773WAT      O77560   6.630   3.547   4.181
25773WAT     H177561   6.620   3.539   4.082
25773WAT     H277562   6.717   3.593   4.202
25774WAT      O77563   2.763   0.220   9.135
25774WAT     H177564   2.721   0.136   9.170
25774WAT     H277565   2.781   0.210   9.037
25775WAT      O77566   0.826   7.013   2.159
25775WAT     H177567   0.747   7.046   2.210
25775WAT     H277568   0.854   6.925   2.195
25776WAT      O77569   3.986   8.269   9.607
25776WAT     H177570   3.959   8.188   9.554
25776WAT     H277571   3.905   8.323   9.629
25777WAT      O77572   2.984   8.030   0.230
25777WAT     H177573   2.965   8.037   0.132
25777WAT     H277574   2.934   8.102   0.279
25778WAT      O77575   1.115   7.182   6.003
25778WAT     H177576   1.113   7.187   6.103
25778WAT     H277577   1.210   7.179   5.972
25779WAT      O77578   6.793   9.610   6.767
25779WAT     H177579   6.880   9.592   6.814
25779WAT     H277580   6.792   9.705   6.736
25780WAT      O77581   5.777   3.294   9.244
25780WAT     H177582   5.736   3.382   9.222
25780WAT     H277583   5.801   3.246   9.160
25781WAT      O77584   5.278   0.385   1.437
25781WAT     H177585   5.345   0.433   1.493
25781WAT     H277586   5.307   0.291   1.422
25782WAT      O77587   3.261   5.780   9.872
25782WAT     H177588   3.186   5.778   9.937
25782WAT     H277589   3.251   5.858   9.811
25783WAT      O77590   7.075   3.874   2.099
25783WAT     H177591   7.149   3.832   2.151
25783WAT     H277592   7.067   3.830   2.010
25784WAT      O77593   7.315   2.492   6.854
25784WAT     H177594   7.254   2.434   6.908
25784WAT     H277595   7.392   2.438   6.821
25785WAT      O77596   9.465   7.680   1.595
25785WAT     H177597   9.442   7.640   1.684
25785WAT     H277598   9.508   7.610   1.538
25786WAT      O77599   8.663   0.044   1.628
25786WAT     H177600   8.582  -0.001   1.589
25786WAT     H277601   8.640   0.137   1.654
25787WAT      O77602   2.236   4.961   1.855
25787WAT     H177603   2.322   5.010   1.847
25787WAT     H277604   2.244   4.891   1.926
25788WAT      O77605   9.142   2.617   4.045
25788WAT     H177606   9.149   2.564   3.961
25788WAT     H277607   9.166   2.712   4.026
25789WAT      O77608   5.513   8.483   0.665
25789WAT     H177609   5.477   8.568   0.704
25789WAT     H277610   5.537   8.497   0.569
25790WAT      O77611   6.929   0.848   0.704
25790WAT     H177612   6.869   0.794   0.764
25790WAT     H277613   6.980   0.788   0.643
25791WAT      O77614   0.119   1.372   3.796
25791WAT     H177615   0.200   1.319   3.770
25791WAT     H277616   0.082   1.418   3.715
25792WAT      O77617   1.015   3.946   8.186
25792WAT     H177618   1.037   3.874   8.252
25792WAT     H277619   0.927   3.988   8.210
25793WAT      O77620   4.331   2.809   7.678
25793WAT     H177621   4.300   2.903   7.666
25793WAT     H277622   4.295   2.773   7.764
25794WAT      O77623   1.368   3.942   1.097
25794WAT     H177624   1.446   3.932   1.160
25794WAT     H277625   1.357   3.858   1.045
25795WAT      O77626   2.290   7.773   2.502
25795WAT     H177627   2.312   7.827   2.583
25795WAT     H277628   2.193   7.783   2.480
25796WAT      O77629   5.241   4.045   6.664
25796WAT     H177630   5.311   4.117   6.666
25796WAT     H277631   5.191   4.050   6.578
25797WAT      O77632   1.673   2.482   8.736
25797WAT     H177633   1.586   2.500   8.692
25797WAT     H277634   1.689   2.550   8.808
25798WAT      O77635   7.858   2.851   7.978
25798WAT     H177636   7.923   2.926   7.987
25798WAT     H277637   7.880   2.798   7.896
25799WAT      O77638   2.282   1.061   9.195
25799WAT     H177639   2.301   0.969   9.228
25799WAT     H277640   2.272   1.060   9.095
25800WAT      O77641   3.937   6.315   4.882
25800WAT     H177642   3.957   6.361   4.969
25800WAT     H277643   4.019   6.267   4.850
25801WAT      O77644   8.188   6.402   6.176
25801WAT     H177645   8.196   6.405   6.076
25801WAT     H277646   8.129   6.325   6.202
25802WAT      O77647   1.269   6.101   8.876
25802WAT     H177648   1.175   6.105   8.840
25802WAT     H277649   1.318   6.183   8.848
25803WAT      O77650   3.943   9.793   0.815
25803WAT     H177651   3.949   9.695   0.792
25803WAT     H277652   3.850   9.826   0.796
25804WAT      O77653   0.342   1.618   2.641
25804WAT     H177654   0.387   1.624   2.552
25804WAT     H277655   0.260   1.675   2.641
25805WAT      O77656   5.093   1.804   3.304
25805WAT     H177657   5.185   1.788   3.270
25805WAT     H277658   5.026   1.781   3.233
25806WAT      O77659   7.444   1.645   2.426
25806WAT     H177660   7.410   1.653   2.332
25806WAT     H277661   7.544   1.653   2.426
25807WAT      O77662   4.436   1.558   9.433
25807WAT     H177663   4.368   1.594   9.370
25807WAT     H277664   4.528   1.574   9.396
25808WAT      O77665   8.427   7.149   5.820
25808WAT     H177666   8.383   7.061   5.837
25808WAT     H277667   8.421   7.172   5.723
25809WAT      O77668   4.559   1.053   2.144
25809WAT     H177669   4.568   0.955   2.123
25809WAT     H277670   4.462   1.078   2.142
25810WAT      O77671   9.454   1.687   4.218
25810WAT     H177672   9.509   1.763   4.253
25810WAT     H277673   9.503   1.643   4.142
25811WAT      O77674   3.812   1.797   3.907
25811WAT     H177675   3.733   1.804   3.968
25811WAT     H277676   3.815   1.876   3.847
25812WAT      O77677   2.414   0.953   8.207
25812WAT     H177678   2.436   0.856   8.195
25812WAT     H277679   2.477   0.994   8.272
25813WAT      O77680   9.656   1.111   7.471
25813WAT     H177681   9.745   1.156   7.459
25813WAT     H277682   9.583   1.176   7.448
25814WAT      O77683   4.238   7.203   0.531
25814WAT     H177684   4.148   7.229   0.496
25814WAT     H277685   4.242   7.103   0.539
25815WAT      O77686   3.625   2.816   0.469
25815WAT     H177687   3.572   2.872   0.534
25815WAT     H277688   3.683   2.875   0.413
25816WAT      O77689   1.298   0.237   3.419
25816WAT     H177690   1.345   0.159   3.460
25816WAT     H277691   1.279   0.305   3.490
25817WAT      O77692   1.724   8.778   5.349
25817WAT     H177693   1.651   8.838   5.383
25817WAT     H277694   1.804   8.832   5.325
25818WAT      O77695   9.440   5.798   2.660
25818WAT     H177696   9.400   5.806   2.569
25818WAT     H277697   9.524   5.853   2.664
25819WAT      O77698   6.583   3.905   2.280
25819WAT     H177699   6.677   3.875   2.299
25819WAT     H277700   6.564   3.988   2.332
25820WAT      O77701   7.686   3.515   6.944
25820WAT     H177702   7.622   3.483   6.874
25820WAT     H277703   7.680   3.614   6.952
25821WAT      O77704   3.273   6.943   0.564
25821WAT     H177705   3.275   6.912   0.470
25821WAT     H277706   3.214   7.024   0.572
25822WAT      O77707   9.893   8.821   2.000
25822WAT     H177708   9.913   8.733   2.043
25822WAT     H277709   9.806   8.856   2.037
25823WAT      O77710   3.857   9.453   0.098
25823WAT     H177711   3.801   9.451   0.181
25823WAT     H277712   3.942   9.402   0.113
25824WAT      O77713   7.306   0.263   4.161
25824WAT     H177714   7.388   0.288   4.214
25824WAT     H277715   7.267   0.345   4.119
25825WAT      O77716   1.335   4.723   3.017
25825WAT     H177717   1.337   4.664   3.098
25825WAT     H277718   1.429   4.746   2.991
25826WAT      O77719   1.310   1.631   0.536
25826WAT     H177720   1.397   1.590   0.563
25826WAT     H277721   1.316   1.730   0.543
25827WAT      O77722   8.113   2.811   6.479
25827WAT     H177723   8.015   2.831   6.486
25827WAT     H277724   8.160   2.849   6.559
25828WAT      O77725   5.124   7.165   3.344
25828WAT     H177726   5.062   7.126   3.276
25828WAT     H277727   5.086   7.251   3.379
25829WAT      O77728   0.719   7.337   2.961
25829WAT     H177729   0.659   7.333   2.881
25829WAT     H277730   0.778   7.256   2.963
25830WAT      O77731   3.481   3.754   8.868
25830WAT     H177732   3.424   3.835   8.878
25830WAT     H277733   3.546   3.749   8.944
25831WAT      O77734   2.311   6.856   7.034
25831WAT     H177735   2.245   6.905   7.091
25831WAT     H277736   2.342   6.774   7.083
25832WAT      O77737   8.150   4.018   3.628
25832WAT     H177738   8.212   3.944   3.655
25832WAT     H277739   8.203   4.101   3.611
25833WAT      O77740   4.429   6.308   3.283
25833WAT     H177741   4.423   6.325   3.381
25833WAT     H277742   4.352   6.352   3.236
25834WAT      O77743   1.509   6.398   7.913
25834WAT     H177744   1.459   6.346   7.843
25834WAT     H277745   1.580   6.453   7.868
25835WAT      O77746   6.068   9.259   7.797
25835WAT     H177747   6.090   9.176   7.848
25835WAT     H277748   6.046   9.333   7.860
25836WAT      O77749   5.592   2.852   0.138
25836WAT     H177750   5.630   2.813   0.223
25836WAT     H277751   5.524   2.921   0.161
25837WAT      O77752   5.610   3.622   2.425
25837WAT     H177753   5.697   3.672   2.430
25837WAT     H277754   5.574   3.628   2.332
25838WAT      O77755   5.655   9.450   5.592
25838WAT     H177756   5.624   9.408   5.677
25838WAT     H277757   5.749   9.482   5.602
25839WAT      O77758   6.558   9.776   2.205
25839WAT     H177759   6.514   9.722   2.133
25839WAT     H277760   6.628   9.720   2.249
25840WAT      O77761   0.204   7.163   3.453
25840WAT     H177762   0.239   7.182   3.361
25840WAT     H277763   0.270   7.196   3.520
25841WAT      O77764   3.530   0.476   7.878
25841WAT     H177765   3.512   0.408   7.948
25841WAT     H277766   3.464   0.551   7.885
25842WAT      O77767   8.422   4.505   2.019
25842WAT     H177768   8.514   4.523   1.985
25842WAT     H277769   8.360   4.578   1.989
25843WAT      O77770   5.702   4.309   8.735
25843WAT     H177771   5.704   4.270   8.643
25843WAT     H277772   5.779   4.274   8.788
25844WAT      O77773   2.398   1.486   0.727
25844WAT     H177774   2.467   1.470   0.797
25844WAT     H277775   2.317   1.430   0.746
25845WAT      O77776   9.787   4.636   9.238
25845WAT     H177777   9.750   4.610   9.149
25845WAT     H277778   9.882   4.666   9.228
25846WAT      O77779   5.374   3.677   0.570
25846WAT     H177780   5.339   3.674   0.664
25846WAT     H277781   5.332   3.605   0.516
25847WAT      O77782   5.260   9.736   9.709
25847WAT     H177783   5.329   9.719   9.781
25847WAT     H277784   5.176   9.687   9.731
25848WAT      O77785   1.343   1.079   1.289
25848WAT     H177786   1.317   0.983   1.302
25848WAT     H277787   1.443   1.085   1.279
25849WAT      O77788   2.736   0.459   5.956
25849WAT     H177789   2.707   0.524   5.885
25849WAT     H277790   2.758   0.371   5.914
25850WAT      O77791   0.204   7.303   7.067
25850WAT     H177792   0.216   7.250   7.151
25850WAT     H277793   0.239   7.250   6.989
25851WAT      O77794   0.552   8.256   2.364
25851WAT     H177795   0.636   8.296   2.400
25851WAT     H277796   0.548   8.160   2.390
25852WAT      O77797   8.007   1.645   2.844
25852WAT     H177798   7.984   1.681   2.935
25852WAT     H277799   8.094   1.683   2.814
25853WAT      O77800   2.028   4.603   8.662
25853WAT     H177801   2.101   4.615   8.730
25853WAT     H277802   2.046   4.522   8.607
25854WAT      O77803   4.593   9.551   5.517
25854WAT     H177804   4.671   9.539   5.456
25854WAT     H277805   4.622   9.605   5.597
25855WAT      O77806   5.296   2.247   0.757
25855WAT     H177807   5.259   2.155   0.769
25855WAT     H277808   5.369   2.262   0.824
25856WAT      O77809   0.816   9.811   6.799
25856WAT     H177810   0.871   9.749   6.855
25856WAT     H277811   0.798   9.894   6.851
25857WAT      O77812   8.649   6.339   0.365
25857WAT     H177813   8.561   6.387   0.359
25857WAT     H277814   8.636   6.243   0.342
25858WAT      O77815   7.731   0.064   5.159
25858WAT     H177816   7.661   0.095   5.094
25858WAT     H277817   7.805   0.019   5.110
25859WAT      O77818   2.745   7.070   6.963
25859WAT     H177819   2.729   7.096   6.868
25859WAT     H277820   2.826   7.011   6.969
25860WAT      O77821   5.306   9.262   2.073
25860WAT     H177822   5.244   9.206   2.016
25860WAT     H277823   5.274   9.261   2.167
25861WAT      O77824   7.670   7.644   6.851
25861WAT     H177825   7.667   7.567   6.788
25861WAT     H277826   7.713   7.616   6.937
25862WAT      O77827   4.428   0.985   0.107
25862WAT     H177828   4.438   0.916   0.179
25862WAT     H277829   4.418   0.939   0.018
25863WAT      O77830   0.979   4.474   7.673
25863WAT     H177831   1.009   4.387   7.634
25863WAT     H277832   0.924   4.524   7.606
25864WAT      O77833   7.773   3.012   3.991
25864WAT     H177834   7.759   3.060   3.904
25864WAT     H277835   7.818   2.925   3.974
25865WAT      O77836   7.690   5.617   8.558
25865WAT     H177837   7.769   5.557   8.542
25865WAT     H277838   7.655   5.651   8.471
25866WAT      O77839   4.558   6.230   1.764
25866WAT     H177840   4.527   6.173   1.688
25866WAT     H277841   4.491   6.302   1.781
25867WAT      O77842   7.146   3.383   9.563
25867WAT     H177843   7.088   3.349   9.638
25867WAT     H277844   7.135   3.482   9.555
25868WAT      O77845   9.227   3.261   0.038
25868WAT     H177846   9.236   3.340   0.099
25868WAT     H277847   9.295   3.192   0.062
25869WAT      O77848   9.217   1.502   4.816
25869WAT     H177849   9.192   1.595   4.789
25869WAT     H277850   9.258   1.503   4.907
25870WAT      O77851   8.002   0.536   0.412
25870WAT     H177852   7.914   0.569   0.446
25870WAT     H277853   8.068   0.533   0.487
25871WAT      O77854   4.996   7.575   9.046
25871WAT     H177855   5.018   7.661   9.091
25871WAT     H277856   4.916   7.533   9.089
25872WAT      O77857   6.620   6.423   7.020
25872WAT     H177858   6.704   6.457   7.063
25872WAT     H277859   6.567   6.500   6.986
25873WAT      O77860   6.447   5.627   1.054
25873WAT     H177861   6.449   5.543   0.999
25873WAT     H277862   6.402   5.699   1.002
25874WAT      O77863   7.262   4.656   5.941
25874WAT     H177864   7.164   4.656   5.959
25874WAT     H277865   7.312   4.637   6.025
25875WAT      O77866   0.775   1.833   4.186
25875WAT     H177867   0.812   1.807   4.097
25875WAT     H277868   0.737   1.925   4.180
25876WAT      O77869   4.200   2.997   9.131
25876WAT     H177870   4.270   2.925   9.126
25876WAT     H277871   4.109   2.956   9.124
25877WAT      O77872   8.428   2.975   6.210
25877WAT     H177873   8.499   2.971   6.280
25877WAT     H277874   8.443   2.903   6.142
25878WAT      O77875   4.418   7.837   0.495
25878WAT     H177876   4.402   7.870   0.588
25878WAT     H277877   4.430   7.738   0.496
25879WAT      O77878   2.152   6.023   8.867
25879WAT     H177879   2.200   6.020   8.780
25879WAT     H277880   2.145   6.118   8.898
25880WAT      O77881   7.158   6.198   5.974
25880WAT     H177882   7.064   6.166   5.967
25880WAT     H277883   7.220   6.119   5.968
25881WAT      O77884   1.099   3.245   1.077
25881WAT     H177885   1.179   3.222   1.132
25881WAT     H277886   1.078   3.342   1.088
25882WAT      O77887   1.089   6.589   7.026
25882WAT     H177888   1.178   6.617   7.062
25882WAT     H277889   1.016   6.639   7.073
25883WAT      O77890   5.994   9.329   4.879
25883WAT     H177891   6.006   9.352   4.783
25883WAT     H277892   6.043   9.245   4.900
25884WAT      O77893   4.666   8.499   9.112
25884WAT     H177894   4.575   8.457   9.115
25884WAT     H277895   4.700   8.500   9.018
25885WAT      O77896   2.852   0.917   1.389
25885WAT     H177897   2.884   1.012   1.384
25885WAT     H277898   2.919   0.857   1.345
25886WAT      O77899   9.677   8.764   4.273
25886WAT     H177900   9.738   8.841   4.292
25886WAT     H277901   9.679   8.742   4.176
25887WAT      O77902   5.642   7.139   0.813
25887WAT     H177903   5.642   7.039   0.819
25887WAT     H277904   5.549   7.173   0.826
25888WAT      O77905   6.444   5.065   4.756
25888WAT     H177906   6.459   5.118   4.839
25888WAT     H277907   6.377   5.111   4.698
25889WAT      O77908   4.522   4.023   4.576
25889WAT     H177909   4.511   4.095   4.507
25889WAT     H277910   4.432   3.988   4.602
25890WAT      O77911   0.630   7.530   2.332
25890WAT     H177912   0.712   7.546   2.278
25890WAT     H277913   0.653   7.478   2.415
25891WAT      O77914   7.826   8.644   0.896
25891WAT     H177915   7.860   8.719   0.954
25891WAT     H277916   7.852   8.661   0.801
25892WAT      O77917   0.250   2.132   8.995
25892WAT     H177918   0.286   2.121   8.903
25892WAT     H277919   0.302   2.204   9.042
25893WAT      O77920   8.883   9.399   3.951
25893WAT     H177921   8.839   9.347   4.024
25893WAT     H277922   8.918   9.485   3.988
25894WAT      O77923   0.962   5.644   2.497
25894WAT     H177924   0.989   5.720   2.439
25894WAT     H277925   0.868   5.618   2.476
25895WAT      O77926   1.247   3.667   9.652
25895WAT     H177927   1.291   3.594   9.704
25895WAT     H277928   1.153   3.680   9.684
25896WAT      O77929   1.497   1.522   1.692
25896WAT     H177930   1.561   1.449   1.667
25896WAT     H277931   1.431   1.488   1.758
25897WAT      O77932   0.121   5.764   5.598
25897WAT     H177933   0.196   5.726   5.543
25897WAT     H277934   0.146   5.759   5.695
25898WAT      O77935   3.460   1.460   7.234
25898WAT     H177936   3.380   1.519   7.245
25898WAT     H277937   3.451   1.407   7.149
25899WAT      O77938   1.070   4.828   9.747
25899WAT     H177939   1.118   4.895   9.690
25899WAT     H277940   1.075   4.738   9.705
25900WAT      O77941   5.930   6.060   3.748
25900WAT     H177942   5.848   6.005   3.765
25900WAT     H277943   5.964   6.042   3.656
25901WAT      O77944   2.068   0.249   0.093
25901WAT     H177945   2.035   0.326   0.039
25901WAT     H277946   2.120   0.187   0.035
25902WAT      O77947   5.764   0.467   7.575
25902WAT     H177948   5.707   0.388   7.549
25902WAT     H277949   5.730   0.548   7.527
25903WAT      O77950   3.645   4.541   5.643
25903WAT     H177951   3.669   4.456   5.689
25903WAT     H277952   3.701   4.616   5.679
25904WAT      O77953   6.274   3.004   3.573
25904WAT     H177954   6.232   2.913   3.572
25904WAT     H277955   6.343   3.008   3.645
25905WAT      O77956   7.759   8.153   9.446
25905WAT     H177957   7.714   8.183   9.362
25905WAT     H277958   7.848   8.197   9.453
25906WAT      O77959   2.251   2.982   1.233
25906WAT     H177960   2.246   2.909   1.164
25906WAT     H277961   2.344   3.019   1.235
25907WAT      O77962   5.403   5.889   9.421
25907WAT     H177963   5.409   5.819   9.350
25907WAT     H277964   5.484   5.885   9.479
25908WAT      O77965   9.850   2.997   1.399
25908WAT     H177966   9.792   2.943   1.460
25908WAT     H277967   9.841   2.963   1.305
25909WAT      O77968   2.382   8.015   8.855
25909WAT     H177969   2.349   8.103   8.887
25909WAT     H277970   2.380   8.012   8.755
25910WAT      O77971   3.139   0.012   5.908
25910WAT     H177972   3.195  -0.013   5.829
25910WAT     H277973   3.141  -0.063   5.974
25911WAT      O77974   1.043   3.789   2.198
25911WAT     H177975   0.980   3.797   2.121
25911WAT     H277976   1.094   3.703   2.191
25912WAT      O77977   3.118   6.033   5.348
25912WAT     H177978   3.209   6.053   5.386
25912WAT     H277979   3.084   6.114   5.300
25913WAT      O77980   8.831   6.165   1.372
25913WAT     H177981   8.869   6.109   1.299
25913WAT     H277982   8.783   6.107   1.438
25914WAT      O77983   1.727   6.509   7.745
25914WAT     H177984   1.794   6.443   7.713
25914WAT     H277985   1.772   6.577   7.803
25915WAT      O77986   0.468   1.900   8.857
25915WAT     H177987   0.400   1.832   8.828
25915WAT     H277988   0.439   1.990   8.827
25916WAT      O77989   8.526   8.525   6.431
25916WAT     H177990   8.533   8.547   6.334
25916WAT     H277991   8.434   8.548   6.464
25917WAT      O77992   8.213   9.472   8.798
25917WAT     H177993   8.266   9.529   8.861
25917WAT     H277994   8.209   9.379   8.833
25918WAT      O77995   7.489   3.092   8.510
25918WAT     H177996   7.557   3.046   8.567
25918WAT     H277997   7.437   3.156   8.566
25919WAT      O77998   9.606   7.582   8.828
25919WAT     H177999   9.621   7.603   8.925
25919WAT     H278000   9.514   7.544   8.816
25920WAT      O78001   4.414   0.895   8.132
25920WAT     H178002   4.412   0.797   8.149
25920WAT     H278003   4.323   0.934   8.144
25921WAT      O78004   7.494   6.737   7.026
25921WAT     H178005   7.399   6.709   7.016
25921WAT     H278006   7.498   6.832   7.057
25922WAT      O78007   8.702   6.334   7.880
25922WAT     H178008   8.663   6.369   7.796
25922WAT     H278009   8.640   6.352   7.956
25923WAT      O78010   0.057   1.455   8.607
25923WAT     H178011   0.015   1.546   8.609
25923WAT     H278012   0.130   1.451   8.674
25924WAT      O78013   5.379   3.455   6.970
25924WAT     H178014   5.434   3.463   7.053
25924WAT     H278015   5.440   3.461   6.890
25925WAT      O78016   1.353   3.254   4.120
25925WAT     H178017   1.445   3.233   4.086
25925WAT     H278018   1.300   3.299   4.047
25926WAT      O78019   1.643   8.180   6.628
25926WAT     H178020   1.622   8.107   6.693
25926WAT     H278021   1.562   8.237   6.614
25927WAT      O78022   7.899   0.377   3.729
25927WAT     H178023   7.879   0.383   3.827
25927WAT     H278024   7.960   0.300   3.711
25928WAT      O78025   0.939   9.181   7.022
25928WAT     H178026   1.034   9.188   6.994
25928WAT     H278027   0.889   9.262   6.990
25929WAT      O78028   6.914   4.461   9.679
25929WAT     H178029   6.991   4.403   9.653
25929WAT     H278030   6.905   4.462   9.778
25930WAT      O78031   5.430   1.217   5.545
25930WAT     H178032   5.444   1.267   5.460
25930WAT     H278033   5.363   1.144   5.530
25931WAT      O78034   8.765   3.311   8.628
25931WAT     H178035   8.815   3.269   8.552
25931WAT     H278036   8.829   3.335   8.701
25932WAT      O78037   9.555   4.416   9.797
25932WAT     H178038   9.525   4.387   9.706
25932WAT     H278039   9.569   4.515   9.797
25933WAT      O78040   7.722   8.050   9.037
25933WAT     H178041   7.694   8.080   8.946
25933WAT     H278042   7.805   8.097   9.064
25934WAT      O78043   2.112   4.512   3.115
25934WAT     H178044   2.114   4.417   3.083
25934WAT     H278045   2.022   4.531   3.155
25935WAT      O78046   3.655   3.946   2.947
25935WAT     H178047   3.735   3.958   2.889
25935WAT     H278048   3.577   3.996   2.908
25936WAT      O78049   3.131   8.068   3.744
25936WAT     H178050   3.132   8.044   3.841
25936WAT     H278051   3.040   8.104   3.720
25937WAT      O78052   3.690   4.418   1.961
25937WAT     H178053   3.719   4.499   1.911
25937WAT     H278054   3.719   4.426   2.056
25938WAT      O78055   6.728   6.649   6.370
25938WAT     H178056   6.811   6.593   6.376
25938WAT     H278057   6.752   6.742   6.343
25939WAT      O78058   5.667   4.660   2.224
25939WAT     H178059   5.746   4.687   2.279
25939WAT     H278060   5.621   4.583   2.267
25940WAT      O78061   2.892   4.228   3.241
25940WAT     H178062   2.888   4.322   3.206
25940WAT     H278063   2.843   4.167   3.179
25941WAT      O78064   9.753   5.609   0.728
25941WAT     H178065   9.754   5.629   0.826
25941WAT     H278066   9.755   5.510   0.713
25942WAT      O78067   9.579   7.509   6.050
25942WAT     H178068   9.635   7.556   5.981
25942WAT     H278069   9.532   7.431   6.007
25943WAT      O78070   6.238   5.210   8.514
25943WAT     H178071   6.142   5.225   8.538
25943WAT     H278072   6.244   5.182   8.418
25944WAT      O78073   0.058   1.076   7.680
25944WAT     H178074   0.035   0.980   7.669
25944WAT     H278075   0.153   1.091   7.653
25945WAT      O78076   1.085   7.522   4.526
25945WAT     H178077   0.989   7.538   4.502
25945WAT     H278078   1.134   7.490   4.445
25946WAT      O78079   8.256   2.595   0.069
25946WAT     H178080   8.168   2.620   0.029
25946WAT     H278081   8.242   2.530   0.143
25947WAT      O78082   2.235   3.840   0.965
25947WAT     H178083   2.290   3.923   0.974
25947WAT     H278084   2.141   3.865   0.941
25948WAT      O78085   2.872   9.698   9.097
25948WAT     H178086   2.806   9.731   9.166
25948WAT     H278087   2.945   9.647   9.143
25949WAT      O78088   7.607   2.031   0.963
25949WAT     H178089   7.631   2.058   1.056
25949WAT     H278090   7.680   2.058   0.900
25950WAT      O78091   4.019   1.061   1.958
25950WAT     H178092   3.946   1.115   1.916
25950WAT     H278093   3.981   1.002   2.029
25951WAT      O78094   7.311   8.997   7.476
25951WAT     H178095   7.396   8.972   7.429
25951WAT     H278096   7.234   8.951   7.432
25952WAT      O78097   5.026   1.954   3.686
25952WAT     H178098   5.050   2.003   3.602
25952WAT     H278099   4.929   1.967   3.706
25953WAT      O78100   3.876   1.748   0.079
25953WAT     H178101   3.831   1.658   0.075
25953WAT     H278102   3.935   1.752   0.160
25954WAT      O78103   3.616   7.536   3.056
25954WAT     H178104   3.552   7.605   3.091
25954WAT     H278105   3.565   7.463   3.010
25955WAT      O78106   7.288   9.556   9.622
25955WAT     H178107   7.246   9.465   9.626
25955WAT     H278108   7.295   9.585   9.526
25956WAT      O78109   0.831   2.547   9.772
25956WAT     H178110   0.927   2.558   9.800
25956WAT     H278111   0.828   2.489   9.691
25957WAT      O78112   0.990   8.595   7.055
25957WAT     H178113   0.946   8.529   6.995
25957WAT     H278114   1.011   8.678   7.004
25958WAT      O78115   1.502   4.811   6.840
25958WAT     H178116   1.542   4.830   6.930
25958WAT     H278117   1.403   4.799   6.849
25959WAT      O78118   9.475   0.975   2.590
25959WAT     H178119   9.473   1.075   2.591
25959WAT     H278120   9.383   0.939   2.598
25960WAT      O78121   8.028   3.665   1.475
25960WAT     H178122   7.949   3.627   1.428
25960WAT     H278123   8.000   3.743   1.531
25961WAT      O78124   3.786   2.302   4.248
25961WAT     H178125   3.696   2.316   4.209
25961WAT     H278126   3.802   2.368   4.322
25962WAT      O78127   9.685   7.905   9.422
25962WAT     H178128   9.771   7.929   9.467
25962WAT     H278129   9.691   7.926   9.325
25963WAT      O78130   0.787   9.258   3.504
25963WAT     H178131   0.866   9.245   3.444
25963WAT     H278132   0.819   9.268   3.599
25964WAT      O78133   6.490   5.226   9.185
25964WAT     H178134   6.396   5.260   9.176
25964WAT     H278135   6.524   5.248   9.277
25965WAT      O78136   4.241   3.785   8.199
25965WAT     H178137   4.156   3.756   8.243
25965WAT     H278138   4.233   3.881   8.171
25966WAT      O78139   6.941   6.957   2.029
25966WAT     H178140   6.937   6.859   2.008
25966WAT     H278141   7.037   6.987   2.030
25967WAT      O78142   4.561   3.564   1.622
25967WAT     H178143   4.650   3.593   1.587
25967WAT     H278144   4.488   3.613   1.575
25968WAT      O78145   2.655   6.924   0.895
25968WAT     H178146   2.630   6.930   0.798
25968WAT     H278147   2.747   6.885   0.903
25969WAT      O78148   2.409   8.156   7.849
25969WAT     H178149   2.400   8.238   7.906
25969WAT     H278150   2.485   8.168   7.786
25970WAT      O78151   5.269   0.268   7.919
25970WAT     H178152   5.297   0.247   8.012
25970WAT     H278153   5.264   0.183   7.866
25971WAT      O78154   9.421   2.785   8.989
25971WAT     H178155   9.330   2.796   8.949
25971WAT     H278156   9.439   2.860   9.054
25972WAT      O78157   0.731   2.029   9.746
25972WAT     H178158   0.740   1.953   9.681
25972WAT     H278159   0.728   2.116   9.695
25973WAT      O78160   7.245   0.455   8.484
25973WAT     H178161   7.244   0.555   8.482
25973WAT     H278162   7.215   0.423   8.574
25974WAT      O78163   3.714   6.249   1.135
25974WAT     H178164   3.657   6.213   1.061
25974WAT     H278165   3.699   6.347   1.144
25975WAT      O78166   9.253   9.602   7.017
25975WAT     H178167   9.179   9.626   6.954
25975WAT     H278168   9.257   9.502   7.027
25976WAT      O78169   9.837   6.121   6.819
25976WAT     H178170   9.785   6.185   6.763
25976WAT     H278171   9.815   6.027   6.791
25977WAT      O78172   0.106   7.563   4.531
25977WAT     H178173   0.141   7.603   4.616
25977WAT     H278174   0.033   7.621   4.494
25978WAT      O78175   1.030   8.357   0.372
25978WAT     H178176   1.004   8.308   0.289
25978WAT     H278177   0.967   8.434   0.386
25979WAT      O78178   5.721   9.011   8.333
25979WAT     H178179   5.754   9.083   8.394
25979WAT     H278180   5.767   8.925   8.355
25980WAT      O78181   3.757   7.004   4.426
25980WAT     H178182   3.750   6.977   4.330
25980WAT     H278183   3.685   7.071   4.447
25981WAT      O78184   8.959   4.793   5.565
25981WAT     H178185   8.949   4.702   5.524
25981WAT     H278186   8.878   4.848   5.545
25982WAT      O78187   2.298   0.304   3.769
25982WAT     H178188   2.295   0.242   3.848
25982WAT     H278189   2.320   0.251   3.687
25983WAT      O78190   1.545   8.167   6.141
25983WAT     H178191   1.551   8.107   6.221
25983WAT     H278192   1.492   8.122   6.069
25984WAT      O78193   0.132   2.804   5.738
25984WAT     H178194   0.160   2.867   5.665
25984WAT     H278195   0.204   2.737   5.753
25985WAT      O78196   7.683   3.511   6.139
25985WAT     H178197   7.657   3.566   6.060
25985WAT     H278198   7.675   3.566   6.222
25986WAT      O78199   5.736   0.811   6.309
25986WAT     H178200   5.760   0.905   6.284
25986WAT     H278201   5.812   0.750   6.286
25987WAT      O78202   4.172   5.251   6.923
25987WAT     H178203   4.194   5.341   6.884
25987WAT     H278204   4.125   5.264   7.011
25988WAT      O78205   7.782   7.450   0.268
25988WAT     H178206   7.868   7.426   0.313
25988WAT     H278207   7.793   7.440   0.169
25989WAT      O78208   5.497   3.683   5.901
25989WAT     H178209   5.418   3.636   5.861
25989WAT     H278210   5.479   3.781   5.904
25990WAT      O78211   0.025   0.700   9.089
25990WAT     H178212   0.048   0.685   9.185
25990WAT     H278213   0.108   0.704   9.035
25991WAT      O78214   9.262   7.126   4.649
25991WAT     H178215   9.168   7.155   4.668
25991WAT     H278216   9.264   7.026   4.639
25992WAT      O78217   2.422   2.895   1.986
25992WAT     H178218   2.411   2.853   2.076
25992WAT     H278219   2.519   2.914   1.970
25993WAT      O78220   3.571   3.981   3.884
25993WAT     H178221   3.564   3.975   3.785
25993WAT     H278222   3.647   3.923   3.915
25994WAT      O78223   9.123   1.333   1.499
25994WAT     H178224   9.031   1.364   1.474
25994WAT     H278225   9.128   1.234   1.489
25995WAT      O78226   4.168   3.982   2.476
25995WAT     H178227   4.144   3.925   2.555
25995WAT     H278228   4.170   4.078   2.504
25996WAT      O78229   1.614   1.284   3.652
25996WAT     H178230   1.660   1.196   3.661
25996WAT     H278231   1.517   1.274   3.671
25997WAT      O78232   8.493   5.553   3.596
25997WAT     H178233   8.536   5.535   3.685
25997WAT     H278234   8.474   5.467   3.550
25998WAT      O78235   1.322   8.365   9.217
25998WAT     H178236   1.310   8.402   9.125
25998WAT     H278237   1.377   8.282   9.213
25999WAT      O78238   0.314   4.100   2.383
25999WAT     H178239   0.339   4.194   2.359
25999WAT     H278240   0.348   4.078   2.474
26000WAT      O78241   4.005   9.507   6.593
26000WAT     H178242   4.019   9.606   6.587
26000WAT     H278243   3.910   9.489   6.617
26001WAT      O78244   5.668   1.483   6.565
26001WAT     H178245   5.660   1.486   6.665
26001WAT     H278246   5.737   1.550   6.536
26002WAT      O78247   3.577   7.760   3.779
26002WAT     H178248   3.522   7.688   3.736
26002WAT     H278249   3.567   7.754   3.878
26003WAT      O78250   7.408   5.927   2.847
26003WAT     H178251   7.427   5.833   2.820
26003WAT     H278252   7.403   5.933   2.946
26004WAT      O78253   1.176   9.138   3.661
26004WAT     H178254   1.157   9.060   3.601
26004WAT     H278255   1.090   9.187   3.678
26005WAT      O78256   5.899   9.773   8.792
26005WAT     H178257   5.933   9.857   8.834
26005WAT     H278258   5.967   9.701   8.802
26006WAT      O78259   1.249   1.487   7.457
26006WAT     H178260   1.220   1.424   7.529
26006WAT     H278261   1.314   1.553   7.495
26007WAT      O78262   0.867   7.019   9.069
26007WAT     H178263   0.822   7.049   8.984
26007WAT     H278264   0.802   6.967   9.124
26008WAT      O78265   0.275   2.397   5.065
26008WAT     H178266   0.196   2.454   5.045
26008WAT     H278267   0.262   2.349   5.152
26009WAT      O78268   4.872   2.474   0.434
26009WAT     H178269   4.879   2.382   0.394
26009WAT     H278270   4.950   2.529   0.406
26010WAT      O78271   6.539   6.937   9.393
26010WAT     H178272   6.590   6.871   9.338
26010WAT     H278273   6.484   6.995   9.334
26011WAT      O78274   2.553   5.365   1.532
26011WAT     H178275   2.475   5.421   1.503
26011WAT     H278276   2.519   5.280   1.572
26012WAT      O78277   6.269   5.736   4.050
26012WAT     H178278   6.322   5.819   4.035
26012WAT     H278279   6.309   5.684   4.126
26013WAT      O78280   3.456   9.236   2.104
26013WAT     H178281   3.555   9.240   2.089
26013WAT     H278282   3.434   9.283   2.190
26014WAT      O78283   3.348   0.099   4.652
26014WAT     H178284   3.423   0.067   4.595
26014WAT     H278285   3.266   0.110   4.596
26015WAT      O78286   0.144   5.734   8.620
26015WAT     H178287   0.228   5.703   8.575
26015WAT     H278288   0.166   5.800   8.691
26016WAT      O78289   1.394   6.289   6.683
26016WAT     H178290   1.451   6.371   6.684
26016WAT     H278291   1.298   6.314   6.671
26017WAT      O78292   7.377   4.714   4.616
26017WAT     H178293   7.325   4.778   4.673
26017WAT     H278294   7.317   4.674   4.547
26018WAT      O78295   2.060   3.476   2.511
26018WAT     H178296   2.145   3.425   2.523
26018WAT     H278297   2.026   3.506   2.600
26019WAT      O78298   2.845   2.369   4.740
26019WAT     H178299   2.761   2.327   4.773
26019WAT     H278300   2.831   2.468   4.729
26020WAT      O78301   8.140   4.701   3.432
26020WAT     H178302   8.072   4.774   3.443
26020WAT     H278303   8.229   4.741   3.415
26021WAT      O78304   0.099   0.773   5.179
26021WAT     H178305   0.076   0.840   5.250
26021WAT     H278306   0.025   0.769   5.112
26022WAT      O78307   6.422   1.182   7.813
26022WAT     H178308   6.413   1.221   7.904
26022WAT     H278309   6.466   1.248   7.753
26023WAT      O78310   6.514   4.329   5.846
26023WAT     H178311   6.610   4.338   5.820
26023WAT     H278312   6.490   4.401   5.910
26024WAT      O78313   3.315   9.202   6.667
26024WAT     H178314   3.259   9.216   6.586
26024WAT     H278315   3.357   9.289   6.694
26025WAT      O78316   9.744   8.086   7.183
26025WAT     H178317   9.746   8.186   7.183
26025WAT     H278318   9.757   8.053   7.090
26026WAT      O78319   6.003   7.856   6.070
26026WAT     H178320   6.050   7.817   5.991
26026WAT     H278321   6.013   7.955   6.069
26027WAT      O78322   1.229   1.541   9.249
26027WAT     H178323   1.158   1.470   9.242
26027WAT     H278324   1.245   1.581   9.158
26028WAT      O78325   6.814   7.339   2.679
26028WAT     H178326   6.902   7.308   2.714
26028WAT     H278327   6.827   7.407   2.608
26029WAT      O78328   1.933   7.970   4.616
26029WAT     H178329   1.908   8.014   4.703
26029WAT     H278330   2.028   7.941   4.620
26030WAT      O78331   9.752   9.818   3.619
26030WAT     H178332   9.797   9.872   3.691
26030WAT     H278333   9.723   9.879   3.545
26031WAT      O78334   8.137   2.246   9.356
26031WAT     H178335   8.156   2.162   9.407
26031WAT     H278336   8.078   2.306   9.411
26032WAT      O78337   6.821   1.241   7.067
26032WAT     H178338   6.824   1.267   7.163
26032WAT     H278339   6.739   1.187   7.049
26033WAT      O78340   4.096   0.168   5.813
26033WAT     H178341   4.100   0.255   5.763
26033WAT     H278342   4.131   0.095   5.755
26034WAT      O78343   0.029   3.190   2.580
26034WAT     H178344   0.125   3.212   2.566
26034WAT     H278345   0.017   3.150   2.671
26035WAT      O78346   0.521   5.291   0.190
26035WAT     H178347   0.531   5.204   0.142
26035WAT     H278348   0.488   5.360   0.126
26036WAT      O78349   0.880   2.149   9.244
26036WAT     H178350   0.922   2.129   9.332
26036WAT     H278351   0.949   2.188   9.182
26037WAT      O78352   8.824   9.521   1.441
26037WAT     H178353   8.780   9.589   1.382
26037WAT     H278354   8.853   9.565   1.526
26038WAT      O78355   2.459   5.817   2.861
26038WAT     H178356   2.548   5.862   2.848
26038WAT     H278357   2.407   5.820   2.776
26039WAT      O78358   1.686   7.436   6.997
26039WAT     H178359   1.706   7.503   6.926
26039WAT     H278360   1.701   7.477   7.087
26040WAT      O78361   8.062   9.577   6.237
26040WAT     H178362   8.036   9.633   6.158
26040WAT     H278363   8.084   9.636   6.314
26041WAT      O78364   4.506   5.068   1.402
26041WAT     H178365   4.542   5.160   1.416
26041WAT     H278366   4.417   5.072   1.356
26042WAT      O78367   4.934   6.884   5.893
26042WAT     H178368   4.959   6.906   5.799
26042WAT     H278369   4.911   6.787   5.900
26043WAT      O78370   9.505   4.474   4.225
26043WAT     H178371   9.554   4.488   4.139
26043WAT     H278372   9.564   4.499   4.302
26044WAT      O78373   5.162   0.771   3.632
26044WAT     H178374   5.089   0.813   3.578
26044WAT     H278375   5.170   0.818   3.720
26045WAT      O78376   8.348   1.963   8.335
26045WAT     H178377   8.338   1.993   8.430
26045WAT     H278378   8.344   1.863   8.332
26046WAT      O78379   4.021   1.193   8.460
26046WAT     H178380   4.052   1.098   8.450
26046WAT     H278381   4.033   1.223   8.555
26047WAT      O78382   0.994   0.098   7.656
26047WAT     H178383   0.980   0.130   7.563
26047WAT     H278384   1.090   0.072   7.669
26048WAT      O78385   4.589   8.106   6.386
26048WAT     H178386   4.600   8.024   6.330
26048WAT     H278387   4.678   8.135   6.421
26049WAT      O78388   3.449   9.421   3.060
26049WAT     H178389   3.494   9.337   3.092
26049WAT     H278390   3.432   9.482   3.137
26050WAT      O78391   8.495   5.174   3.282
26050WAT     H178392   8.563   5.179   3.209
26050WAT     H278393   8.423   5.110   3.257
26051WAT      O78394   0.554   2.506   4.113
26051WAT     H178395   0.558   2.606   4.120
26051WAT     H278396   0.576   2.466   4.202
26052WAT      O78397   4.176   0.866   4.852
26052WAT     H178398   4.171   0.871   4.752
26052WAT     H278399   4.256   0.918   4.883
26053WAT      O78400   4.596   3.666   4.339
26053WAT     H178401   4.645   3.724   4.404
26053WAT     H278402   4.575   3.579   4.382
26054WAT      O78403   2.017   2.694   7.212
26054WAT     H178404   2.067   2.610   7.192
26054WAT     H278405   2.080   2.761   7.252
26055WAT      O78406   3.752   7.860   9.089
26055WAT     H178407   3.796   7.805   9.019
26055WAT     H278408   3.731   7.803   9.168
26056WAT      O78409   2.679   3.499   9.312
26056WAT     H178410   2.643   3.586   9.279
26056WAT     H278411   2.742   3.461   9.244
26057WAT      O78412   5.527   4.872   7.030
26057WAT     H178413   5.594   4.943   7.050
26057WAT     H278414   5.458   4.870   7.101
26058WAT      O78415   7.120   0.773   6.482
26058WAT     H178416   7.042   0.726   6.524
26058WAT     H278417   7.203   0.754   6.535
26059WAT      O78418   7.659   7.247   9.202
26059WAT     H178419   7.721   7.188   9.254
26059WAT     H278420   7.575   7.197   9.181
26060WAT      O78421   5.225   2.240   3.251
26060WAT     H178422   5.164   2.314   3.221
26060WAT     H278423   5.266   2.197   3.171
26061WAT      O78424   0.412   4.191   3.311
26061WAT     H178425   0.382   4.263   3.374
26061WAT     H278426   0.333   4.138   3.280
26062WAT      O78427   9.854   5.976   2.753
26062WAT     H178428   9.904   6.042   2.697
26062WAT     H278429   9.919   5.918   2.802
26063WAT      O78430   0.116   2.815   8.156
26063WAT     H178431   0.148   2.747   8.089
26063WAT     H278432   0.017   2.827   8.145
26064WAT      O78433   1.563   4.308   5.669
26064WAT     H178434   1.516   4.386   5.627
26064WAT     H278435   1.557   4.229   5.608
26065WAT      O78436   4.577   3.895   2.023
26065WAT     H178437   4.649   3.839   1.981
26065WAT     H278438   4.594   3.991   2.004
26066WAT      O78439   0.510   8.488   3.349
26066WAT     H178440   0.585   8.444   3.396
26066WAT     H278441   0.519   8.473   3.250
26067WAT      O78442   7.663   9.344   5.636
26067WAT     H178443   7.586   9.295   5.676
26067WAT     H278444   7.631   9.433   5.602
26068WAT      O78445   8.342   8.231   5.297
26068WAT     H178446   8.398   8.149   5.296
26068WAT     H278447   8.323   8.260   5.203
26069WAT      O78448   4.821   4.716   7.731
26069WAT     H178449   4.894   4.684   7.792
26069WAT     H278450   4.791   4.640   7.673
26070WAT      O78451   1.336   2.745   4.456
26070WAT     H178452   1.426   2.788   4.455
26070WAT     H278453   1.266   2.814   4.436
26071WAT      O78454   9.812   7.393   8.868
26071WAT     H178455   9.732   7.453   8.863
26071WAT     H278456   9.832   7.357   8.777
26072WAT      O78457   0.458   7.251   1.822
26072WAT     H178458   0.419   7.161   1.842
26072WAT     H278459   0.456   7.307   1.905
26073WAT      O78460   7.965   4.920   8.203
26073WAT     H178461   7.888   4.892   8.260
26073WAT     H278462   7.988   5.015   8.221
26074WAT      O78463   4.629   4.088   7.735
26074WAT     H178464   4.560   4.029   7.693
26074WAT     H278465   4.585   4.168   7.775
26075WAT      O78466   4.058   0.740   9.524
26075WAT     H178467   4.071   0.761   9.621
26075WAT     H278468   4.146   0.725   9.481
26076WAT      O78469   7.627   9.014   6.107
26076WAT     H178470   7.608   8.917   6.120
26076WAT     H278471   7.553   9.069   6.146
26077WAT      O78472   5.852   7.289   7.285
26077WAT     H178473   5.907   7.313   7.365
26077WAT     H278474   5.782   7.358   7.270
26078WAT      O78475   6.185   4.841   1.079
26078WAT     H178476   6.191   4.805   1.172
26078WAT     H278477   6.193   4.765   1.014
26079WAT      O78478   8.167   3.011   7.488
26079WAT     H178479   8.207   2.992   7.578
26079WAT     H278480   8.093   3.078   7.498
26080WAT      O78481   1.152   6.790   9.092
26080WAT     H178482   1.237   6.748   9.059
26080WAT     H278483   1.093   6.719   9.130
26081WAT      O78484   6.478   5.279   3.665
26081WAT     H178485   6.491   5.332   3.749
26081WAT     H278486   6.397   5.313   3.617
26082WAT      O78487   8.301   1.906   1.916
26082WAT     H178488   8.350   1.848   1.851
26082WAT     H278489   8.327   2.001   1.904
26083WAT      O78490   1.747   2.783   8.404
26083WAT     H178491   1.773   2.719   8.331
26083WAT     H278492   1.817   2.784   8.475
26084WAT      O78493   5.551   0.814   4.569
26084WAT     H178494   5.565   0.719   4.599
26084WAT     H278495   5.639   0.853   4.541
26085WAT      O78496   5.202   5.418   2.088
26085WAT     H178497   5.180   5.444   2.182
26085WAT     H278498   5.219   5.500   2.034
26086WAT      O78499   2.454   3.896   5.873
26086WAT     H178500   2.552   3.892   5.893
26086WAT     H278501   2.411   3.810   5.903
26087WAT      O78502   3.764   9.279   6.470
26087WAT     H178503   3.857   9.245   6.459
26087WAT     H278504   3.706   9.207   6.508
26088WAT      O78505   7.529   4.321   5.336
26088WAT     H178506   7.475   4.389   5.287
26088WAT     H278507   7.545   4.242   5.278
26089WAT      O78508   7.860   6.846   7.547
26089WAT     H178509   7.762   6.869   7.545
26089WAT     H278510   7.912   6.915   7.498
26090WAT      O78511   5.523   1.223   1.350
26090WAT     H178512   5.496   1.276   1.430
26090WAT     H278513   5.618   1.194   1.360
26091WAT      O78514   2.156   6.416   0.964
26091WAT     H178515   2.219   6.482   0.921
26091WAT     H278516   2.108   6.460   1.040
26092WAT      O78517   5.124   4.417   7.346
26092WAT     H178518   5.184   4.403   7.267
26092WAT     H278519   5.178   4.452   7.423
26093WAT      O78520   7.465   3.398   4.562
26093WAT     H178521   7.487   3.301   4.565
26093WAT     H278522   7.409   3.417   4.481
26094WAT      O78523   3.304   7.649   4.476
26094WAT     H178524   3.336   7.578   4.414
26094WAT     H278525   3.209   7.632   4.501
26095WAT      O78526   6.605   6.412   9.304
26095WAT     H178527   6.608   6.320   9.342
26095WAT     H278528   6.596   6.406   9.204
26096WAT      O78529   1.874   2.160   8.379
26096WAT     H178530   1.967   2.158   8.416
26096WAT     H278531   1.868   2.099   8.300
26097WAT      O78532   0.564   0.107   1.648
26097WAT     H178533   0.579   0.008   1.657
26097WAT     H278534   0.615   0.141   1.569
26098WAT      O78535   5.504   6.401   5.088
26098WAT     H178536   5.490   6.302   5.088
26098WAT     H278537   5.580   6.425   5.149
26099WAT      O78538   7.622   4.498   8.165
26099WAT     H178539   7.600   4.560   8.090
26099WAT     H278540   7.582   4.408   8.146
26100WAT      O78541   2.906   4.451   1.733
26100WAT     H178542   2.909   4.550   1.725
26100WAT     H278543   2.851   4.413   1.659
26101WAT      O78544   9.469   0.105   2.141
26101WAT     H178545   9.434   0.065   2.056
26101WAT     H278546   9.392   0.126   2.202
26102WAT      O78547   6.545   0.704   7.216
26102WAT     H178548   6.615   0.765   7.180
26102WAT     H278549   6.469   0.698   7.150
26103WAT      O78550   5.751   2.474   9.454
26103WAT     H178551   5.764   2.480   9.553
26103WAT     H278552   5.693   2.396   9.432
26104WAT      O78553   1.539   8.845   2.740
26104WAT     H178554   1.591   8.841   2.655
26104WAT     H278555   1.601   8.854   2.817
26105WAT      O78556   8.619   8.496   0.200
26105WAT     H178557   8.574   8.439   0.132
26105WAT     H278558   8.552   8.559   0.240
26106WAT      O78559   0.104   2.967   5.989
26106WAT     H178560   0.007   2.959   6.011
26106WAT     H278561   0.123   2.916   5.905
26107WAT      O78562   6.095   5.774   0.199
26107WAT     H178563   6.148   5.691   0.181
26107WAT     H278564   6.039   5.795   0.119
26108WAT      O78565   9.784   9.001   7.060
26108WAT     H178566   9.831   9.064   7.120
26108WAT     H278567   9.779   9.040   6.968
26109WAT      O78568   9.048   3.968   5.823
26109WAT     H178569   9.135   4.008   5.852
26109WAT     H278570   8.999   4.034   5.766
26110WAT      O78571   9.609   3.332   2.369
26110WAT     H178572   9.514   3.329   2.336
26110WAT     H278573   9.653   3.245   2.350
26111WAT      O78574   1.915   9.394   1.943
26111WAT     H178575   1.848   9.458   1.905
26111WAT     H278576   1.943   9.329   1.873
26112WAT      O78577   0.016   4.480   1.636
26112WAT     H178578   0.110   4.480   1.672
26112WAT     H278579  -0.024   4.571   1.646
26113WAT      O78580   9.148   9.015   3.523
26113WAT     H178581   9.173   9.109   3.497
26113WAT     H278582   9.069   8.986   3.470
26114WAT      O78583   1.709   8.371   1.594
26114WAT     H178584   1.767   8.321   1.659
26114WAT     H278585   1.625   8.400   1.639
26115WAT      O78586   2.933   5.597   5.954
26115WAT     H178587   2.907   5.614   6.049
26115WAT     H278588   2.995   5.669   5.923
26116WAT      O78589   0.252   8.950   7.453
26116WAT     H178590   0.315   8.899   7.394
26116WAT     H278591   0.247   9.045   7.421
26117WAT      O78592   3.878   1.661   2.761
26117WAT     H178593   3.832   1.743   2.792
26117WAT     H278594   3.924   1.618   2.838
26118WAT      O78595   4.498   0.187   6.053
26118WAT     H178596   4.483   0.118   5.982
26118WAT     H278597   4.534   0.143   6.135
26119WAT      O78598   4.948   5.038   8.282
26119WAT     H178599   4.878   5.106   8.257
26119WAT     H278600   4.995   5.008   8.199
26120WAT      O78601   2.556   3.187   4.204
26120WAT     H178602   2.578   3.106   4.259
26120WAT     H278603   2.525   3.159   4.113
26121WAT      O78604   2.602   1.471   3.053
26121WAT     H178605   2.590   1.570   3.040
26121WAT     H278606   2.662   1.436   2.981
26122WAT      O78607   9.759   3.267   5.425
26122WAT     H178608   9.829   3.333   5.453
26122WAT     H278609   9.784   3.227   5.337
26123WAT      O78610   5.383   7.403   1.960
26123WAT     H178611   5.284   7.396   1.949
26123WAT     H278612   5.408   7.377   2.053
26124WAT      O78613   0.306   9.050   6.682
26124WAT     H178614   0.298   9.063   6.781
26124WAT     H278615   0.220   9.077   6.639
26125WAT      O78616   2.642   4.189   1.087
26125WAT     H178617   2.633   4.245   1.169
26125WAT     H278618   2.704   4.234   1.023
26126WAT      O78619   8.854   6.609   1.679
26126WAT     H178620   8.931   6.611   1.742
26126WAT     H278621   8.869   6.675   1.605
26127WAT      O78622   4.421   4.684   6.378
26127WAT     H178623   4.389   4.593   6.351
26127WAT     H278624   4.519   4.682   6.396
26128WAT      O78625   0.615   2.933   9.043
26128WAT     H178626   0.545   2.864   9.063
26128WAT     H278627   0.609   3.007   9.109
26129WAT      O78628   6.787   7.293   7.452
26129WAT     H178629   6.777   7.272   7.549
26129WAT     H278630   6.740   7.224   7.397
26130WAT      O78631   1.741   6.197   8.635
26130WAT     H178632   1.647   6.184   8.606
26130WAT     H278633   1.747   6.184   8.734
26131WAT      O78634   3.931   1.606   6.189
26131WAT     H178635   3.925   1.531   6.255
26131WAT     H278636   3.965   1.571   6.102
26132WAT      O78637   6.840   0.170   0.049
26132WAT     H178638   6.895   0.254   0.046
26132WAT     H278639   6.814   0.151   0.144
26133WAT      O78640   7.060   2.796   4.612
26133WAT     H178641   6.993   2.788   4.539
26133WAT     H278642   7.047   2.882   4.661
26134WAT      O78643   1.118   8.004   7.414
26134WAT     H178644   1.108   8.047   7.324
26134WAT     H278645   1.132   8.075   7.483
26135WAT      O78646   8.748   3.875   1.146
26135WAT     H178647   8.787   3.961   1.112
26135WAT     H278648   8.822   3.811   1.167
26136WAT      O78649   0.544   7.789   7.336
26136WAT     H178650   0.590   7.713   7.381
26136WAT     H278651   0.528   7.767   7.239
26137WAT      O78652   6.582   6.344   3.381
26137WAT     H178653   6.561   6.303   3.470
26137WAT     H278654   6.678   6.369   3.378
26138WAT      O78655   0.251   4.939   5.100
26138WAT     H178656   0.262   5.034   5.126
26138WAT     H278657   0.169   4.929   5.043
26139WAT      O78658   5.223   8.034   6.308
26139WAT     H178659   5.318   8.030   6.338
26139WAT     H278660   5.169   8.087   6.374
26140WAT      O78661   3.863   8.601   3.783
26140WAT     H178662   3.957   8.599   3.749
26140WAT     H278663   3.800   8.615   3.706
26141WAT      O78664   8.080   8.500   0.118
26141WAT     H178665   8.164   8.548   0.144
26141WAT     H278666   8.025   8.483   0.201
26142WAT      O78667   5.881   6.920   9.663
26142WAT     H178668   5.833   6.834   9.681
26142WAT     H278669   5.891   6.932   9.564
26143WAT      O78670   4.777   5.866   0.973
26143WAT     H178671   4.752   5.884   0.878
26143WAT     H278672   4.819   5.776   0.981
26144WAT      O78673   3.977   7.310   7.335
26144WAT     H178674   4.038   7.256   7.393
26144WAT     H278675   3.911   7.358   7.394
26145WAT      O78676   4.036   3.870   4.207
26145WAT     H178677   4.040   3.772   4.228
26145WAT     H278678   3.972   3.915   4.269
26146WAT      O78679   9.301   6.043   6.693
26146WAT     H178680   9.303   6.108   6.769
26146WAT     H278681   9.207   6.012   6.679
26147WAT      O78682   5.705   4.453   8.001
26147WAT     H178683   5.717   4.354   7.988
26147WAT     H278684   5.738   4.478   8.092
26148WAT      O78685   9.786   0.555   6.821
26148WAT     H178686   9.884   0.535   6.830
26148WAT     H278687   9.733   0.481   6.862
26149WAT      O78688   2.138   0.918   6.449
26149WAT     H178689   2.167   0.921   6.353
26149WAT     H278690   2.219   0.916   6.508
26150WAT      O78691   2.648   1.114   2.878
26150WAT     H178692   2.640   1.030   2.824
26150WAT     H278693   2.725   1.105   2.942
26151WAT      O78694   5.196   8.665   1.963
26151WAT     H178695   5.190   8.605   2.043
26151WAT     H278696   5.104   8.687   1.932
26152WAT      O78697   8.421   8.117   1.465
26152WAT     H178698   8.424   8.212   1.433
26152WAT     H278699   8.387   8.114   1.558
26153WAT      O78700   5.542   8.549   9.255
26153WAT     H178701   5.572   8.454   9.261
26153WAT     H278702   5.543   8.590   9.345
26154WAT      O78703   7.072   5.278   3.378
26154WAT     H178704   6.994   5.299   3.318
26154WAT     H278705   7.154   5.265   3.322
26155WAT      O78706   1.836   3.918   0.239
26155WAT     H178707   1.929   3.929   0.204
26155WAT     H278708   1.783   3.861   0.177
26156WAT      O78709   6.271   0.245   9.511
26156WAT     H178710   6.230   0.299   9.438
26156WAT     H278711   6.289   0.152   9.478
26157WAT      O78712   1.728   4.263   1.579
26157WAT     H178713   1.781   4.333   1.530
26157WAT     H278714   1.707   4.295   1.671
26158WAT      O78715   5.326   9.398   7.277
26158WAT     H178716   5.274   9.396   7.362
26158WAT     H278717   5.302   9.480   7.225
26159WAT      O78718   7.381   7.799   9.010
26159WAT     H178719   7.332   7.885   8.992
26159WAT     H278720   7.377   7.741   8.929
26160WAT      O78721   2.386   1.771   7.359
26160WAT     H178722   2.448   1.776   7.281
26160WAT     H278723   2.437   1.741   7.440
26161WAT      O78724   6.349   6.682   4.233
26161WAT     H178725   6.413   6.756   4.251
26161WAT     H278726   6.357   6.614   4.307
26162WAT      O78727   1.342   5.972   1.392
26162WAT     H178728   1.249   5.986   1.425
26162WAT     H278729   1.372   6.053   1.343
26163WAT      O78730   5.561   3.549   9.509
26163WAT     H178731   5.566   3.449   9.501
26163WAT     H278732   5.544   3.574   9.605
26164WAT      O78733   3.703   5.020   7.285
26164WAT     H178734   3.771   5.076   7.237
26164WAT     H278735   3.635   4.986   7.219
26165WAT      O78736   5.646   8.328   7.648
26165WAT     H178737   5.557   8.373   7.649
26165WAT     H278738   5.636   8.232   7.673
26166WAT      O78739   8.081   5.690   1.586
26166WAT     H178740   8.112   5.723   1.497
26166WAT     H278741   7.989   5.652   1.578
26167WAT      O78742   0.260   3.894   5.497
26167WAT     H178743   0.259   3.816   5.559
26167WAT     H278744   0.307   3.971   5.541
26168WAT      O78745   4.942   4.245   5.554
26168WAT     H178746   5.029   4.200   5.570
26168WAT     H278747   4.925   4.313   5.625
26169WAT      O78748   2.365   8.450   4.111
26169WAT     H178749   2.378   8.547   4.092
26169WAT     H278750   2.365   8.435   4.210
26170WAT      O78751   3.777   3.658   0.102
26170WAT     H178752   3.729   3.711   0.173
26170WAT     H278753   3.856   3.613   0.143
26171WAT      O78754   8.393   7.414   5.817
26171WAT     H178755   8.435   7.432   5.729
26171WAT     H278756   8.393   7.316   5.835
26172WAT      O78757   3.429   0.014   3.830
26172WAT     H178758   3.363  -0.040   3.779
26172WAT     H278759   3.382   0.091   3.874
26173WAT      O78760   8.975   4.259   4.345
26173WAT     H178761   8.967   4.356   4.365
26173WAT     H278762   8.993   4.209   4.430
26174WAT      O78763   0.661   9.773   5.989
26174WAT     H178764   0.655   9.864   5.948
26174WAT     H278765   0.653   9.703   5.918
26175WAT      O78766   2.848   6.130   1.926
26175WAT     H178767   2.835   6.041   1.882
26175WAT     H278768   2.765   6.185   1.916
26176WAT      O78769   2.039   5.277   5.985
26176WAT     H178770   2.047   5.356   5.923
26176WAT     H278771   2.044   5.192   5.932
26177WAT      O78772   3.897   8.381   5.921
26177WAT     H178773   3.831   8.456   5.929
26177WAT     H278774   3.976   8.412   5.867
26178WAT      O78775   6.625   2.225   1.263
26178WAT     H178776   6.588   2.254   1.351
26178WAT     H278777   6.555   2.177   1.211
26179WAT      O78778   2.301   0.360   9.170
26179WAT     H178779   2.281   0.424   9.096
26179WAT     H278780   2.400   0.348   9.179
26180WAT      O78781   3.322   2.306   0.040
26180WAT     H178782   3.414   2.269   0.026
26180WAT     H278783   3.297   2.365  -0.037
26181WAT      O78784   1.941   3.498   2.279
26181WAT     H178785   1.988   3.489   2.366
26181WAT     H278786   1.949   3.412   2.228
26182WAT      O78787   8.749   4.693   4.347
26182WAT     H178788   8.751   4.671   4.445
26182WAT     H278789   8.830   4.746   4.323
26183WAT      O78790   8.222   1.879   6.423
26183WAT     H178791   8.214   1.969   6.381
26183WAT     H278792   8.297   1.829   6.380
26184WAT      O78793   3.597   7.579   5.179
26184WAT     H178794   3.510   7.613   5.215
26184WAT     H278795   3.629   7.641   5.107
26185WAT      O78796   2.161   1.784   3.566
26185WAT     H178797   2.101   1.761   3.643
26185WAT     H278798   2.142   1.878   3.536
26186WAT      O78799   4.907   9.833   1.800
26186WAT     H178800   4.819   9.830   1.846
26186WAT     H278801   4.952   9.921   1.818
26187WAT      O78802   2.102   6.164   8.345
26187WAT     H178803   2.031   6.230   8.371
26187WAT     H278804   2.095   6.143   8.248
26188WAT      O78805   9.283   7.512   7.937
26188WAT     H178806   9.282   7.483   8.033
26188WAT     H278807   9.200   7.481   7.892
26189WAT      O78808   2.898   9.369   3.083
26189WAT     H178809   2.947   9.327   3.008
26189WAT     H278810   2.863   9.459   3.054
26190WAT      O78811   1.085   3.262   9.677
26190WAT     H178812   1.110   3.206   9.598
26190WAT     H278813   1.162   3.268   9.740
26191WAT      O78814   1.969   9.770   5.395
26191WAT     H178815   1.952   9.848   5.336
26191WAT     H278816   2.040   9.793   5.462
26192WAT      O78817   3.383   5.132   0.597
26192WAT     H178818   3.371   5.224   0.634
26192WAT     H278819   3.345   5.127   0.505
26193WAT      O78820   1.806   2.216   2.028
26193WAT     H178821   1.713   2.194   2.058
26193WAT     H278822   1.861   2.243   2.107
26194WAT      O78823   0.890   2.432   4.446
26194WAT     H178824   0.964   2.366   4.427
26194WAT     H278825   0.901   2.469   4.539
26195WAT      O78826   2.271   4.613   4.501
26195WAT     H178827   2.366   4.590   4.482
26195WAT     H278828   2.227   4.648   4.418
26196WAT      O78829   8.202   4.475   5.989
26196WAT     H178830   8.107   4.492   5.960
26196WAT     H278831   8.264   4.529   5.932
26197WAT      O78832   1.585   8.713   2.380
26197WAT     H178833   1.611   8.798   2.426
26197WAT     H278834   1.643   8.639   2.413
26198WAT      O78835   2.408   5.350   2.925
26198WAT     H178836   2.327   5.296   2.947
26198WAT     H278837   2.397   5.443   2.962
26199WAT      O78838   6.189   2.466   5.738
26199WAT     H178839   6.105   2.412   5.739
26199WAT     H278840   6.168   2.561   5.764
26200WAT      O78841   8.856   5.971   8.107
26200WAT     H178842   8.908   6.048   8.144
26200WAT     H278843   8.892   5.885   8.144
26201WAT      O78844   6.624   0.669   1.597
26201WAT     H178845   6.580   0.732   1.662
26201WAT     H278846   6.675   0.722   1.529
26202WAT      O78847   2.950   1.584   1.860
26202WAT     H178848   2.862   1.544   1.888
26202WAT     H278849   2.934   1.655   1.791
26203WAT      O78850   1.626   8.982   0.422
26203WAT     H178851   1.582   8.898   0.391
26203WAT     H278852   1.725   8.974   0.408
26204WAT      O78853   5.065   4.936   8.064
26204WAT     H178854   5.082   4.837   8.058
26204WAT     H278855   5.038   4.970   7.974
26205WAT      O78856   6.125   9.246   2.852
26205WAT     H178857   6.105   9.270   2.948
26205WAT     H278858   6.059   9.292   2.793
26206WAT      O78859   5.629   3.118   0.736
26206WAT     H178860   5.649   3.041   0.797
26206WAT     H278861   5.607   3.083   0.645
26207WAT      O78862   4.527   3.342   1.424
26207WAT     H178863   4.525   3.393   1.510
26207WAT     H278864   4.472   3.390   1.355
26208WAT      O78865   1.897   5.368   2.259
26208WAT     H178866   1.958   5.289   2.263
26208WAT     H278867   1.886   5.397   2.164
26209WAT      O78868   7.523   0.379   8.733
26209WAT     H178869   7.479   0.462   8.766
26209WAT     H278870   7.473   0.299   8.765
26210WAT      O78871   4.725   0.861   6.586
26210WAT     H178872   4.809   0.862   6.640
26210WAT     H278873   4.663   0.931   6.620
26211WAT      O78874   3.639   6.566   3.198
26211WAT     H178875   3.545   6.568   3.231
26211WAT     H278876   3.701   6.559   3.276
26212WAT      O78877   2.514   6.875   4.579
26212WAT     H178878   2.429   6.825   4.563
26212WAT     H278879   2.586   6.811   4.605
26213WAT      O78880   0.044   5.913   1.797
26213WAT     H178881   0.125   5.913   1.739
26213WAT     H278882   0.072   5.905   1.893
26214WAT      O78883   3.026   2.000   5.332
26214WAT     H178884   3.060   2.055   5.256
26214WAT     H278885   3.064   2.034   5.418
26215WAT      O78886   8.377   1.005   9.154
26215WAT     H178887   8.448   1.030   9.220
26215WAT     H278888   8.364   0.906   9.155
26216WAT      O78889   2.671   1.632   6.797
26216WAT     H178890   2.758   1.675   6.822
26216WAT     H278891   2.596   1.683   6.839
26217WAT      O78892   3.232   4.559   9.406
26217WAT     H178893   3.273   4.603   9.326
26217WAT     H278894   3.270   4.600   9.489
26218WAT      O78895   8.168   9.019   4.351
26218WAT     H178896   8.110   9.093   4.317
26218WAT     H278897   8.239   8.999   4.284
26219WAT      O78898   8.262   2.592   6.094
26219WAT     H178899   8.181   2.580   6.036
26219WAT     H278900   8.322   2.661   6.053
26220WAT      O78901   2.592   2.493   6.595
26220WAT     H178902   2.618   2.456   6.506
26220WAT     H278903   2.500   2.461   6.618
26221WAT      O78904   7.235   5.641   1.540
26221WAT     H178905   7.155   5.692   1.572
26221WAT     H278906   7.306   5.704   1.512
26222WAT      O78907   3.971   9.820   0.426
26222WAT     H178908   4.042   9.872   0.378
26222WAT     H278909   3.893   9.880   0.444
26223WAT      O78910   5.392   2.646   0.084
26223WAT     H178911   5.402   2.665  -0.014
26223WAT     H278912   5.461   2.697   0.135
26224WAT      O78913   4.699   3.663   0.555
26224WAT     H178914   4.766   3.688   0.485
26224WAT     H278915   4.738   3.594   0.616
26225WAT      O78916   1.074   0.801   6.082
26225WAT     H178917   1.085   0.743   6.001
26225WAT     H278918   1.021   0.882   6.058
26226WAT      O78919   5.192   4.483   2.658
26226WAT     H178920   5.198   4.534   2.573
26226WAT     H278921   5.252   4.403   2.654
26227WAT      O78922   4.155   4.475   0.983
26227WAT     H178923   4.105   4.477   0.896
26227WAT     H278924   4.253   4.476   0.966
26228WAT      O78925   1.093   7.752   9.132
26228WAT     H178926   1.015   7.767   9.192
26228WAT     H278927   1.160   7.826   9.143
26229WAT      O78928   3.945   7.012   0.797
26229WAT     H178929   3.850   6.989   0.813
26229WAT     H278930   4.003   6.933   0.816
26230WAT      O78931   0.888   2.193   4.689
26230WAT     H178932   0.913   2.290   4.684
26230WAT     H278933   0.969   2.137   4.676
26231WAT      O78934   5.390   1.523   6.428
26231WAT     H178935   5.488   1.544   6.431
26231WAT     H278936   5.358   1.504   6.520
26232WAT      O78937   0.160   5.847   3.368
26232WAT     H178938   0.116   5.761   3.393
26232WAT     H278939   0.095   5.904   3.317
26233WAT      O78940   2.207   3.891   6.556
26233WAT     H178941   2.236   3.986   6.562
26233WAT     H278942   2.249   3.839   6.630
26234WAT      O78943   9.530   0.594   8.376
26234WAT     H178944   9.565   0.538   8.451
26234WAT     H278945   9.607   0.634   8.325
26235WAT      O78946   2.672   9.297   5.494
26235WAT     H178947   2.712   9.386   5.473
26235WAT     H278948   2.589   9.310   5.548
26236WAT      O78949   6.390   5.136   2.569
26236WAT     H178950   6.429   5.228   2.575
26236WAT     H278951   6.306   5.133   2.624
26237WAT      O78952   6.328   2.125   1.271
26237WAT     H178953   6.263   2.055   1.301
26237WAT     H278954   6.383   2.090   1.195
26238WAT      O78955   7.542   5.379   4.855
26238WAT     H178956   7.464   5.438   4.878
26238WAT     H278957   7.614   5.390   4.924
26239WAT      O78958   6.540   5.041   1.276
26239WAT     H178959   6.610   5.089   1.329
26239WAT     H278960   6.557   4.942   1.280
26240WAT      O78961   0.635   9.250   8.785
26240WAT     H178962   0.593   9.213   8.702
26240WAT     H278963   0.569   9.309   8.831
26241WAT      O78964   7.349   1.862   6.045
26241WAT     H178965   7.335   1.941   5.985
26241WAT     H278966   7.332   1.889   6.140
26242WAT      O78967   8.223   7.837   4.394
26242WAT     H178968   8.317   7.856   4.421
26242WAT     H278969   8.163   7.843   4.474
26243WAT      O78970   8.863   0.451   8.697
26243WAT     H178971   8.918   0.415   8.622
26243WAT     H278972   8.783   0.499   8.661
26244WAT      O78973   5.362   1.747   3.194
26244WAT     H178974   5.409   1.836   3.188
26244WAT     H278975   5.402   1.684   3.127
26245WAT      O78976   4.253   7.371   3.850
26245WAT     H178977   4.331   7.333   3.800
26245WAT     H278978   4.183   7.401   3.785
26246WAT      O78979   0.538   6.196   6.951
26246WAT     H178980   0.534   6.098   6.930
26246WAT     H278981   0.633   6.224   6.961
26247WAT      O78982   3.715   4.948   2.154
26247WAT     H178983   3.776   4.920   2.080
26247WAT     H278984   3.709   5.048   2.157
26248WAT      O78985   8.680   0.394   9.854
26248WAT     H178986   8.697   0.470   9.917
26248WAT     H278987   8.694   0.424   9.760
26249WAT      O78988   6.649   5.548   0.510
26249WAT     H178989   6.721   5.571   0.575
26249WAT     H278990   6.560   5.574   0.549
26250WAT      O78991   5.484   0.809   4.271
26250WAT     H178992   5.491   0.805   4.370
26250WAT     H278993   5.523   0.725   4.232
26251WAT      O78994   5.433   5.342   2.794
26251WAT     H178995   5.369   5.265   2.798
26251WAT     H278996   5.447   5.379   2.886
26252WAT      O78997   1.858   3.933   1.098
26252WAT     H178998   1.910   4.019   1.094
26252WAT     H278999   1.899   3.872   1.165
26253WAT      O79000   0.186   0.118   0.876
26253WAT     H179001   0.157   0.071   0.959
26253WAT     H279002   0.198   0.051   0.802
26254WAT      O79003   5.930   1.733   2.165
26254WAT     H179004   5.901   1.659   2.226
26254WAT     H279005   6.020   1.711   2.127
26255WAT      O79006   9.477   3.109   8.852
26255WAT     H179007   9.423   3.031   8.821
26255WAT     H279008   9.562   3.077   8.894
26256WAT      O79009   2.520   2.821   6.896
26256WAT     H179010   2.583   2.749   6.866
26256WAT     H279011   2.571   2.907   6.908
26257WAT      O79012   8.503   9.147   1.776
26257WAT     H179013   8.556   9.231   1.770
26257WAT     H279014   8.408   9.169   1.800
26258WAT      O79015   7.420   9.134   6.987
26258WAT     H179016   7.474   9.090   7.059
26258WAT     H279017   7.426   9.234   6.997
26259WAT      O79018   7.054   7.714   5.386
26259WAT     H179019   6.980   7.710   5.319
26259WAT     H279020   7.128   7.771   5.352
26260WAT      O79021   6.105   6.100   4.588
26260WAT     H179022   6.100   6.092   4.687
26260WAT     H279023   6.156   6.182   4.564
26261WAT      O79024   7.271   2.978   1.073
26261WAT     H179025   7.337   3.050   1.052
26261WAT     H279026   7.319   2.893   1.093
26262WAT      O79027   7.557   3.322   5.275
26262WAT     H179028   7.585   3.402   5.329
26262WAT     H279029   7.555   3.347   5.178
26263WAT      O79030   4.729   4.399   6.520
26263WAT     H179031   4.699   4.362   6.607
26263WAT     H279032   4.829   4.407   6.519
26264WAT      O79033   3.726   8.381   1.220
26264WAT     H179034   3.626   8.390   1.214
26264WAT     H279035   3.751   8.347   1.310
26265WAT      O79036   1.248   4.407   3.944
26265WAT     H179037   1.254   4.451   3.855
26265WAT     H279038   1.159   4.427   3.985
26266WAT      O79039   4.710   3.733   0.134
26266WAT     H179040   4.778   3.734   0.207
26266WAT     H279041   4.683   3.639   0.115
26267WAT      O79042   6.430   1.760   3.083
26267WAT     H179043   6.382   1.699   3.146
26267WAT     H279044   6.406   1.736   2.989
26268WAT      O79045   5.416   8.069   9.395
26268WAT     H179046   5.322   8.103   9.389
26268WAT     H279047   5.475   8.124   9.336
26269WAT      O79048   6.044   2.109   4.066
26269WAT     H179049   5.953   2.145   4.087
26269WAT     H279050   6.069   2.041   4.136
26270WAT      O79051   8.224   6.285   6.623
26270WAT     H179052   8.154   6.215   6.608
26270WAT     H279053   8.182   6.376   6.615
26271WAT      O79054   4.350   2.450   1.270
26271WAT     H179055   4.362   2.539   1.313
26271WAT     H279056   4.342   2.461   1.171
26272WAT      O79057   3.124   8.356   1.760
26272WAT     H179058   3.065   8.338   1.838
26272WAT     H279059   3.116   8.452   1.733
26273WAT      O79060   1.950   3.968   8.721
26273WAT     H179061   2.012   4.005   8.791
26273WAT     H279062   1.965   4.015   8.635
26274WAT      O79063   0.712   6.264   5.702
26274WAT     H179064   0.804   6.265   5.742
26274WAT     H279065   0.704   6.338   5.635
26275WAT      O79066   7.629   9.044   1.614
26275WAT     H179067   7.651   8.999   1.701
26275WAT     H279068   7.598   8.975   1.548
26276WAT      O79069   9.163   6.468   6.504
26276WAT     H179070   9.128   6.454   6.597
26276WAT     H279071   9.122   6.401   6.443
26277WAT      O79072   3.859   6.203   7.135
26277WAT     H179073   3.941   6.166   7.179
26277WAT     H279074   3.778   6.159   7.174
26278WAT      O79075   6.918   5.495   6.292
26278WAT     H179076   6.905   5.433   6.215
26278WAT     H279077   6.900   5.446   6.377
26279WAT      O79078   1.186   7.850   6.672
26279WAT     H179079   1.184   7.948   6.651
26279WAT     H279080   1.231   7.800   6.598
26280WAT      O79081   4.036   1.177   3.266
26280WAT     H179082   3.936   1.172   3.267
26280WAT     H279083   4.067   1.207   3.175
26281WAT      O79084   8.365   7.096   0.131
26281WAT     H179085   8.413   7.147   0.202
26281WAT     H279086   8.338   7.157   0.057
26282WAT      O79087   2.808   5.872   3.352
26282WAT     H179088   2.763   5.789   3.383
26282WAT     H279089   2.907   5.862   3.361
26283WAT      O79090   2.374   4.387   4.773
26283WAT     H179091   2.357   4.454   4.846
26283WAT     H279092   2.291   4.335   4.756
26284WAT      O79093   3.629   7.322   5.088
26284WAT     H179094   3.634   7.406   5.142
26284WAT     H279095   3.533   7.298   5.071
26285WAT      O79096   8.320   7.748   2.917
26285WAT     H179097   8.347   7.820   2.981
26285WAT     H279098   8.396   7.684   2.904
26286WAT      O79099   3.272   2.210   1.166
26286WAT     H179100   3.342   2.140   1.155
26286WAT     H279101   3.313   2.293   1.202
26287WAT      O79102   2.613   1.476   0.918
26287WAT     H179103   2.643   1.387   0.885
26287WAT     H279104   2.662   1.548   0.869
26288WAT      O79105   3.994   0.387   7.661
26288WAT     H179106   3.903   0.370   7.699
26288WAT     H279107   4.048   0.440   7.726
26289WAT      O79108   2.494   7.787   9.581
26289WAT     H179109   2.441   7.708   9.550
26289WAT     H279110   2.438   7.841   9.644
26290WAT      O79111   9.849   4.691   7.222
26290WAT     H179112   9.783   4.617   7.238
26290WAT     H279113   9.942   4.655   7.226
26291WAT      O79114   3.499   5.700   1.988
26291WAT     H179115   3.555   5.781   1.974
26291WAT     H279116   3.437   5.688   1.911
26292WAT      O79117   4.979   7.904   8.964
26292WAT     H179118   4.926   7.832   9.009
26292WAT     H279119   4.940   7.993   8.987
26293WAT      O79120   5.905   3.674   4.981
26293WAT     H179121   5.957   3.758   4.971
26293WAT     H279122   5.814   3.695   5.016
26294WAT      O79123   0.512   3.144   8.241
26294WAT     H179124   0.523   3.108   8.149
26294WAT     H279125   0.414   3.156   8.261
26295WAT      O79126   5.901   0.273   9.397
26295WAT     H179127   5.992   0.314   9.388
26295WAT     H279128   5.907   0.175   9.377
26296WAT      O79129   0.203   2.395   2.558
26296WAT     H179130   0.106   2.390   2.532
26296WAT     H279131   0.235   2.489   2.547
26297WAT      O79132   0.656   9.517   4.882
26297WAT     H179133   0.740   9.502   4.934
26297WAT     H279134   0.661   9.467   4.795
26298WAT      O79135   6.172   5.106   2.345
26298WAT     H179136   6.236   5.035   2.374
26298WAT     H279137   6.132   5.150   2.426
26299WAT      O79138   2.565   5.563   9.734
26299WAT     H179139   2.619   5.533   9.812
26299WAT     H279140   2.469   5.574   9.761
26300WAT      O79141   6.424   9.675   0.254
26300WAT     H179142   6.456   9.714   0.168
26300WAT     H279143   6.397   9.580   0.240
26301WAT      O79144   3.219   0.860   8.540
26301WAT     H179145   3.184   0.848   8.633
26301WAT     H279146   3.143   0.864   8.475
26302WAT      O79147   2.864   7.841   5.618
26302WAT     H179148   2.838   7.863   5.524
26302WAT     H279149   2.782   7.838   5.676
26303WAT      O79150   9.836   2.794   3.586
26303WAT     H179151   9.777   2.777   3.507
26303WAT     H279152   9.845   2.710   3.640
26304WAT      O79153   0.702   5.925   3.068
26304WAT     H179154   0.648   5.981   3.131
26304WAT     H279155   0.754   5.857   3.120
26305WAT      O79156   8.703   1.418   9.161
26305WAT     H179157   8.742   1.493   9.214
26305WAT     H279158   8.716   1.332   9.209
26306WAT      O79159   4.959   3.602   7.034
26306WAT     H179160   5.010   3.597   6.948
26306WAT     H279161   4.893   3.527   7.038
26307WAT      O79162   0.807   8.470   3.747
26307WAT     H179163   0.883   8.535   3.739
26307WAT     H279164   0.838   8.388   3.796
26308WAT      O79165   0.462   1.101   2.374
26308WAT     H179166   0.476   1.195   2.406
26308WAT     H279167   0.529   1.080   2.303
26309WAT      O79168   2.326   7.156   6.975
26309WAT     H179169   2.340   7.242   6.926
26309WAT     H279170   2.363   7.162   7.067
26310WAT      O79171   1.047   1.966   1.890
26310WAT     H179172   0.958   1.968   1.844
26310WAT     H279173   1.104   2.041   1.856
26311WAT      O79174   8.056   2.758   8.852
26311WAT     H179175   8.042   2.677   8.795
26311WAT     H279176   7.969   2.805   8.866
26312WAT      O79177   1.925   4.697   7.231
26312WAT     H179178   1.876   4.672   7.147
26312WAT     H279179   1.996   4.765   7.210
26313WAT      O79180   0.435   5.814   2.827
26313WAT     H179181   0.426   5.792   2.925
26313WAT     H279182   0.521   5.779   2.793
26314WAT      O79183   5.046   4.084   5.790
26314WAT     H179184   5.055   4.069   5.692
26314WAT     H279185   5.088   4.171   5.815
26315WAT      O79186   7.767   3.464   0.592
26315WAT     H179187   7.687   3.442   0.537
26315WAT     H279188   7.820   3.537   0.547
26316WAT      O79189   3.473   8.125   2.201
26316WAT     H179190   3.403   8.061   2.171
26316WAT     H279191   3.432   8.197   2.256
26317WAT      O79192   4.364   7.011   5.593
26317WAT     H179193   4.363   7.092   5.651
26317WAT     H279194   4.376   6.930   5.650
26318WAT      O79195   4.527   8.549   7.658
26318WAT     H179196   4.585   8.469   7.648
26318WAT     H279197   4.433   8.525   7.631
26319WAT      O79198   3.258   8.132   1.057
26319WAT     H179199   3.222   8.194   1.126
26319WAT     H279200   3.358   8.132   1.061
26320WAT      O79201   2.166   9.705   1.624
26320WAT     H179202   2.239   9.669   1.682
26320WAT     H279203   2.204   9.773   1.561
26321WAT      O79204   0.329   1.481   7.669
26321WAT     H179205   0.413   1.514   7.712
26321WAT     H279206   0.349   1.449   7.577
26322WAT      O79207   2.162   8.302   4.011
26322WAT     H179208   2.219   8.371   4.056
26322WAT     H279209   2.126   8.339   3.925
26323WAT      O79210   7.701   0.936   4.248
26323WAT     H179211   7.774   0.983   4.197
26323WAT     H279212   7.698   0.970   4.341
26324WAT      O79213   2.437   7.954   1.181
26324WAT     H179214   2.491   8.038   1.170
26324WAT     H279215   2.368   7.968   1.252
26325WAT      O79216   7.235   0.213   9.676
26325WAT     H179217   7.136   0.212   9.693
26325WAT     H279218   7.265   0.123   9.646
26326WAT      O79219   2.667   6.454   4.125
26326WAT     H179220   2.727   6.516   4.073
26326WAT     H279221   2.581   6.501   4.144
26327WAT      O79222   8.576   9.509   9.776
26327WAT     H179223   8.577   9.605   9.805
26327WAT     H279224   8.564   9.505   9.676
26328WAT      O79225   9.717   3.297   2.900
26328WAT     H179226   9.687   3.349   2.820
26328WAT     H279227   9.787   3.232   2.873
26329WAT      O79228   4.255   0.336   5.992
26329WAT     H179229   4.195   0.261   5.963
26329WAT     H279230   4.341   0.298   6.027
26330WAT      O79231   8.124   3.167   4.542
26330WAT     H179232   8.177   3.116   4.609
26330WAT     H279233   8.051   3.108   4.506
26331WAT      O79234   6.221   0.712   0.249
26331WAT     H179235   6.230   0.726   0.150
26331WAT     H279236   6.304   0.741   0.295
26332WAT      O79237   3.582   4.301   4.325
26332WAT     H179238   3.485   4.295   4.349
26332WAT     H279239   3.635   4.323   4.407
26333WAT      O79240   6.326   1.149   0.770
26333WAT     H179241   6.415   1.158   0.813
26333WAT     H279242   6.254   1.150   0.840
26334WAT      O79243   5.679   1.492   5.449
26334WAT     H179244   5.694   1.438   5.531
26334WAT     H279245   5.585   1.479   5.417
26335WAT      O79246   9.419   7.777   7.164
26335WAT     H179247   9.514   7.749   7.174
26335WAT     H279248   9.361   7.721   7.223
26336WAT      O79249   2.025   9.274   2.437
26336WAT     H179250   2.002   9.371   2.432
26336WAT     H279251   2.002   9.229   2.351
26337WAT      O79252   2.058   6.693   6.367
26337WAT     H179253   1.975   6.730   6.409
26337WAT     H279254   2.040   6.672   6.271
26338WAT      O79255   6.131   5.433   6.375
26338WAT     H179256   6.159   5.402   6.284
26338WAT     H279257   6.132   5.533   6.378
26339WAT      O79258   6.809   8.429   5.963
26339WAT     H179259   6.771   8.412   5.872
26339WAT     H279260   6.909   8.430   5.958
26340WAT      O79261   7.523   3.455   9.845
26340WAT     H179262   7.612   3.466   9.800
26340WAT     H279263   7.521   3.367   9.894
26341WAT      O79264   5.215   6.298   0.721
26341WAT     H179265   5.291   6.277   0.783
26341WAT     H279266   5.175   6.213   0.688
26342WAT      O79267   8.901   8.376   2.410
26342WAT     H179268   8.941   8.293   2.369
26342WAT     H279269   8.822   8.404   2.357
26343WAT      O79270   2.236   7.132   8.632
26343WAT     H179271   2.139   7.127   8.656
26343WAT     H279272   2.246   7.145   8.533
26344WAT      O79273   4.140   2.437   3.700
26344WAT     H179274   4.112   2.387   3.618
26344WAT     H279275   4.219   2.495   3.678
26345WAT      O79276   3.361   7.388   5.677
26345WAT     H179277   3.373   7.307   5.620
26345WAT     H279278   3.274   7.432   5.654
26346WAT      O79279   9.176   5.021   9.788
26346WAT     H179280   9.168   4.954   9.714
26346WAT     H279281   9.245   5.089   9.764
26347WAT      O79282   4.734   3.839   6.647
26347WAT     H179283   4.684   3.752   6.644
26347WAT     H279284   4.832   3.820   6.639
26348WAT      O79285   5.869   8.795   4.939
26348WAT     H179286   5.783   8.839   4.914
26348WAT     H279287   5.919   8.769   4.856
26349WAT      O79288   2.765   6.265   8.935
26349WAT     H179289   2.694   6.201   8.963
26349WAT     H279290   2.835   6.217   8.882
26350WAT      O79291   1.743   6.261   2.408
26350WAT     H179292   1.810   6.332   2.429
26350WAT     H279293   1.789   6.184   2.365
26351WAT      O79294   7.194   6.618   9.826
26351WAT     H179295   7.215   6.711   9.856
26351WAT     H279296   7.270   6.582   9.773
26352WAT      O79297   5.924   0.525   9.060
26352WAT     H179298   5.891   0.589   9.129
26352WAT     H279299   5.866   0.444   9.059
26353WAT      O79300   4.054   8.415   8.360
26353WAT     H179301   4.054   8.451   8.267
26353WAT     H279302   3.981   8.347   8.369
26354WAT      O79303   3.096   9.539   8.649
26354WAT     H179304   3.101   9.448   8.608
26354WAT     H279305   3.165   9.547   8.721
26355WAT      O79306   2.350   1.798   3.773
26355WAT     H179307   2.334   1.891   3.805
26355WAT     H279308   2.291   1.778   3.695
26356WAT      O79309   2.445   6.731   3.837
26356WAT     H179310   2.441   6.651   3.897
26356WAT     H279311   2.394   6.806   3.878
26357WAT      O79312   5.737   0.915   8.847
26357WAT     H179313   5.794   0.834   8.835
26357WAT     H279314   5.659   0.892   8.906
26358WAT      O79315   7.311   2.397   0.831
26358WAT     H179316   7.214   2.409   0.848
26358WAT     H279317   7.332   2.415   0.735
26359WAT      O79318   1.333   6.693   7.105
26359WAT     H179319   1.419   6.647   7.125
26359WAT     H279320   1.351   6.784   7.068
26360WAT      O79321   0.323   6.200   3.237
26360WAT     H179322   0.298   6.294   3.212
26360WAT     H279323   0.263   6.136   3.189
26361WAT      O79324   9.165   8.008   9.372
26361WAT     H179325   9.101   7.984   9.299
26361WAT     H279326   9.249   7.956   9.360
26362WAT      O79327   7.128   9.571   9.384
26362WAT     H179328   7.069   9.637   9.338
26362WAT     H279329   7.199   9.541   9.321
26363WAT      O79330   0.753   3.993   8.244
26363WAT     H179331   0.701   4.032   8.168
26363WAT     H279332   0.712   3.907   8.272
26364WAT      O79333   9.226   4.792   3.172
26364WAT     H179334   9.240   4.759   3.079
26364WAT     H279335   9.157   4.865   3.172
26365WAT      O79336   0.727   8.391   5.384
26365WAT     H179337   0.773   8.388   5.295
26365WAT     H279338   0.795   8.376   5.456
26366WAT      O79339   5.975   0.857   0.609
26366WAT     H179340   5.959   0.773   0.557
26366WAT     H279341   5.968   0.936   0.547
26367WAT      O79342   5.598   8.931   4.340
26367WAT     H179343   5.539   8.984   4.401
26367WAT     H279344   5.686   8.916   4.385
26368WAT      O79345   5.632   2.011   0.905
26368WAT     H179346   5.618   2.001   0.807
26368WAT     H279347   5.612   1.924   0.951
26369WAT      O79348   7.046   8.178   2.864
26369WAT     H179349   6.967   8.202   2.807
26369WAT     H279350   7.014   8.160   2.958
26370WAT      O79351   5.276   2.054   9.831
26370WAT     H179352   5.211   2.088   9.762
26370WAT     H279353   5.239   1.971   9.873
26371WAT      O79354   4.097   2.319   3.465
26371WAT     H179355   4.041   2.398   3.438
26371WAT     H279356   4.122   2.268   3.383
26372WAT      O79357   8.145   2.969   0.222
26372WAT     H179358   8.116   2.906   0.151
26372WAT     H279359   8.083   3.048   0.224
26373WAT      O79360   6.706   7.602   5.554
26373WAT     H179361   6.768   7.680   5.564
26373WAT     H279362   6.709   7.545   5.636
26374WAT      O79363   0.123   3.443   5.233
26374WAT     H179364   0.068   3.425   5.151
26374WAT     H279365   0.217   3.463   5.205
26375WAT      O79366   2.308   5.655   1.269
26375WAT     H179367   2.244   5.732   1.266
26375WAT     H279368   2.393   5.680   1.222
26376WAT      O79369   1.338   3.181   6.519
26376WAT     H179370   1.291   3.109   6.569
26376WAT     H279371   1.285   3.266   6.526
26377WAT      O79372   8.240   4.585   2.385
26377WAT     H179373   8.216   4.518   2.455
26377WAT     H279374   8.157   4.625   2.347
26378WAT      O79375   1.293   1.218   2.252
26378WAT     H179376   1.334   1.309   2.258
26378WAT     H279377   1.319   1.164   2.333
26379WAT      O79378   5.941   1.285   9.216
26379WAT     H179379   6.020   1.344   9.203
26379WAT     H279380   5.862   1.322   9.168
26380WAT      O79381   7.146   9.388   9.033
26380WAT     H179382   7.240   9.358   9.015
26380WAT     H279383   7.112   9.342   9.115
26381WAT      O79384   5.519   5.505   4.091
26381WAT     H179385   5.427   5.501   4.050
26381WAT     H279386   5.517   5.462   4.181
26382WAT      O79387   0.957   8.033   4.969
26382WAT     H179388   0.962   7.937   4.997
26382WAT     H279389   1.033   8.054   4.908
26383WAT      O79390   7.853   1.687   1.131
26383WAT     H179391   7.807   1.740   1.202
26383WAT     H279392   7.835   1.727   1.041
26384WAT      O79393   6.240   4.534   8.333
26384WAT     H179394   6.263   4.457   8.393
26384WAT     H279395   6.159   4.511   8.278
26385WAT      O79396   7.980   0.846   6.442
26385WAT     H179397   8.020   0.924   6.394
26385WAT     H279398   7.958   0.873   6.536
26386WAT      O79399   0.613   7.452   3.546
26386WAT     H179400   0.660   7.373   3.586
26386WAT     H279401   0.677   7.507   3.494
26387WAT      O79402   9.504   3.641   7.537
26387WAT     H179403   9.435   3.609   7.602
26387WAT     H279404   9.548   3.723   7.574
26388WAT      O79405   5.442   7.481   2.790
26388WAT     H179406   5.358   7.524   2.822
26388WAT     H279407   5.498   7.454   2.869
26389WAT      O79408   8.176   5.739   8.157
26389WAT     H179409   8.229   5.802   8.213
26389WAT     H279410   8.209   5.742   8.063
26390WAT      O79411   8.883   6.997   7.899
26390WAT     H179412   8.841   7.074   7.947
26390WAT     H279413   8.973   6.978   7.937
26391WAT      O79414   9.107   6.278   4.313
26391WAT     H179415   9.189   6.277   4.369
26391WAT     H279416   9.131   6.259   4.217
26392WAT      O79417   1.409   7.474   8.573
26392WAT     H179418   1.421   7.493   8.671
26392WAT     H279419   1.496   7.483   8.526
26393WAT      O79420   6.290   6.106   0.524
26393WAT     H179421   6.306   6.088   0.427
26393WAT     H279422   6.207   6.059   0.553
26394WAT      O79423   3.910   7.669   0.621
26394WAT     H179424   4.001   7.677   0.661
26394WAT     H279425   3.900   7.736   0.547
26395WAT      O79426   9.016   1.578   5.335
26395WAT     H179427   9.091   1.555   5.397
26395WAT     H279428   9.047   1.567   5.240
26396WAT      O79429   1.920   4.066   2.920
26396WAT     H179430   1.953   4.117   2.840
26396WAT     H279431   1.912   3.969   2.897
26397WAT      O79432   3.753   4.902   7.532
26397WAT     H179433   3.749   4.948   7.443
26397WAT     H279434   3.675   4.932   7.587
26398WAT      O79435   9.399   5.224   6.535
26398WAT     H179436   9.469   5.208   6.466
26398WAT     H279437   9.364   5.318   6.526
26399WAT      O79438   9.130   3.861   1.262
26399WAT     H179439   9.229   3.870   1.268
26399WAT     H279440   9.091   3.859   1.354
26400WAT      O79441   7.946   1.314   6.668
26400WAT     H179442   7.886   1.387   6.702
26400WAT     H279443   7.984   1.263   6.746
26401WAT      O79444   1.299   9.327   2.927
26401WAT     H179445   1.333   9.391   2.858
26401WAT     H279446   1.340   9.237   2.914
26402WAT      O79447   6.056   5.670   7.897
26402WAT     H179448   5.978   5.681   7.836
26402WAT     H279449   6.123   5.742   7.880
26403WAT      O79450   8.864   5.725   8.245
26403WAT     H179451   8.844   5.726   8.343
26403WAT     H279452   8.909   5.639   8.221
26404WAT      O79453   5.018   5.302   2.495
26404WAT     H179454   5.054   5.219   2.452
26404WAT     H279455   4.973   5.358   2.426
26405WAT      O79456   9.569   4.478   8.058
26405WAT     H179457   9.541   4.572   8.074
26405WAT     H279458   9.506   4.415   8.104
26406WAT      O79459   4.928   1.416   7.908
26406WAT     H179460   4.961   1.340   7.964
26406WAT     H279461   4.831   1.431   7.927
26407WAT      O79462   2.914   4.007   6.678
26407WAT     H179463   2.863   4.001   6.593
26407WAT     H279464   2.874   3.945   6.746
26408WAT      O79465   1.552   5.658   7.486
26408WAT     H179466   1.588   5.707   7.565
26408WAT     H279467   1.552   5.560   7.505
26409WAT      O79468   4.270   3.547   4.427
26409WAT     H179469   4.359   3.504   4.408
26409WAT     H279470   4.197   3.483   4.402
26410WAT      O79471   2.246   1.841   7.946
26410WAT     H179472   2.332   1.820   7.900
26410WAT     H279473   2.215   1.762   7.998
26411WAT      O79474   3.718   4.520   7.774
26411WAT     H179475   3.626   4.521   7.812
26411WAT     H279476   3.779   4.576   7.831
26412WAT      O79477   0.981   9.050   1.376
26412WAT     H179478   1.080   9.047   1.395
26412WAT     H279479   0.946   8.956   1.371
26413WAT      O79480   5.609   2.421   7.018
26413WAT     H179481   5.682   2.453   7.078
26413WAT     H279482   5.521   2.442   7.059
26414WAT      O79483   0.970   0.423   8.975
26414WAT     H179484   0.884   0.377   8.995
26414WAT     H279485   0.952   0.518   8.948
26415WAT      O79486   1.069   4.473   4.501
26415WAT     H179487   1.123   4.526   4.567
26415WAT     H279488   0.972   4.483   4.521
26416WAT      O79489   3.491   4.994   6.556
26416WAT     H179490   3.580   4.996   6.602
26416WAT     H279491   3.475   4.904   6.516
26417WAT      O79492   1.178   7.902   0.402
26417WAT     H179493   1.102   7.967   0.397
26417WAT     H279494   1.158   7.832   0.471
26418WAT      O79495   7.384   1.267   6.554
26418WAT     H179496   7.408   1.345   6.496
26418WAT     H279497   7.299   1.225   6.521
26419WAT      O79498   6.856   7.281   4.099
26419WAT     H179499   6.820   7.348   4.035
26419WAT     H279500   6.853   7.190   4.057
26420WAT      O79501   8.257   1.939   0.217
26420WAT     H179502   8.287   2.006   0.285
26420WAT     H279503   8.161   1.955   0.195
26421WAT      O79504   2.529   3.235   8.466
26421WAT     H179505   2.467   3.158   8.479
26421WAT     H279506   2.480   3.321   8.484
26422WAT      O79507   3.262   7.619   7.033
26422WAT     H179508   3.338   7.565   7.068
26422WAT     H279509   3.263   7.617   6.933
26423WAT      O79510   2.421   9.059   6.672
26423WAT     H179511   2.333   9.098   6.645
26423WAT     H279512   2.407   8.998   6.750
26424WAT      O79513   0.516   7.750   1.867
26424WAT     H179514   0.586   7.679   1.858
26424WAT     H279515   0.473   7.743   1.957
26425WAT      O79516   7.565   5.597   5.172
26425WAT     H179517   7.595   5.679   5.221
26425WAT     H279518   7.511   5.540   5.234
26426WAT      O79519   7.480   2.008   7.996
26426WAT     H179520   7.465   2.074   8.070
26426WAT     H279521   7.560   1.952   8.017
26427WAT      O79522   2.418   6.998   7.591
26427WAT     H179523   2.390   6.928   7.656
26427WAT     H279524   2.419   6.959   7.498
26428WAT      O79525   8.916   7.693   6.645
26428WAT     H179526   8.911   7.790   6.668
26428WAT     H279527   8.915   7.638   6.728
26429WAT      O79528   6.712   1.094   5.987
26429WAT     H179529   6.759   1.034   6.052
26429WAT     H279530   6.662   1.165   6.037
26430WAT      O79531   9.200   0.764   3.951
26430WAT     H179532   9.243   0.679   3.918
26430WAT     H279533   9.235   0.785   4.043
26431WAT      O79534   2.395   9.409   8.319
26431WAT     H179535   2.399   9.505   8.346
26431WAT     H279536   2.312   9.368   8.357
26432WAT      O79537   2.861   9.179   7.915
26432WAT     H179538   2.848   9.196   8.013
26432WAT     H279539   2.834   9.085   7.894
26433WAT      O79540   5.662   7.263   7.536
26433WAT     H179541   5.755   7.297   7.530
26433WAT     H279542   5.597   7.339   7.526
26434WAT      O79543   0.857   3.389   3.456
26434WAT     H179544   0.878   3.413   3.550
26434WAT     H279545   0.866   3.471   3.398
26435WAT      O79546   4.840   9.012   1.129
26435WAT     H179547   4.807   8.994   1.222
26435WAT     H279548   4.862   8.925   1.085
26436WAT      O79549   3.306   1.934   1.856
26436WAT     H179550   3.269   1.965   1.768
26436WAT     H279551   3.335   2.013   1.910
26437WAT      O79552   8.750   1.354   0.773
26437WAT     H179553   8.681   1.373   0.843
26437WAT     H279554   8.822   1.423   0.778
26438WAT      O79555   8.362   0.497   0.681
26438WAT     H179556   8.350   0.545   0.595
26438WAT     H279557   8.374   0.562   0.755
26439WAT      O79558   4.187   2.076   1.005
26439WAT     H179559   4.120   2.112   1.070
26439WAT     H279560   4.158   2.097   0.912
26440WAT      O79561   3.911   5.003   6.138
26440WAT     H179562   4.010   4.997   6.149
26440WAT     H279563   3.871   5.049   6.217
26441WAT      O79564   9.400   4.446   5.982
26441WAT     H179565   9.473   4.448   5.913
26441WAT     H279566   9.311   4.437   5.936
26442WAT      O79567   6.308   8.474   4.707
26442WAT     H179568   6.261   8.432   4.628
26442WAT     H279569   6.271   8.436   4.791
26443WAT      O79570   0.210   3.867   8.762
26443WAT     H179571   0.217   3.939   8.693
26443WAT     H279572   0.197   3.779   8.717
26444WAT      O79573   8.029   0.439   6.931
26444WAT     H179574   8.069   0.368   6.874
26444WAT     H279575   7.929   0.435   6.923
26445WAT      O79576   5.379   7.036   3.099
26445WAT     H179577   5.289   6.993   3.106
26445WAT     H279578   5.402   7.079   3.187
26446WAT      O79579   3.238   2.431   6.585
26446WAT     H179580   3.140   2.424   6.604
26446WAT     H279581   3.273   2.517   6.624
26447WAT      O79582   3.482   7.162   8.655
26447WAT     H179583   3.438   7.229   8.595
26447WAT     H279584   3.428   7.151   8.738
26448WAT      O79585   9.514   6.649   0.521
26448WAT     H179586   9.457   6.683   0.447
26448WAT     H279587   9.599   6.613   0.483
26449WAT      O79588   8.001   3.603   4.936
26449WAT     H179589   8.021   3.698   4.960
26449WAT     H279590   7.961   3.599   4.845
26450WAT      O79591   7.548   5.190   6.250
26450WAT     H179592   7.578   5.193   6.345
26450WAT     H279593   7.496   5.273   6.228
26451WAT      O79594   5.940   8.464   7.911
26451WAT     H179595   5.892   8.551   7.918
26451WAT     H279596   6.022   8.467   7.968
26452WAT      O79597   8.749   3.872   3.386
26452WAT     H179598   8.713   3.965   3.377
26452WAT     H279599   8.673   3.807   3.383
26453WAT      O79600   8.626   4.314   9.012
26453WAT     H179601   8.636   4.407   8.976
26453WAT     H279602   8.555   4.314   9.083
26454WAT      O79603   8.606   8.874   3.814
26454WAT     H179604   8.558   8.786   3.812
26454WAT     H279605   8.704   8.858   3.804
26455WAT      O79606   9.850   8.748   8.422
26455WAT     H179607   9.887   8.841   8.431
26455WAT     H279608   9.923   8.682   8.431
26456WAT      O79609   7.165   9.205   9.472
26456WAT     H179610   7.184   9.255   9.556
26456WAT     H279611   7.177   9.107   9.487
26457WAT      O79612   1.388   4.378   6.771
26457WAT     H179613   1.400   4.476   6.754
26457WAT     H279614   1.443   4.351   6.851
26458WAT      O79615   3.499   4.420   3.486
26458WAT     H179616   3.568   4.464   3.429
26458WAT     H279617   3.489   4.324   3.460
26459WAT      O79618   1.024   2.868   9.663
26459WAT     H179619   1.057   2.798   9.726
26459WAT     H279620   1.099   2.900   9.606
26460WAT      O79621   9.461   8.996   6.587
26460WAT     H179622   9.379   8.946   6.616
26460WAT     H279623   9.433   9.083   6.545
26461WAT      O79624   0.294   2.445   9.681
26461WAT     H179625   0.368   2.451   9.748
26461WAT     H279626   0.247   2.357   9.690
26462WAT      O79627   4.820   7.856   0.020
26462WAT     H179628   4.739   7.798   0.022
26462WAT     H279629   4.898   7.806   0.058
26463WAT      O79630   9.495   9.175   9.373
26463WAT     H179631   9.559   9.216   9.309
26463WAT     H279632   9.536   9.172   9.464
26464WAT      O79633   1.465   0.623   3.251
26464WAT     H179634   1.534   0.556   3.281
26464WAT     H279635   1.438   0.603   3.157
26465WAT      O79636   4.893   8.693   1.303
26465WAT     H179637   4.862   8.769   1.360
26465WAT     H279638   4.992   8.697   1.291
26466WAT      O79639   7.033   3.745   7.010
26466WAT     H179640   7.022   3.815   6.939
26466WAT     H279641   6.947   3.696   7.023
26467WAT      O79642   8.259   8.429   7.562
26467WAT     H179643   8.265   8.478   7.650
26467WAT     H279644   8.344   8.379   7.547
26468WAT      O79645   2.644   5.397   0.092
26468WAT     H179646   2.616   5.418   0.186
26468WAT     H279647   2.596   5.315   0.060
26469WAT      O79648   4.855   9.406   2.316
26469WAT     H179649   4.841   9.332   2.250
26469WAT     H279650   4.915   9.475   2.276
26470WAT      O79651   8.015   7.891   9.611
26470WAT     H179652   8.033   7.974   9.664
26470WAT     H279653   8.000   7.915   9.515
26471WAT      O79654   1.816   4.733   5.635
26471WAT     H179655   1.768   4.725   5.723
26471WAT     H279656   1.900   4.680   5.638
26472WAT      O79657   7.368   1.223   7.656
26472WAT     H179658   7.427   1.256   7.731
26472WAT     H279659   7.278   1.201   7.692
26473WAT      O79660   7.628   1.923   0.376
26473WAT     H179661   7.611   1.836   0.329
26473WAT     H279662   7.630   1.997   0.309
26474WAT      O79663   8.477   2.517   5.217
26474WAT     H179664   8.503   2.592   5.277
26474WAT     H279665   8.388   2.480   5.246
26475WAT      O79666   8.832   4.892   0.480
26475WAT     H179667   8.810   4.868   0.575
26475WAT     H279668   8.828   4.991   0.469
26476WAT      O79669   4.240   7.529   5.969
26476WAT     H179670   4.176   7.559   6.039
26476WAT     H279671   4.279   7.610   5.924
26477WAT      O79672   1.825   9.310   9.636
26477WAT     H179673   1.851   9.400   9.670
26477WAT     H279674   1.737   9.283   9.676
26478WAT      O79675   6.414   2.038   6.663
26478WAT     H179676   6.334   2.091   6.636
26478WAT     H279677   6.497   2.090   6.641
26479WAT      O79678   1.921   8.774   0.190
26479WAT     H179679   1.863   8.719   0.250
26479WAT     H279680   2.016   8.745   0.202
26480WAT      O79681   9.599   4.571   6.371
26480WAT     H179682   9.514   4.540   6.413
26480WAT     H279683   9.640   4.496   6.320
26481WAT      O79684   2.086   0.999   5.693
26481WAT     H179685   2.048   1.052   5.617
26481WAT     H279686   2.110   0.907   5.661
26482WAT      O79687   8.734   3.992   6.885
26482WAT     H179688   8.646   4.012   6.842
26482WAT     H279689   8.801   3.971   6.814
26483WAT      O79690   7.378   4.470   0.160
26483WAT     H179691   7.339   4.479   0.251
26483WAT     H279692   7.395   4.374   0.140
26484WAT      O79693   8.401   9.260   8.245
26484WAT     H179694   8.334   9.317   8.291
26484WAT     H279695   8.367   9.235   8.154
26485WAT      O79696   4.763   4.892   9.176
26485WAT     H179697   4.776   4.969   9.113
26485WAT     H279698   4.846   4.837   9.179
26486WAT      O79699   4.684   8.683   6.264
26486WAT     H179700   4.651   8.714   6.175
26486WAT     H279701   4.782   8.663   6.258
26487WAT      O79702   2.398   8.716   4.051
26487WAT     H179703   2.344   8.797   4.072
26487WAT     H279704   2.495   8.741   4.048
26488WAT      O79705   7.106   9.207   8.306
26488WAT     H179706   7.078   9.194   8.212
26488WAT     H279707   7.205   9.197   8.313
26489WAT      O79708   7.699   3.101   5.815
26489WAT     H179709   7.694   3.004   5.792
26489WAT     H279710   7.795   3.125   5.834
26490WAT      O79711   4.749   6.240   0.811
26490WAT     H179712   4.805   6.185   0.748
26490WAT     H279713   4.652   6.225   0.791
26491WAT      O79714   7.085   3.874   1.019
26491WAT     H179715   7.148   3.919   1.083
26491WAT     H279716   7.127   3.789   0.986
26492WAT      O79717   6.767   7.871   8.881
26492WAT     H179718   6.821   7.788   8.871
26492WAT     H279719   6.764   7.920   8.794
26493WAT      O79720   1.647   7.296   0.325
26493WAT     H179721   1.606   7.381   0.360
26493WAT     H279722   1.681   7.311   0.233
26494WAT      O79723   2.226   0.096   2.893
26494WAT     H179724   2.173   0.065   2.972
26494WAT     H279725   2.317   0.126   2.923
26495WAT      O79726   3.649   7.545   0.627
26495WAT     H179727   3.748   7.547   0.616
26495WAT     H279728   3.624   7.596   0.709
26496WAT      O79729   7.038   0.357   1.513
26496WAT     H179730   6.990   0.339   1.427
26496WAT     H279731   6.975   0.401   1.577
26497WAT      O79732   5.037   7.920   8.677
26497WAT     H179733   4.948   7.914   8.634
26497WAT     H279734   5.032   7.885   8.771
26498WAT      O79735   6.945   4.404   5.536
26498WAT     H179736   6.874   4.415   5.466
26498WAT     H279737   6.980   4.311   5.535
26499WAT      O79738   0.543   0.719   4.420
26499WAT     H179739   0.448   0.741   4.445
26499WAT     H279740   0.544   0.635   4.366
26500WAT      O79741   2.500   8.864   9.046
26500WAT     H179742   2.585   8.815   9.030
26500WAT     H279743   2.490   8.938   8.980
26501WAT      O79744   0.770   5.525   5.511
26501WAT     H179745   0.748   5.577   5.594
26501WAT     H279746   0.781   5.588   5.434
26502WAT      O79747   0.534   8.490   1.493
26502WAT     H179748   0.484   8.406   1.472
26502WAT     H279749   0.574   8.482   1.584
26503WAT      O79750   1.858   0.350   1.472
26503WAT     H179751   1.898   0.350   1.380
26503WAT     H279752   1.869   0.260   1.514
26504WAT      O79753   6.664   7.162   1.191
26504WAT     H179754   6.635   7.235   1.253
26504WAT     H279755   6.622   7.076   1.220
26505WAT      O79756   5.779   0.398   9.610
26505WAT     H179757   5.685   0.375   9.633
26505WAT     H279758   5.816   0.330   9.547
26506WAT      O79759   4.722   0.842   1.533
26506WAT     H179760   4.668   0.821   1.451
26506WAT     H279761   4.724   0.762   1.593
26507WAT      O79762   0.418   8.931   3.671
26507WAT     H179763   0.340   8.888   3.625
26507WAT     H279764   0.399   8.938   3.769
26508WAT      O79765   0.833   8.652   3.406
26508WAT     H179766   0.787   8.736   3.437
26508WAT     H279767   0.788   8.573   3.448
26509WAT      O79768   5.816   5.822   8.217
26509WAT     H179769   5.868   5.827   8.303
26509WAT     H279770   5.730   5.872   8.227
26510WAT      O79771   1.499   4.622   6.463
26510WAT     H179772   1.511   4.715   6.427
26510WAT     H279773   1.567   4.605   6.535
26511WAT      O79774   9.876   8.063   6.561
26511WAT     H179775   9.954   8.054   6.623
26511WAT     H279776   9.872   7.984   6.500
26512WAT      O79777   4.255   8.405   6.937
26512WAT     H179778   4.271   8.462   6.856
26512WAT     H279779   4.157   8.385   6.945
26513WAT      O79780   2.480   1.852   4.205
26513WAT     H179781   2.473   1.842   4.304
26513WAT     H279782   2.571   1.887   4.181
26514WAT      O79783   5.147   5.541   7.600
26514WAT     H179784   5.227   5.497   7.640
26514WAT     H279785   5.175   5.624   7.551
26515WAT      O79786   2.029   9.339   6.252
26515WAT     H179787   2.078   9.253   6.268
26515WAT     H279788   2.004   9.346   6.155
26516WAT      O79789   5.176   6.191   3.103
26516WAT     H179790   5.252   6.245   3.137
26516WAT     H279791   5.098   6.251   3.083
26517WAT      O79792   0.477   1.677   7.242
26517WAT     H179793   0.381   1.682   7.272
26517WAT     H279794   0.482   1.626   7.156
26518WAT      O79795   7.146   8.573   9.382
26518WAT     H179796   7.107   8.550   9.293
26518WAT     H279797   7.242   8.544   9.384
26519WAT      O79798   0.486   0.209   1.890
26519WAT     H179799   0.515   0.207   1.794
26519WAT     H279800   0.526   0.289   1.935
26520WAT      O79801   0.265   8.638   8.465
26520WAT     H179802   0.219   8.586   8.536
26520WAT     H279803   0.364   8.629   8.476
26521WAT      O79804   6.725   6.739   1.541
26521WAT     H179805   6.650   6.673   1.554
26521WAT     H279806   6.717   6.811   1.610
26522WAT      O79807   9.252   7.565   0.543
26522WAT     H179808   9.333   7.602   0.498
26522WAT     H279809   9.174   7.627   0.528
26523WAT      O79810   4.752   9.569   7.480
26523WAT     H179811   4.657   9.587   7.456
26523WAT     H279812   4.809   9.575   7.398
26524WAT      O79813   8.220   0.900   0.411
26524WAT     H179814   8.180   0.990   0.396
26524WAT     H279815   8.308   0.894   0.362
26525WAT      O79816   1.336   7.430   5.389
26525WAT     H179817   1.353   7.509   5.330
26525WAT     H279818   1.418   7.413   5.445
26526WAT      O79819   5.288   2.268   0.427
26526WAT     H179820   5.195   2.246   0.398
26526WAT     H279821   5.318   2.201   0.496
26527WAT      O79822   6.316   7.483   4.036
26527WAT     H179823   6.252   7.532   3.977
26527WAT     H279824   6.392   7.543   4.060
26528WAT      O79825   1.094   5.039   6.849
26528WAT     H179826   1.167   4.971   6.855
26528WAT     H279827   1.021   5.015   6.913
26529WAT      O79828   9.174   5.599   1.182
26529WAT     H179829   9.142   5.505   1.182
26529WAT     H279830   9.116   5.654   1.243
26530WAT      O79831   9.547   3.131   5.600
26530WAT     H179832   9.576   3.224   5.580
26530WAT     H279833   9.592   3.068   5.537
26531WAT      O79834   0.346   8.270   2.918
26531WAT     H179835   0.299   8.216   2.849
26531WAT     H279836   0.429   8.223   2.947
26532WAT      O79837   6.735   9.189   6.708
26532WAT     H179838   6.822   9.199   6.659
26532WAT     H279839   6.750   9.134   6.790
26533WAT      O79840   3.353   6.691   3.239
26533WAT     H179841   3.280   6.628   3.212
26533WAT     H279842   3.324   6.785   3.220
26534WAT      O79843   3.320   2.120   9.425
26534WAT     H179844   3.223   2.119   9.451
26534WAT     H279845   3.333   2.180   9.346
26535WAT      O79846   6.870   2.730   4.436
26535WAT     H179847   6.777   2.737   4.474
26535WAT     H279848   6.871   2.766   4.343
26536WAT      O79849   0.209   1.957   2.532
26536WAT     H179850   0.243   2.039   2.487
26536WAT     H279851   0.222   1.878   2.472
26537WAT      O79852   2.636   3.757   1.611
26537WAT     H179853   2.725   3.752   1.656
26537WAT     H279854   2.623   3.849   1.573
26538WAT      O79855   6.754   7.459   3.638
26538WAT     H179856   6.655   7.466   3.625
26538WAT     H279857   6.800   7.487   3.554
26539WAT      O79858   8.668   5.748   6.115
26539WAT     H179859   8.570   5.764   6.120
26539WAT     H279860   8.686   5.673   6.051
26540WAT      O79861   9.145   6.476   5.410
26540WAT     H179862   9.181   6.542   5.344
26540WAT     H279863   9.211   6.464   5.484
26541WAT      O79864   8.819   8.321   0.321
26541WAT     H179865   8.856   8.390   0.383
26541WAT     H279866   8.765   8.367   0.249
26542WAT      O79867   9.838   3.030   9.230
26542WAT     H179868   9.869   2.950   9.282
26542WAT     H279869   9.878   3.113   9.270
26543WAT      O79870   8.306   6.417   4.406
26543WAT     H179871   8.230   6.385   4.349
26543WAT     H279872   8.273   6.490   4.466
26544WAT      O79873   2.801   2.253   6.770
26544WAT     H179874   2.733   2.324   6.750
26544WAT     H279875   2.869   2.288   6.833
26545WAT      O79876   6.943   9.007   7.797
26545WAT     H179877   6.964   9.103   7.779
26545WAT     H279878   7.016   8.967   7.853
26546WAT      O79879   8.381   8.379   7.899
26546WAT     H179880   8.336   8.443   7.837
26546WAT     H279881   8.343   8.388   7.991
26547WAT      O79882   6.905   4.028   3.626
26547WAT     H179883   6.994   4.056   3.663
26547WAT     H279884   6.917   3.953   3.562
26548WAT      O79885   6.912   5.109   4.097
26548WAT     H179886   6.988   5.170   4.120
26548WAT     H279887   6.840   5.118   4.166
26549WAT      O79888   9.179   1.078   1.726
26549WAT     H179889   9.245   1.065   1.800
26549WAT     H279890   9.142   1.171   1.731
26550WAT      O79891   9.886   5.385   4.205
26550WAT     H179892   9.823   5.315   4.172
26550WAT     H279893   9.909   5.366   4.301
26551WAT      O79894   6.052   2.259   9.893
26551WAT     H179895   6.012   2.173   9.862
26551WAT     H279896   6.037   2.329   9.823
26552WAT      O79897   5.208   0.069   1.170
26552WAT     H179898   5.269   0.109   1.102
26552WAT     H279899   5.149   0.141   1.209
26553WAT      O79900   6.478   7.819   0.792
26553WAT     H179901   6.458   7.871   0.875
26553WAT     H279902   6.435   7.863   0.714
26554WAT      O79903   8.745   5.440   8.160
26554WAT     H179904   8.714   5.532   8.138
26554WAT     H279905   8.841   5.430   8.134
26555WAT      O79906   1.490   4.560   3.590
26555WAT     H179907   1.409   4.526   3.638
26555WAT     H279908   1.571   4.546   3.646
26556WAT      O79909   4.786   2.777   1.466
26556WAT     H179910   4.814   2.693   1.512
26556WAT     H279911   4.802   2.855   1.526
26557WAT      O79912   0.055   1.990   3.653
26557WAT     H179913   0.048   1.898   3.615
26557WAT     H279914   0.133   2.037   3.612
26558WAT      O79915   2.077   8.959   3.225
26558WAT     H179916   2.083   8.906   3.309
26558WAT     H279917   2.162   9.011   3.212
26559WAT      O79918   1.573   6.731   6.914
26559WAT     H179919   1.569   6.830   6.919
26559WAT     H279920   1.667   6.702   6.895
26560WAT      O79921   8.647   4.869   2.644
26560WAT     H179922   8.559   4.827   2.666
26560WAT     H279923   8.653   4.888   2.546
26561WAT      O79924   5.141   3.050   3.649
26561WAT     H179925   5.080   2.979   3.685
26561WAT     H279926   5.234   3.035   3.684
26562WAT      O79927   0.122   0.124   4.378
26562WAT     H179928   0.186   0.047   4.382
26562WAT     H279929   0.106   0.158   4.470
26563WAT      O79930   0.188   8.719   3.902
26563WAT     H179931   0.137   8.791   3.854
26563WAT     H279932   0.130   8.675   3.969
26564WAT      O79933   3.572   8.735   9.361
26564WAT     H179934   3.473   8.742   9.374
26564WAT     H279935   3.619   8.776   9.440
26565WAT      O79936   5.800   0.905   4.486
26565WAT     H179937   5.857   0.845   4.429
26565WAT     H279938   5.757   0.974   4.428
26566WAT      O79939   2.093   8.899   2.065
26566WAT     H179940   2.076   8.851   1.978
26566WAT     H279941   2.189   8.927   2.070
26567WAT      O79942   4.063   8.976   5.089
26567WAT     H179943   4.017   9.039   5.152
26567WAT     H279944   4.096   9.026   5.010
26568WAT      O79945   1.538   5.650   2.470
26568WAT     H179946   1.627   5.605   2.468
26568WAT     H279947   1.466   5.581   2.473
26569WAT      O79948   8.185   5.989   2.610
26569WAT     H179949   8.085   5.982   2.603
26569WAT     H279950   8.209   6.076   2.653
26570WAT      O79951   7.225   2.080   1.613
26570WAT     H179952   7.157   2.108   1.681
26570WAT     H279953   7.281   2.006   1.651
26571WAT      O79954   1.230   3.341   1.983
26571WAT     H179955   1.226   3.293   1.895
26571WAT     H279956   1.255   3.276   2.055
26572WAT      O79957   8.457   8.633   8.634
26572WAT     H179958   8.517   8.712   8.619
26572WAT     H279959   8.512   8.549   8.634
26573WAT      O79960   7.172   3.153   6.979
26573WAT     H179961   7.190   3.251   6.972
26573WAT     H279962   7.158   3.129   7.075
26574WAT      O79963   2.739   0.399   7.057
26574WAT     H179964   2.738   0.451   7.142
26574WAT     H279965   2.647   0.365   7.037
26575WAT      O79966   3.355   3.660   8.005
26575WAT     H179967   3.368   3.723   8.081
26575WAT     H279968   3.308   3.578   8.037
26576WAT      O79969   4.694   1.696   5.541
26576WAT     H179970   4.763   1.624   5.549
26576WAT     H279971   4.603   1.654   5.539
26577WAT      O79972   7.345   0.140   7.090
26577WAT     H179973   7.358   0.215   7.025
26577WAT     H279974   7.357   0.175   7.184
26578WAT      O79975   0.239   4.241   6.632
26578WAT     H179976   0.336   4.236   6.652
26578WAT     H279977   0.202   4.328   6.666
26579WAT      O79978   6.977   3.977   5.592
26579WAT     H179979   7.074   3.984   5.568
26579WAT     H279980   6.967   3.922   5.675
26580WAT      O79981   3.064   2.692   4.004
26580WAT     H179982   3.159   2.724   4.003
26580WAT     H279983   3.061   2.598   4.040
26581WAT      O79984   9.390   7.863   9.339
26581WAT     H179985   9.477   7.909   9.327
26581WAT     H279986   9.372   7.805   9.259
26582WAT      O79987   0.557   4.698   3.969
26582WAT     H179988   0.573   4.707   3.871
26582WAT     H279989   0.596   4.612   4.002
26583WAT      O79990   0.529   2.379   2.075
26583WAT     H179991   0.575   2.465   2.097
26583WAT     H279992   0.482   2.389   1.987
26584WAT      O79993   1.585   7.872   3.645
26584WAT     H179994   1.493   7.858   3.681
26584WAT     H279995   1.620   7.787   3.608
26585WAT      O79996   5.711   1.486   9.229
26585WAT     H179997   5.647   1.455   9.159
26585WAT     H279998   5.699   1.431   9.312
26586WAT      O79999   9.730   2.228   7.199
26586WAT     H180000   9.737   2.154   7.133
26586WAT     H280001   9.785   2.306   7.168
26587WAT      O80002   9.787   7.616   9.443
26587WAT     H180003   9.716   7.686   9.439
26587WAT     H280004   9.856   7.634   9.374
26588WAT      O80005   1.467   8.341   0.279
26588WAT     H180006   1.425   8.354   0.369
26588WAT     H280007   1.566   8.343   0.288
26589WAT      O80008   0.457   3.055   6.272
26589WAT     H180009   0.488   3.074   6.365
26589WAT     H280010   0.431   3.140   6.227
26590WAT      O80011   0.204   6.557   9.887
26590WAT     H180012   0.115   6.603   9.876
26590WAT     H280013   0.269   6.622   9.926
26591WAT      O80014   8.575   3.028   0.671
26591WAT     H180015   8.531   2.956   0.618
26591WAT     H280016   8.529   3.039   0.759
26592WAT      O80017   0.246   3.001   8.572
26592WAT     H180018   0.249   2.936   8.496
26592WAT     H280019   0.298   3.083   8.548
26593WAT      O80020   4.148   1.321   9.644
26593WAT     H180021   4.086   1.387   9.600
26593WAT     H280022   4.125   1.229   9.613
26594WAT      O80023   1.860   3.576   7.105
26594WAT     H180024   1.923   3.571   7.182
26594WAT     H280025   1.907   3.618   7.027
26595WAT      O80026   9.627   5.285   5.463
26595WAT     H180027   9.699   5.352   5.481
26595WAT     H280028   9.668   5.196   5.444
26596WAT      O80029   2.632   3.270   2.344
26596WAT     H180030   2.723   3.240   2.314
26596WAT     H280031   2.595   3.202   2.408
26597WAT      O80032   7.136   1.492   5.647
26597WAT     H180033   7.121   1.492   5.746
26597WAT     H280034   7.060   1.536   5.601
26598WAT      O80035   2.349   8.118   5.531
26598WAT     H180036   2.381   8.185   5.463
26598WAT     H280037   2.304   8.165   5.606
26599WAT      O80038   7.369   3.134   5.197
26599WAT     H180039   7.441   3.197   5.225
26599WAT     H280040   7.372   3.052   5.255
26600WAT      O80041   7.431   5.777   4.383
26600WAT     H180042   7.368   5.848   4.352
26600WAT     H280043   7.386   5.687   4.377
26601WAT      O80044   4.108   1.225   7.098
26601WAT     H180045   4.106   1.222   6.998
26601WAT     H280046   4.199   1.202   7.131
26602WAT      O80047   9.065   8.989   8.818
26602WAT     H180048   9.114   8.978   8.731
26602WAT     H280049   8.970   8.958   8.807
26603WAT      O80050   3.538   5.654   6.396
26603WAT     H180051   3.622   5.696   6.361
26603WAT     H280052   3.546   5.555   6.392
26604WAT      O80053   6.663   4.552   1.756
26604WAT     H180054   6.707   4.619   1.816
26604WAT     H280055   6.704   4.462   1.769
26605WAT      O80056   6.548   3.334   4.385
26605WAT     H180057   6.590   3.381   4.462
26605WAT     H280058   6.532   3.400   4.311
26606WAT      O80059   5.058   9.504   8.042
26606WAT     H180060   4.964   9.530   8.020
26606WAT     H280061   5.114   9.586   8.056
26607WAT      O80062   1.884   3.688   8.270
26607WAT     H180063   1.792   3.722   8.288
26607WAT     H280064   1.901   3.607   8.325
26608WAT      O80065   4.330   2.205   0.122
26608WAT     H180066   4.280   2.159   0.049
26608WAT     H280067   4.377   2.137   0.179
26609WAT      O80068   3.410   8.960   2.207
26609WAT     H180069   3.426   9.053   2.174
26609WAT     H280070   3.497   8.917   2.231
26610WAT      O80071   1.041   8.554   8.403
26610WAT     H180072   1.050   8.466   8.355
26610WAT     H280073   1.126   8.606   8.392
26611WAT      O80074   5.488   2.334   5.837
26611WAT     H180075   5.565   2.299   5.891
26611WAT     H280076   5.415   2.267   5.836
26612WAT      O80077   6.967   5.733   7.129
26612WAT     H180078   7.057   5.754   7.091
26612WAT     H280079   6.973   5.726   7.229
26613WAT      O80080   0.535   4.369   4.235
26613WAT     H180081   0.620   4.316   4.240
26613WAT     H280082   0.457   4.307   4.242
26614WAT      O80083   3.507   4.530   6.183
26614WAT     H180084   3.476   4.453   6.127
26614WAT     H280085   3.547   4.600   6.123
26615WAT      O80086   1.309   7.529   4.067
26615WAT     H180087   1.302   7.617   4.019
26615WAT     H280088   1.305   7.455   4.001
26616WAT      O80089   6.819   6.769   0.485
26616WAT     H180090   6.816   6.763   0.386
26616WAT     H280091   6.749   6.832   0.518
26617WAT      O80092   7.454   8.895   2.209
26617WAT     H180093   7.448   8.852   2.120
26617WAT     H280094   7.522   8.848   2.265
26618WAT      O80095   8.180   6.969   8.642
26618WAT     H180096   8.161   7.068   8.637
26618WAT     H280097   8.265   6.954   8.693
26619WAT      O80098   8.384   4.117   0.988
26619WAT     H180099   8.470   4.161   0.960
26619WAT     H280100   8.326   4.105   0.908
26620WAT      O80101   8.877   9.534   9.680
26620WAT     H180102   8.908   9.521   9.586
26620WAT     H280103   8.792   9.483   9.694
26621WAT      O80104   6.352   7.111   6.191
26621WAT     H180105   6.304   7.030   6.226
26621WAT     H280106   6.450   7.100   6.207
26622WAT      O80107   3.950   8.920   0.928
26622WAT     H180108   3.889   8.847   0.896
26622WAT     H280109   3.900   9.007   0.931
26623WAT      O80110   1.402   5.157   8.457
26623WAT     H180111   1.313   5.156   8.501
26623WAT     H280112   1.459   5.083   8.493
26624WAT      O80113   2.198   2.430   9.722
26624WAT     H180114   2.145   2.442   9.806
26624WAT     H280115   2.276   2.493   9.722
26625WAT      O80116   6.885   3.910   6.390
26625WAT     H180117   6.949   3.834   6.384
26625WAT     H280118   6.802   3.880   6.437
26626WAT      O80119   9.286   5.473   8.822
26626WAT     H180120   9.190   5.486   8.797
26626WAT     H280121   9.291   5.427   8.911
26627WAT      O80122   5.436   6.435   5.509
26627WAT     H180123   5.413   6.352   5.559
26627WAT     H280124   5.375   6.509   5.538
26628WAT      O80125   2.201   2.855   5.597
26628WAT     H180126   2.301   2.858   5.587
26628WAT     H280127   2.164   2.784   5.538
26629WAT      O80128   7.630   9.493   8.737
26629WAT     H180129   7.537   9.471   8.768
26629WAT     H280130   7.679   9.409   8.716
26630WAT      O80131   5.947   2.426   6.881
26630WAT     H180132   5.898   2.376   6.951
26630WAT     H280133   5.987   2.509   6.921
26631WAT      O80134   6.361   5.866   3.151
26631WAT     H180135   6.328   5.959   3.161
26631WAT     H280136   6.393   5.851   3.057
26632WAT      O80137   0.745   0.865   5.036
26632WAT     H180138   0.694   0.779   5.033
26632WAT     H280139   0.692   0.937   4.991
26633WAT      O80140   6.067   5.470   4.796
26633WAT     H180141   6.116   5.416   4.728
26633WAT     H280142   6.014   5.410   4.855
26634WAT      O80143   8.745   4.776   1.683
26634WAT     H180144   8.732   4.677   1.681
26634WAT     H280145   8.656   4.820   1.692
26635WAT      O80146   9.111   9.835   8.835
26635WAT     H180147   9.202   9.840   8.877
26635WAT     H280148   9.044   9.880   8.894
26636WAT      O80149   1.085   9.520   6.255
26636WAT     H180150   1.073   9.604   6.308
26636WAT     H280151   1.073   9.441   6.315
26637WAT      O80152   9.565   5.783   1.276
26637WAT     H180153   9.572   5.875   1.314
26637WAT     H280154   9.554   5.788   1.177
26638WAT      O80155   5.640   3.074   1.189
26638WAT     H180156   5.662   3.154   1.135
26638WAT     H280157   5.542   3.054   1.182
26639WAT      O80158   7.771   1.808   5.103
26639WAT     H180159   7.674   1.829   5.112
26639WAT     H280160   7.786   1.753   5.022
26640WAT      O80161   1.357   4.849   7.394
26640WAT     H180162   1.451   4.827   7.371
26640WAT     H280163   1.303   4.764   7.396
26641WAT      O80164   8.480   1.623   2.806
26641WAT     H180165   8.532   1.596   2.725
26641WAT     H280166   8.542   1.666   2.872
26642WAT      O80167   6.976   9.581   5.082
26642WAT     H180168   6.904   9.650   5.086
26642WAT     H280169   6.946   9.504   5.026
26643WAT      O80170   7.322   8.615   8.791
26643WAT     H180171   7.242   8.557   8.809
26643WAT     H280172   7.403   8.573   8.831
26644WAT      O80173   1.779   9.237   0.565
26644WAT     H180174   1.805   9.329   0.533
26644WAT     H280175   1.680   9.228   0.563
26645WAT      O80176   2.948   3.910   9.028
26645WAT     H180177   2.938   4.003   9.064
26645WAT     H280178   2.901   3.846   9.088
26646WAT      O80179   5.292   1.686   5.425
26646WAT     H180180   5.336   1.732   5.501
26646WAT     H280181   5.206   1.645   5.456
26647WAT      O80182   2.719   7.543   3.225
26647WAT     H180183   2.790   7.570   3.161
26647WAT     H280184   2.638   7.512   3.175
26648WAT      O80185   0.979   6.013   3.837
26648WAT     H180186   1.070   5.982   3.809
26648WAT     H280187   0.987   6.065   3.922
26649WAT      O80188   3.329   6.218   0.096
26649WAT     H180189   3.270   6.156   0.148
26649WAT     H280190   3.317   6.311   0.129
26650WAT      O80191   3.608   7.218   9.497
26650WAT     H180192   3.627   7.310   9.464
26650WAT     H280193   3.693   7.175   9.527
26651WAT      O80194   3.444   1.999   4.905
26651WAT     H180195   3.451   1.899   4.906
26651WAT     H280196   3.351   2.026   4.880
26652WAT      O80197   6.588   4.953   0.325
26652WAT     H180198   6.567   4.870   0.375
26652WAT     H280199   6.504   4.999   0.297
26653WAT      O80200   5.910   3.961   4.817
26653WAT     H180201   5.982   3.903   4.780
26653WAT     H280202   5.826   3.947   4.764
26654WAT      O80203   1.685   4.322   1.866
26654WAT     H180204   1.690   4.418   1.895
26654WAT     H280205   1.649   4.266   1.941
26655WAT      O80206   8.778   1.859   0.617
26655WAT     H180207   8.731   1.919   0.552
26655WAT     H280208   8.793   1.907   0.703
26656WAT      O80209   1.056   4.687   8.031
26656WAT     H180210   1.013   4.600   8.056
26656WAT     H280211   1.121   4.713   8.103
26657WAT      O80212   2.980   1.397   2.955
26657WAT     H180213   2.887   1.407   2.920
26657WAT     H280214   3.020   1.313   2.919
26658WAT      O80215   7.698   6.847   0.709
26658WAT     H180216   7.725   6.814   0.799
26658WAT     H280217   7.645   6.776   0.662
26659WAT      O80218   3.465   4.032   5.972
26659WAT     H180219   3.368   4.022   5.948
26659WAT     H280220   3.514   4.070   5.894
26660WAT      O80221   6.398   3.237   9.059
26660WAT     H180222   6.304   3.208   9.076
26660WAT     H280223   6.460   3.177   9.109
26661WAT      O80224   7.917   2.906   9.887
26661WAT     H180225   7.936   3.002   9.866
26661WAT     H280226   7.834   2.900   9.941
26662WAT      O80227   4.509   1.471   0.986
26662WAT     H180228   4.494   1.499   0.891
26662WAT     H280229   4.562   1.386   0.987
26663WAT      O80230   5.920   4.022   7.280
26663WAT     H180231   5.962   4.089   7.218
26663WAT     H280232   5.944   3.930   7.251
26664WAT      O80233   8.037   7.158   8.444
26664WAT     H180234   8.124   7.189   8.407
26664WAT     H280235   7.965   7.224   8.420
26665WAT      O80236   9.301   0.792   5.322
26665WAT     H180237   9.379   0.734   5.345
26665WAT     H280238   9.324   0.887   5.340
26666WAT      O80239   0.969   2.163   0.916
26666WAT     H180240   0.875   2.193   0.899
26666WAT     H280241   0.970   2.100   0.994
26667WAT      O80242   1.049   4.714   4.933
26667WAT     H180243   1.108   4.788   4.964
26667WAT     H280244   1.030   4.652   5.009
26668WAT      O80245   2.651   8.979   5.193
26668WAT     H180246   2.744   8.980   5.230
26668WAT     H280247   2.654   8.958   5.095
26669WAT      O80248   4.838   8.489   7.959
26669WAT     H180249   4.898   8.545   8.017
26669WAT     H280250   4.746   8.530   7.959
26670WAT      O80251   7.734   4.480   3.836
26670WAT     H180252   7.635   4.490   3.829
26670WAT     H280253   7.771   4.549   3.899
26671WAT      O80254   3.945   4.685   2.890
26671WAT     H180255   4.032   4.719   2.854
26671WAT     H280256   3.900   4.758   2.942
26672WAT      O80257   7.789   4.570   8.357
26672WAT     H180258   7.870   4.513   8.371
26672WAT     H280259   7.738   4.536   8.278
26673WAT      O80260   7.655   7.218   0.425
26673WAT     H180261   7.634   7.189   0.332
26673WAT     H280262   7.672   7.316   0.427
26674WAT      O80263   9.778   1.251   9.581
26674WAT     H180264   9.867   1.295   9.574
26674WAT     H280265   9.790   1.153   9.596
26675WAT      O80266   5.372   8.928   7.820
26675WAT     H180267   5.368   8.875   7.904
26675WAT     H280268   5.400   9.022   7.841
26676WAT      O80269   8.608   6.400   8.577
26676WAT     H180270   8.552   6.317   8.584
26676WAT     H280271   8.642   6.424   8.668
26677WAT      O80272   7.303   3.563   4.368
26677WAT     H180273   7.206   3.588   4.365
26677WAT     H280274   7.322   3.499   4.294
26678WAT      O80275   7.284   1.522   6.090
26678WAT     H180276   7.372   1.565   6.109
26678WAT     H280277   7.249   1.478   6.173
26679WAT      O80278   8.150   9.066   1.998
26679WAT     H180279   8.133   9.163   1.980
26679WAT     H280280   8.183   9.022   1.914
26680WAT      O80281   7.334   1.378   8.585
26680WAT     H180282   7.343   1.406   8.489
26680WAT     H280283   7.377   1.446   8.644
26681WAT      O80284   5.187   7.870   8.159
26681WAT     H180285   5.145   7.916   8.080
26681WAT     H280286   5.285   7.891   8.161
26682WAT      O80287   9.403   3.059   6.756
26682WAT     H180288   9.305   3.037   6.758
26682WAT     H280289   9.424   3.106   6.670
26683WAT      O80290   4.662   0.308   1.337
26683WAT     H180291   4.726   0.301   1.413
26683WAT     H280292   4.571   0.329   1.372
26684WAT      O80293   0.494   6.925   7.552
26684WAT     H180294   0.517   6.996   7.486
26684WAT     H280295   0.426   6.863   7.512
26685WAT      O80296   8.933   0.870   6.525
26685WAT     H180297   9.031   0.854   6.516
26685WAT     H280298   8.917   0.965   6.552
26686WAT      O80299   6.030   3.198   2.218
26686WAT     H180300   6.070   3.208   2.127
26686WAT     H280301   6.078   3.258   2.283
26687WAT      O80302   4.159   5.568   8.588
26687WAT     H180303   4.206   5.522   8.663
26687WAT     H280304   4.101   5.640   8.624
26688WAT      O80305   8.016   8.327   8.003
26688WAT     H180306   8.047   8.236   7.976
26688WAT     H280307   8.053   8.396   7.940
26689WAT      O80308   5.292   5.414   6.984
26689WAT     H180309   5.289   5.389   6.888
26689WAT     H280310   5.376   5.379   7.026
26690WAT      O80311   1.823   2.042   2.273
26690WAT     H180312   1.866   2.008   2.189
26690WAT     H280313   1.885   2.107   2.318
26691WAT      O80314   8.312   3.770   0.467
26691WAT     H180315   8.383   3.797   0.532
26691WAT     H280316   8.256   3.698   0.508
26692WAT      O80317   9.014   6.926   3.281
26692WAT     H180318   9.062   6.952   3.198
26692WAT     H280319   9.058   6.844   3.320
26693WAT      O80320   2.519   7.745   3.409
26693WAT     H180321   2.427   7.759   3.372
26693WAT     H280322   2.587   7.777   3.343
26694WAT      O80323   8.459   2.976   2.561
26694WAT     H180324   8.454   2.929   2.473
26694WAT     H280325   8.446   2.910   2.635
26695WAT      O80326   9.864   5.039   0.355
26695WAT     H180327   9.937   5.079   0.301
26695WAT     H280328   9.828   4.958   0.308
26696WAT      O80329   3.942   0.510   1.284
26696WAT     H180330   3.869   0.466   1.231
26696WAT     H280331   3.926   0.608   1.288
26697WAT      O80332   2.754   6.563   9.290
26697WAT     H180333   2.720   6.469   9.282
26697WAT     H280334   2.703   6.623   9.228
26698WAT      O80335   1.923   2.328   1.660
26698WAT     H180336   1.841   2.344   1.715
26698WAT     H280337   2.004   2.358   1.711
26699WAT      O80338   4.444   3.400   0.360
26699WAT     H180339   4.438   3.473   0.292
26699WAT     H280340   4.353   3.376   0.392
26700WAT      O80341   4.495   1.575   9.875
26700WAT     H180342   4.449   1.565   9.787
26700WAT     H280343   4.571   1.639   9.866
26701WAT      O80344   6.893   6.821   5.695
26701WAT     H180345   6.852   6.909   5.717
26701WAT     H280346   6.821   6.753   5.680
26702WAT      O80347   1.273   5.153   5.234
26702WAT     H180348   1.305   5.223   5.298
26702WAT     H280349   1.191   5.109   5.270
26703WAT      O80350   5.066   0.957   3.123
26703WAT     H180351   5.055   1.026   3.051
26703WAT     H280352   5.145   0.899   3.103
26704WAT      O80353   3.141   0.240   6.394
26704WAT     H180354   3.092   0.235   6.482
26704WAT     H280355   3.225   0.294   6.406
26705WAT      O80356   9.710   4.527   4.410
26705WAT     H180357   9.759   4.612   4.393
26705WAT     H280358   9.692   4.518   4.508
26706WAT      O80359   5.027   0.523   4.050
26706WAT     H180360   4.985   0.486   3.967
26706WAT     H280361   5.054   0.448   4.110
26707WAT      O80362   5.709   9.308   1.438
26707WAT     H180363   5.687   9.404   1.453
26707WAT     H280364   5.645   9.270   1.371
26708WAT      O80365   8.596   9.123   7.794
26708WAT     H180366   8.583   9.222   7.795
26708WAT     H280367   8.508   9.077   7.786
26709WAT      O80368   5.534   0.356   9.691
26709WAT     H180369   5.492   0.390   9.775
26709WAT     H280370   5.479   0.384   9.613
26710WAT      O80371   4.300   8.807   6.721
26710WAT     H180372   4.280   8.709   6.731
26710WAT     H280373   4.389   8.827   6.761
26711WAT      O80374   1.745   3.473   8.471
26711WAT     H180375   1.833   3.436   8.441
26711WAT     H280376   1.675   3.403   8.464
26712WAT      O80377   5.699   7.236   6.569
26712WAT     H180378   5.600   7.247   6.580
26712WAT     H280379   5.718   7.194   6.481
26713WAT      O80380   7.829   9.104   7.851
26713WAT     H180381   7.850   9.172   7.781
26713WAT     H280382   7.770   9.033   7.813
26714WAT      O80383   7.631   8.876   4.853
26714WAT     H180384   7.692   8.934   4.906
26714WAT     H280385   7.636   8.782   4.888
26715WAT      O80386   5.444   1.190   2.911
26715WAT     H180387   5.498   1.169   2.830
26715WAT     H280388   5.353   1.222   2.884
26716WAT      O80389   4.203   6.124   9.331
26716WAT     H180390   4.297   6.141   9.363
26716WAT     H280391   4.175   6.032   9.359
26717WAT      O80392   5.770   9.678   6.357
26717WAT     H180393   5.757   9.774   6.335
26717WAT     H280394   5.735   9.659   6.449
26718WAT      O80395   9.312   7.603   2.539
26718WAT     H180396   9.336   7.663   2.463
26718WAT     H280397   9.395   7.576   2.588
26719WAT      O80398   4.131   6.767   3.987
26719WAT     H180399   4.065   6.817   4.042
26719WAT     H280400   4.214   6.752   4.041
26720WAT      O80401   7.122   1.231   6.748
26720WAT     H180402   7.044   1.273   6.793
26720WAT     H280403   7.181   1.188   6.817
26721WAT      O80404   4.482   4.587   6.971
26721WAT     H180405   4.545   4.661   6.997
26721WAT     H280406   4.435   4.612   6.887
26722WAT      O80407   5.081   7.832   4.324
26722WAT     H180408   5.163   7.840   4.381
26722WAT     H280409   5.067   7.916   4.272
26723WAT      O80410   5.071   1.637   5.101
26723WAT     H180411   5.066   1.698   5.180
26723WAT     H280412   5.060   1.542   5.131
26724WAT      O80413   7.364   2.588   8.871
26724WAT     H180414   7.348   2.491   8.888
26724WAT     H280415   7.283   2.640   8.900
26725WAT      O80416   0.871   5.149   4.214
26725WAT     H180417   0.866   5.092   4.132
26725WAT     H280418   0.793   5.211   4.217
26726WAT      O80419   9.416   2.255   9.048
26726WAT     H180420   9.422   2.293   9.140
26726WAT     H280421   9.508   2.238   9.013
26727WAT      O80422   1.918   0.615   7.511
26727WAT     H180423   1.827   0.611   7.470
26727WAT     H280424   1.945   0.711   7.522
26728WAT      O80425   2.561   4.199   8.024
26728WAT     H180426   2.640   4.239   7.976
26728WAT     H280427   2.574   4.100   8.032
26729WAT      O80428   2.280   9.454   7.707
26729WAT     H180429   2.339   9.523   7.751
26729WAT     H280430   2.305   9.444   7.611
26730WAT      O80431   3.295   7.171   2.417
26730WAT     H180432   3.241   7.089   2.437
26730WAT     H280433   3.263   7.211   2.331
26731WAT      O80434   3.704   4.264   6.045
26731WAT     H180435   3.609   4.294   6.041
26731WAT     H280436   3.744   4.290   6.133
26732WAT      O80437   0.051   5.011   2.160
26732WAT     H180438  -0.046   4.988   2.162
26732WAT     H280439   0.077   5.038   2.067
26733WAT      O80440   6.854   1.887   2.827
26733WAT     H180441   6.893   1.938   2.904
26733WAT     H280442   6.925   1.833   2.783
26734WAT      O80443   7.974   7.480   8.798
26734WAT     H180444   7.966   7.400   8.857
26734WAT     H280445   8.008   7.557   8.852
26735WAT      O80446   7.690   3.371   5.749
26735WAT     H180447   7.761   3.370   5.678
26735WAT     H280448   7.682   3.280   5.790
26736WAT      O80449   4.178   0.028   0.905
26736WAT     H180450   4.091  -0.005   0.870
26736WAT     H280451   4.211  -0.033   0.977
26737WAT      O80452   2.124   1.604   1.519
26737WAT     H180453   2.158   1.584   1.426
26737WAT     H280454   2.143   1.700   1.541
26738WAT      O80455   7.612   3.452   2.945
26738WAT     H180456   7.605   3.414   2.852
26738WAT     H280457   7.698   3.501   2.954
26739WAT      O80458   5.356   3.277   4.487
26739WAT     H180459   5.280   3.272   4.422
26739WAT     H280460   5.367   3.189   4.533
26740WAT      O80461   3.808   4.084   5.677
26740WAT     H180462   3.830   4.001   5.729
26740WAT     H280463   3.823   4.067   5.580
26741WAT      O80464   1.532   5.892   5.362
26741WAT     H180465   1.435   5.876   5.383
26741WAT     H280466   1.541   5.979   5.314
26742WAT      O80467   9.413   7.311   4.494
26742WAT     H180468   9.386   7.241   4.560
26742WAT     H280469   9.341   7.380   4.487
26743WAT      O80470   1.185   0.333   5.523
26743WAT     H180471   1.106   0.386   5.490
26743WAT     H280472   1.200   0.354   5.620
26744WAT      O80473   9.385   3.809   0.455
26744WAT     H180474   9.425   3.853   0.374
26744WAT     H280475   9.455   3.800   0.526
26745WAT      O80476   3.937   8.569   4.485
26745WAT     H180477   3.872   8.497   4.508
26745WAT     H280478   3.999   8.536   4.414
26746WAT      O80479   1.438   5.282   7.569
26746WAT     H180480   1.367   5.352   7.569
26746WAT     H280481   1.395   5.192   7.562
26747WAT      O80482   3.210   3.455   9.004
26747WAT     H180483   3.155   3.372   8.998
26747WAT     H280484   3.175   3.522   8.938
26748WAT      O80485   2.404   3.170   9.183
26748WAT     H180486   2.364   3.259   9.202
26748WAT     H280487   2.501   3.171   9.209
26749WAT      O80488   4.124   9.235   8.491
26749WAT     H180489   4.200   9.275   8.543
26749WAT     H280490   4.048   9.300   8.490
26750WAT      O80491   1.388   7.146   1.886
26750WAT     H180492   1.365   7.175   1.979
26750WAT     H280493   1.471   7.191   1.856
26751WAT      O80494   2.924   8.971   3.547
26751WAT     H180495   2.924   8.953   3.449
26751WAT     H280496   2.906   9.067   3.564
26752WAT      O80497   6.291   7.645   8.105
26752WAT     H180498   6.289   7.642   8.205
26752WAT     H280499   6.384   7.624   8.073
26753WAT      O80500   0.345   0.388   3.971
26753WAT     H180501   0.347   0.326   4.050
26753WAT     H280502   0.438   0.413   3.945
26754WAT      O80503   4.511   0.223   2.790
26754WAT     H180504   4.530   0.179   2.877
26754WAT     H280505   4.416   0.254   2.789
26755WAT      O80506   1.711   0.975   5.986
26755WAT     H180507   1.767   1.022   5.918
26755WAT     H280508   1.733   0.877   5.985
26756WAT      O80509   6.217   5.494   1.944
26756WAT     H180510   6.145   5.453   2.000
26756WAT     H280511   6.294   5.431   1.938
26757WAT      O80512   7.271   1.190   5.623
26757WAT     H180513   7.260   1.147   5.713
26757WAT     H280514   7.189   1.243   5.601
26758WAT      O80515   0.265   4.993   9.015
26758WAT     H180516   0.311   5.077   8.985
26758WAT     H280517   0.185   5.017   9.070
26759WAT      O80518   7.231   0.726   9.754
26759WAT     H180519   7.216   0.825   9.744
26759WAT     H280520   7.199   0.680   9.671
26760WAT      O80521   6.428   8.886   6.651
26760WAT     H180522   6.445   8.982   6.627
26760WAT     H280523   6.394   8.882   6.745
26761WAT      O80524   7.399   2.681   9.395
26761WAT     H180525   7.309   2.666   9.435
26761WAT     H280526   7.462   2.610   9.427
26762WAT      O80527   4.443   3.104   1.503
26762WAT     H180528   4.493   3.182   1.467
26762WAT     H280529   4.359   3.090   1.450
26763WAT      O80530   9.124   9.793   8.095
26763WAT     H180531   9.166   9.706   8.122
26763WAT     H280532   9.024   9.781   8.089
26764WAT      O80533   2.673   2.996   9.830
26764WAT     H180534   2.766   3.034   9.835
26764WAT     H280535   2.609   3.060   9.872
26765WAT      O80536   0.458   3.718   1.322
26765WAT     H180537   0.438   3.813   1.344
26765WAT     H280538   0.388   3.659   1.362
26766WAT      O80539   4.737   1.569   7.224
26766WAT     H180540   4.681   1.539   7.302
26766WAT     H280541   4.778   1.490   7.180
26767WAT      O80542   4.780   3.701   4.772
26767WAT     H180543   4.802   3.618   4.719
26767WAT     H280544   4.710   3.679   4.840
26768WAT      O80545   0.168   8.178   2.708
26768WAT     H180546   0.107   8.180   2.787
26768WAT     H280547   0.143   8.251   2.644
26769WAT      O80548   4.261   2.586   2.829
26769WAT     H180549   4.256   2.487   2.814
26769WAT     H280550   4.294   2.630   2.746
26770WAT      O80551   3.488   9.077   7.060
26770WAT     H180552   3.568   9.030   7.021
26770WAT     H280553   3.416   9.082   6.991
26771WAT      O80554   5.118   6.948   0.914
26771WAT     H180555   5.084   6.945   1.009
26771WAT     H280556   5.058   7.007   0.860
26772WAT      O80557   1.491   2.486   8.354
26772WAT     H180558   1.463   2.482   8.450
26772WAT     H280559   1.590   2.469   8.348
26773WAT      O80560   5.648   8.089   6.889
26773WAT     H180561   5.684   8.100   6.981
26773WAT     H280562   5.718   8.114   6.822
26774WAT      O80563   2.724   7.776   9.140
26774WAT     H180564   2.754   7.683   9.159
26774WAT     H280565   2.795   7.841   9.167
26775WAT      O80566   4.020   8.019   5.024
26775WAT     H180567   4.092   7.988   5.087
26775WAT     H280568   3.999   7.946   4.960
26776WAT      O80569   2.058   6.861   1.993
26776WAT     H180570   2.134   6.912   2.033
26776WAT     H280571   1.982   6.923   1.974
26777WAT      O80572   0.459   9.775   9.790
26777WAT     H180573   0.474   9.834   9.711
26777WAT     H280574   0.374   9.723   9.778
26778WAT      O80575   9.769   7.166   3.105
26778WAT     H180576   9.760   7.251   3.053
26778WAT     H280577   9.863   7.131   3.095
26779WAT      O80578   1.764   7.312   8.981
26779WAT     H180579   1.679   7.333   8.932
26779WAT     H280580   1.837   7.371   8.948
26780WAT      O80581   5.438   5.727   5.219
26780WAT     H180582   5.428   5.803   5.283
26780WAT     H280583   5.458   5.762   5.128
26781WAT      O80584   9.238   4.603   0.862
26781WAT     H180585   9.198   4.521   0.902
26781WAT     H280586   9.204   4.684   0.911
26782WAT      O80587   9.227   7.512   4.528
26782WAT     H180588   9.165   7.517   4.450
26782WAT     H280589   9.177   7.528   4.613
26783WAT      O80590   9.254   4.130   9.253
26783WAT     H180591   9.321   4.202   9.272
26783WAT     H280592   9.284   4.076   9.175
26784WAT      O80593   2.274   6.985   3.876
26784WAT     H180594   2.313   7.049   3.809
26784WAT     H280595   2.210   7.034   3.935
26785WAT      O80596   1.200   9.548   7.733
26785WAT     H180597   1.236   9.456   7.748
26785WAT     H280598   1.165   9.585   7.819
26786WAT      O80599   4.747   2.258   4.500
26786WAT     H180600   4.707   2.167   4.499
26786WAT     H280601   4.694   2.317   4.562
26787WAT      O80602   6.018   7.615   0.766
26787WAT     H180603   6.092   7.561   0.806
26787WAT     H280604   5.963   7.656   0.839
26788WAT      O80605   6.540   7.416   6.428
26788WAT     H180606   6.532   7.496   6.487
26788WAT     H280607   6.465   7.353   6.447
26789WAT      O80608   6.293   0.125   4.017
26789WAT     H180609   6.379   0.170   4.040
26789WAT     H280610   6.295   0.030   4.047
26790WAT      O80611   3.619   4.781   9.544
26790WAT     H180612   3.714   4.812   9.538
26790WAT     H280613   3.602   4.712   9.474
26791WAT      O80614   8.007   5.609   4.573
26791WAT     H180615   7.926   5.576   4.621
26791WAT     H280616   7.994   5.705   4.548
26792WAT      O80617   1.995   9.404   0.008
26792WAT     H180618   1.927   9.458  -0.041
26792WAT     H280619   2.036   9.460   0.080
26793WAT      O80620   1.701   2.631   9.640
26793WAT     H180621   1.737   2.582   9.561
26793WAT     H280622   1.776   2.666   9.695
26794WAT      O80623   7.600   3.390   0.788
26794WAT     H180624   7.666   3.419   0.718
26794WAT     H280625   7.644   3.391   0.877
26795WAT      O80626   7.049   5.748   9.439
26795WAT     H180627   7.124   5.712   9.383
26795WAT     H280628   7.012   5.830   9.395
26796WAT      O80629   8.209   4.828   0.628
26796WAT     H180630   8.201   4.862   0.535
26796WAT     H280631   8.119   4.828   0.672
26797WAT      O80632   1.045   5.113   4.901
26797WAT     H180633   1.139   5.125   4.932
26797WAT     H280634   1.001   5.042   4.955
26798WAT      O80635   7.647   6.581   7.195
26798WAT     H180636   7.712   6.532   7.135
26798WAT     H280637   7.594   6.646   7.140
26799WAT      O80638   8.626   2.857   6.363
26799WAT     H180639   8.680   2.937   6.337
26799WAT     H280640   8.672   2.774   6.332
26800WAT      O80641   0.124   5.774   0.638
26800WAT     H180642   0.181   5.770   0.720
26800WAT     H280643   0.028   5.762   0.664
26801WAT      O80644   4.640   4.938   6.376
26801WAT     H180645   4.692   4.862   6.337
26801WAT     H280646   4.558   4.902   6.421
26802WAT      O80647   3.177   2.562   0.765
26802WAT     H180648   3.143   2.469   0.746
26802WAT     H280649   3.104   2.628   0.750
26803WAT      O80650   4.524   2.948   1.726
26803WAT     H180651   4.513   2.997   1.640
26803WAT     H280652   4.501   2.851   1.713
26804WAT      O80653   8.005   2.920   6.027
26804WAT     H180654   8.051   2.990   6.082
26804WAT     H280655   8.005   2.949   5.931
26805WAT      O80656   6.326   4.304   7.897
26805WAT     H180657   6.228   4.320   7.886
26805WAT     H280658   6.352   4.321   7.992
26806WAT      O80659   2.528   0.270   2.309
26806WAT     H180660   2.591   0.209   2.260
26806WAT     H280661   2.462   0.309   2.244
26807WAT      O80662   6.757   7.773   9.279
26807WAT     H180663   6.817   7.697   9.304
26807WAT     H280664   6.664   7.739   9.266
26808WAT      O80665   7.554   1.755   8.201
26808WAT     H180666   7.631   1.801   8.157
26808WAT     H280667   7.488   1.726   8.132
26809WAT      O80668   8.188   6.515   6.971
26809WAT     H180669   8.192   6.609   7.004
26809WAT     H280670   8.275   6.490   6.929
26810WAT      O80671   1.280   5.496   4.622
26810WAT     H180672   1.205   5.505   4.687
26810WAT     H280673   1.316   5.587   4.600
26811WAT      O80674   3.563   4.137   8.276
26811WAT     H180675   3.577   4.236   8.265
26811WAT     H280676   3.652   4.092   8.285
26812WAT      O80677   0.623   8.573   6.928
26812WAT     H180678   0.634   8.527   7.016
26812WAT     H280679   0.595   8.507   6.858
26813WAT      O80680   6.876   7.537   0.091
26813WAT     H180681   6.872   7.581   0.181
26813WAT     H280682   6.819   7.455   0.092
26814WAT      O80683   3.970   1.032   6.027
26814WAT     H180684   3.957   1.068   6.120
26814WAT     H280685   3.998   1.107   5.967
26815WAT      O80686   7.594   9.470   4.917
26815WAT     H180687   7.502   9.433   4.934
26815WAT     H280688   7.654   9.446   4.993
26816WAT      O80689   6.180   1.833   0.320
26816WAT     H180690   6.153   1.866   0.230
26816WAT     H280691   6.100   1.796   0.367
26817WAT      O80692   5.492   9.395   4.106
26817WAT     H180693   5.459   9.489   4.104
26817WAT     H280694   5.584   9.390   4.066
26818WAT      O80695   9.242   5.084   2.250
26818WAT     H180696   9.243   4.985   2.259
26818WAT     H280697   9.280   5.126   2.333
26819WAT      O80698   8.292   0.827   9.887
26819WAT     H180699   8.387   0.843   9.860
26819WAT     H280700   8.251   0.760   9.826
26820WAT      O80701   1.850   8.001   9.863
26820WAT     H180702   1.799   7.937   9.807
26820WAT     H280703   1.924   7.953   9.910
26821WAT      O80704   2.331   4.421   8.625
26821WAT     H180705   2.249   4.377   8.589
26821WAT     H280706   2.390   4.450   8.549
26822WAT      O80707   8.126   6.512   8.630
26822WAT     H180708   8.207   6.537   8.578
26822WAT     H280709   8.112   6.413   8.625
26823WAT      O80710   8.957   8.141   7.871
26823WAT     H180711   8.972   8.071   7.941
26823WAT     H280712   9.036   8.145   7.810
26824WAT      O80713   5.102   3.317   1.693
26824WAT     H180714   5.172   3.252   1.664
26824WAT     H280715   5.040   3.272   1.758
26825WAT      O80716   1.946   4.632   2.099
26825WAT     H180717   1.956   4.587   2.187
26825WAT     H280718   1.961   4.730   2.110
26826WAT      O80719   3.526   2.027   4.220
26826WAT     H180720   3.529   2.127   4.211
26826WAT     H280721   3.434   1.999   4.246
26827WAT      O80722   0.221   3.622   9.187
26827WAT     H180723   0.288   3.640   9.115
26827WAT     H280724   0.269   3.597   9.272
26828WAT      O80725   8.398   9.695   6.214
26828WAT     H180726   8.461   9.618   6.224
26828WAT     H280727   8.344   9.704   6.298
26829WAT      O80728   7.896   9.057   0.982
26829WAT     H180729   7.893   8.958   0.997
26829WAT     H280730   7.880   9.076   0.885
26830WAT      O80731   2.202   3.678   7.156
26830WAT     H180732   2.126   3.655   7.217
26830WAT     H280733   2.252   3.756   7.193
26831WAT      O80734   7.243   2.141   3.024
26831WAT     H180735   7.266   2.175   2.932
26831WAT     H280736   7.199   2.214   3.076
26832WAT      O80737   4.444   2.717   8.758
26832WAT     H180738   4.474   2.622   8.753
26832WAT     H280739   4.425   2.742   8.853
26833WAT      O80740   0.707   7.011   0.091
26833WAT     H180741   0.671   7.101   0.115
26833WAT     H280742   0.672   6.943   0.156
26834WAT      O80743   1.824   9.081   3.764
26834WAT     H180744   1.814   8.982   3.775
26834WAT     H280745   1.801   9.127   3.850
26835WAT      O80746   3.528   0.256   8.041
26835WAT     H180747   3.534   0.186   7.970
26835WAT     H280748   3.471   0.222   8.116
26836WAT      O80749   2.953   0.413   1.675
26836WAT     H180750   2.989   0.495   1.631
26836WAT     H280751   2.973   0.417   1.773
26837WAT      O80752   5.137   5.638   6.683
26837WAT     H180753   5.182   5.661   6.596
26837WAT     H280754   5.198   5.580   6.737
26838WAT      O80755   3.153   5.857   2.953
26838WAT     H180756   3.130   5.764   2.980
26838WAT     H280757   3.139   5.919   3.030
26839WAT      O80758   1.843   6.676   3.586
26839WAT     H180759   1.803   6.755   3.631
26839WAT     H280760   1.892   6.620   3.652
26840WAT      O80761   1.018   1.890   8.303
26840WAT     H180762   0.967   1.907   8.219
26840WAT     H280763   0.955   1.860   8.375
26841WAT      O80764   0.516   9.778   4.963
26841WAT     H180765   0.478   9.722   5.037
26841WAT     H280766   0.606   9.742   4.937
26842WAT      O80767   2.763   5.345   8.452
26842WAT     H180768   2.681   5.373   8.502
26842WAT     H280769   2.738   5.312   8.362
26843WAT      O80770   3.734   6.386   5.365
26843WAT     H180771   3.796   6.465   5.358
26843WAT     H280772   3.749   6.326   5.286
26844WAT      O80773   2.994   7.258   9.875
26844WAT     H180774   2.943   7.175   9.851
26844WAT     H280775   2.949   7.304   9.951
26845WAT      O80776   5.021   1.063   5.348
26845WAT     H180777   4.968   1.118   5.414
26845WAT     H280778   4.971   1.058   5.262
26846WAT      O80779   3.045   3.382   4.661
26846WAT     H180780   3.137   3.344   4.668
26846WAT     H280781   3.045   3.456   4.593
26847WAT      O80782   3.219   9.508   0.441
26847WAT     H180783   3.240   9.411   0.453
26847WAT     H280784   3.196   9.548   0.529
26848WAT      O80785   8.404   3.442   7.579
26848WAT     H180786   8.471   3.471   7.511
26848WAT     H280787   8.312   3.452   7.541
26849WAT      O80788   3.729   3.477   4.242
26849WAT     H180789   3.669   3.509   4.169
26849WAT     H280790   3.704   3.383   4.267
26850WAT      O80791   2.965   0.301   9.803
26850WAT     H180792   3.022   0.284   9.884
26850WAT     H280793   2.972   0.398   9.778
26851WAT      O80794   2.941   8.092   5.037
26851WAT     H180795   2.950   7.994   5.054
26851WAT     H280796   2.876   8.108   4.963
26852WAT      O80797   7.014   5.631   3.083
26852WAT     H180798   6.963   5.671   3.007
26852WAT     H280799   6.963   5.645   3.168
26853WAT      O80800   5.906   7.447   1.432
26853WAT     H180801   5.924   7.349   1.437
26853WAT     H280802   5.850   7.467   1.351
26854WAT      O80803   2.051   7.123   0.227
26854WAT     H180804   2.035   7.028   0.200
26854WAT     H280805   1.981   7.151   0.293
26855WAT      O80806   3.475   0.114   5.344
26855WAT     H180807   3.436   0.082   5.258
26855WAT     H280808   3.498   0.035   5.402
26856WAT      O80809   2.652   8.747   7.385
26856WAT     H180810   2.559   8.781   7.371
26856WAT     H280811   2.715   8.798   7.327
26857WAT      O80812   5.287   0.008   7.826
26857WAT     H180813   5.370  -0.033   7.790
26857WAT     H280814   5.224   0.028   7.751
26858WAT      O80815   1.964   2.646   0.230
26858WAT     H180816   1.918   2.678   0.312
26858WAT     H280817   2.049   2.698   0.217
26859WAT      O80818   3.431   2.063   7.611
26859WAT     H180819   3.342   2.069   7.566
26859WAT     H280820   3.419   2.042   7.708
26860WAT      O80821   1.640   2.041   9.167
26860WAT     H180822   1.581   2.108   9.122
26860WAT     H280823   1.584   1.963   9.197
26861WAT      O80824   2.368   0.614   7.595
26861WAT     H180825   2.297   0.561   7.549
26861WAT     H280826   2.327   0.673   7.664
26862WAT      O80827   0.324   5.596   6.010
26862WAT     H180828   0.377   5.536   6.070
26862WAT     H280829   0.328   5.561   5.916
26863WAT      O80830   4.714   9.711   2.209
26863WAT     H180831   4.785   9.695   2.277
26863WAT     H280832   4.635   9.753   2.252
26864WAT      O80833   3.242   3.422   2.020
26864WAT     H180834   3.300   3.478   2.078
26864WAT     H280835   3.265   3.438   1.924
26865WAT      O80836   6.430   0.516   2.879
26865WAT     H180837   6.406   0.585   2.947
26865WAT     H280838   6.378   0.533   2.795
26866WAT      O80839   3.715   6.322   0.513
26866WAT     H180840   3.698   6.314   0.415
26866WAT     H280841   3.635   6.364   0.557
26867WAT      O80842   1.650   2.494   1.564
26867WAT     H180843   1.663   2.465   1.659
26867WAT     H280844   1.566   2.547   1.557
26868WAT      O80845   2.760   6.968   2.187
26868WAT     H180846   2.778   7.060   2.219
26868WAT     H280847   2.824   6.945   2.113
26869WAT      O80848   7.010   2.825   8.794
26869WAT     H180849   7.066   2.806   8.875
26869WAT     H280850   6.914   2.837   8.822
26870WAT      O80851   7.970   6.447   8.066
26870WAT     H180852   7.951   6.544   8.084
26870WAT     H280853   8.042   6.439   7.997
26871WAT      O80854   8.071   9.810   8.659
26871WAT     H180855   8.076   9.853   8.569
26871WAT     H280856   8.147   9.843   8.716
26872WAT      O80857   9.012   9.686   4.723
26872WAT     H180858   8.922   9.644   4.706
26872WAT     H280859   9.083   9.624   4.689
26873WAT      O80860   1.521   0.892   3.292
26873WAT     H180861   1.513   0.793   3.281
26873WAT     H280862   1.504   0.917   3.387
26874WAT      O80863   1.201   9.836   8.199
26874WAT     H180864   1.223   9.739   8.204
26874WAT     H280865   1.283   9.890   8.216
26875WAT      O80866   5.213   2.366   6.786
26875WAT     H180867   5.238   2.274   6.818
26875WAT     H280868   5.258   2.434   6.843
26876WAT      O80869   5.852   3.766   7.954
26876WAT     H180870   5.765   3.722   7.974
26876WAT     H280871   5.927   3.703   7.972
26877WAT      O80872   9.246   4.913   6.724
26877WAT     H180873   9.148   4.890   6.727
26877WAT     H280874   9.292   4.852   6.660
26878WAT      O80875   4.636   1.713   4.390
26878WAT     H180876   4.711   1.659   4.428
26878WAT     H280877   4.663   1.747   4.299
26879WAT      O80878   8.849   4.960   4.462
26879WAT     H180879   8.895   4.967   4.551
26879WAT     H280880   8.901   5.010   4.393
26880WAT      O80881   6.844   6.383   5.968
26880WAT     H180882   6.753   6.404   6.004
26880WAT     H280883   6.868   6.289   5.992
26881WAT      O80884   3.780   8.832   5.804
26881WAT     H180885   3.690   8.862   5.835
26881WAT     H280886   3.833   8.799   5.882
26882WAT      O80887   0.230   6.734   4.583
26882WAT     H180888   0.137   6.767   4.593
26882WAT     H280889   0.244   6.653   4.640
26883WAT      O80890   9.867   7.935   7.948
26883WAT     H180891   9.912   8.017   7.914
26883WAT     H280892   9.798   7.905   7.882
26884WAT      O80893   3.674   7.388   7.479
26884WAT     H180894   3.744   7.458   7.468
26884WAT     H280895   3.615   7.413   7.556
26885WAT      O80896   6.255   7.995   3.009
26885WAT     H180897   6.256   8.014   2.911
26885WAT     H280898   6.168   8.026   3.048
26886WAT      O80899   6.398   1.927   1.767
26886WAT     H180900   6.307   1.960   1.740
26886WAT     H280901   6.455   1.917   1.686
26887WAT      O80902   9.668   3.731   0.644
26887WAT     H180903   9.633   3.637   0.642
26887WAT     H280904   9.698   3.757   0.552
26888WAT      O80905   6.943   7.151   0.006
26888WAT     H180906   6.881   7.222   0.041
26888WAT     H280907   6.999   7.116   0.081
26889WAT      O80908   8.778   2.576   6.881
26889WAT     H180909   8.876   2.582   6.860
26889WAT     H280910   8.736   2.666   6.868
26890WAT      O80911   0.092   4.775   6.957
26890WAT     H180912   0.050   4.795   6.869
26890WAT     H280913   0.099   4.676   6.969
26891WAT      O80914   3.625   5.600   7.155
26891WAT     H180915   3.673   5.576   7.070
26891WAT     H280916   3.581   5.519   7.193
26892WAT      O80917   7.175   5.855   5.067
26892WAT     H180918   7.244   5.879   5.136
26892WAT     H280919   7.142   5.762   5.084
26893WAT      O80920   4.247   9.635   3.706
26893WAT     H180921   4.325   9.685   3.669
26893WAT     H280922   4.277   9.578   3.782
26894WAT      O80923   4.425   7.881   1.509
26894WAT     H180924   4.395   7.910   1.600
26894WAT     H280925   4.525   7.871   1.509
26895WAT      O80926   5.004   7.962   0.537
26895WAT     H180927   5.080   7.899   0.521
26895WAT     H280928   4.919   7.921   0.504
26896WAT      O80929   6.606   8.507   8.978
26896WAT     H180930   6.677   8.544   9.039
26896WAT     H280931   6.579   8.576   8.912
26897WAT      O80932   4.668   9.816   1.960
26897WAT     H180933   4.587   9.785   1.910
26897WAT     H280934   4.681   9.757   2.040
26898WAT      O80935   8.751   3.439   1.198
26898WAT     H180936   8.738   3.348   1.239
26898WAT     H280937   8.666   3.491   1.205
26899WAT      O80938   6.214   3.001   7.571
26899WAT     H180939   6.258   3.045   7.493
26899WAT     H280940   6.254   2.911   7.585
26900WAT      O80941   6.051   0.357   2.166
26900WAT     H180942   6.009   0.443   2.138
26900WAT     H280943   6.150   0.367   2.168
26901WAT      O80944   9.634   0.371   5.487
26901WAT     H180945   9.686   0.441   5.536
26901WAT     H280946   9.679   0.350   5.401
26902WAT      O80947   2.574   9.045   2.577
26902WAT     H180948   2.537   9.078   2.490
26902WAT     H280949   2.513   9.073   2.652
26903WAT      O80950   4.466   1.204   5.326
26903WAT     H180951   4.377   1.162   5.341
26903WAT     H280952   4.537   1.134   5.336
26904WAT      O80953   7.661   8.762   8.338
26904WAT     H180954   7.624   8.726   8.424
26904WAT     H280955   7.751   8.801   8.353
26905WAT      O80956   4.515   2.110   6.858
26905WAT     H180957   4.596   2.061   6.889
26905WAT     H280958   4.447   2.112   6.931
26906WAT      O80959   1.708   8.802   4.243
26906WAT     H180960   1.610   8.815   4.258
26906WAT     H280961   1.740   8.725   4.299
26907WAT      O80962   6.113   6.220   2.941
26907WAT     H180963   6.091   6.177   2.854
26907WAT     H280964   6.165   6.303   2.925
26908WAT      O80965   1.421   5.928   3.110
26908WAT     H180966   1.473   6.004   3.148
26908WAT     H280967   1.415   5.938   3.010
26909WAT      O80968   1.353   1.596   9.730
26909WAT     H180969   1.291   1.579   9.806
26909WAT     H280970   1.446   1.607   9.765
26910WAT      O80971   1.016   7.509   9.750
26910WAT     H180972   0.983   7.524   9.657
26910WAT     H280973   0.939   7.485   9.809
26911WAT      O80974   4.351   9.320   2.099
26911WAT     H180975   4.296   9.321   2.182
26911WAT     H280976   4.439   9.365   2.116
26912WAT      O80977   3.334   0.728   7.634
26912WAT     H180978   3.327   0.817   7.589
26912WAT     H280979   3.243   0.692   7.652
26913WAT      O80980   3.843   5.018   7.754
26913WAT     H180981   3.815   4.967   7.673
26913WAT     H280982   3.785   5.099   7.764
26914WAT      O80983   0.090   4.186   9.823
26914WAT     H180984   0.009   4.242   9.841
26914WAT     H280985   0.165   4.245   9.792
26915WAT      O80986   1.162   3.490   2.440
26915WAT     H180987   1.254   3.515   2.470
26915WAT     H280988   1.152   3.390   2.444
26916WAT      O80989   5.620   7.287   3.725
26916WAT     H180990   5.712   7.291   3.764
26916WAT     H280991   5.566   7.220   3.777
26917WAT      O80992   2.467   4.138   7.691
26917WAT     H180993   2.551   4.108   7.737
26917WAT     H280994   2.439   4.226   7.728
26918WAT      O80995   1.769   0.308   4.591
26918WAT     H180996   1.817   0.359   4.519
26918WAT     H280997   1.796   0.344   4.680
26919WAT      O80998   3.446   8.145   0.593
26919WAT     H180999   3.346   8.156   0.593
26919WAT     H281000   3.472   8.077   0.525
26920WAT      O81001   4.392   6.426   2.301
26920WAT     H181002   4.350   6.516   2.287
26920WAT     H281003   4.490   6.437   2.317
26921WAT      O81004   3.992   1.725   2.331
26921WAT     H181005   4.081   1.704   2.371
26921WAT     H281006   4.002   1.738   2.232
26922WAT      O81007   5.359   8.599   8.393
26922WAT     H181008   5.269   8.637   8.415
26922WAT     H281009   5.385   8.532   8.462
26923WAT      O81010   7.872   3.767   5.369
26923WAT     H181011   7.855   3.822   5.287
26923WAT     H281012   7.910   3.679   5.342
26924WAT      O81013   3.389   4.436   9.764
26924WAT     H181014   3.469   4.419   9.822
26924WAT     H281015   3.335   4.353   9.757
26925WAT      O81016   0.533   8.558   3.065
26925WAT     H181017   0.489   8.648   3.059
26925WAT     H281018   0.528   8.513   2.976
26926WAT      O81019   6.158   4.029   3.879
26926WAT     H181020   6.155   3.987   3.789
26926WAT     H281021   6.244   4.007   3.925
26927WAT      O81022   6.651   4.816   3.441
26927WAT     H181023   6.650   4.718   3.462
26927WAT     H281024   6.718   4.861   3.499
26928WAT      O81025   7.956   6.184   4.713
26928WAT     H181026   7.876   6.167   4.655
26928WAT     H281027   8.036   6.202   4.656
26929WAT      O81028   1.226   3.625   4.486
26929WAT     H181029   1.287   3.684   4.539
26929WAT     H281030   1.273   3.592   4.404
26930WAT      O81031   0.811   8.357   6.166
26930WAT     H181032   0.901   8.399   6.155
26930WAT     H281033   0.807   8.272   6.114
26931WAT      O81034   5.112   4.963   3.294
26931WAT     H181035   5.013   4.962   3.281
26931WAT     H281036   5.146   4.869   3.294
26932WAT      O81037   3.012   5.406   5.578
26932WAT     H181038   3.010   5.497   5.618
26932WAT     H281039   3.068   5.345   5.635
26933WAT      O81040   1.346   8.566   5.679
26933WAT     H181041   1.440   8.545   5.705
26933WAT     H281042   1.284   8.543   5.755
26934WAT      O81043   0.540   4.275   4.613
26934WAT     H181044   0.474   4.329   4.562
26934WAT     H281045   0.577   4.203   4.554
26935WAT      O81046   2.837   0.163   4.222
26935WAT     H181047   2.862   0.174   4.125
26935WAT     H281048   2.766   0.093   4.230
26936WAT      O81049   3.153   6.865   7.747
26936WAT     H181050   3.126   6.817   7.831
26936WAT     H281051   3.091   6.841   7.673
26937WAT      O81052   2.815   6.980   1.241
26937WAT     H181053   2.773   7.060   1.198
26937WAT     H281054   2.820   6.993   1.340
26938WAT      O81055   0.825   3.113   5.832
26938WAT     H181056   0.861   3.042   5.892
26938WAT     H281057   0.725   3.105   5.827
26939WAT      O81058   1.196   3.332   3.900
26939WAT     H181059   1.202   3.265   3.826
26939WAT     H281060   1.209   3.424   3.864
26940WAT      O81061   8.723   8.181   8.497
26940WAT     H181062   8.657   8.255   8.511
26940WAT     H281063   8.788   8.207   8.426
26941WAT      O81064   5.858   7.854   4.626
26941WAT     H181065   5.939   7.815   4.583
26941WAT     H281066   5.778   7.798   4.604
26942WAT      O81067   5.359   1.708   6.238
26942WAT     H181068   5.373   1.646   6.315
26942WAT     H281069   5.311   1.790   6.270
26943WAT      O81070   2.511   3.171   0.095
26943WAT     H181071   2.577   3.236   0.133
26943WAT     H281072   2.435   3.221   0.053
26944WAT      O81073   4.643   7.295   2.333
26944WAT     H181074   4.690   7.260   2.414
26944WAT     H281075   4.580   7.368   2.361
26945WAT      O81076   8.010   5.497   2.491
26945WAT     H181077   8.069   5.528   2.417
26945WAT     H281078   8.058   5.507   2.579
26946WAT      O81079   1.094   9.454   3.462
26946WAT     H181080   1.103   9.368   3.412
26946WAT     H281081   1.070   9.528   3.399
26947WAT      O81082   3.967   1.146   9.288
26947WAT     H181083   3.895   1.149   9.357
26947WAT     H281084   3.937   1.089   9.211
26948WAT      O81085   7.553   9.206   9.448
26948WAT     H181086   7.644   9.248   9.451
26948WAT     H281087   7.497   9.253   9.380
26949WAT      O81088   1.646   8.441   8.631
26949WAT     H181089   1.646   8.353   8.584
26949WAT     H281090   1.716   8.500   8.591
26950WAT      O81091   0.533   0.496   6.959
26950WAT     H181092   0.502   0.431   7.028
26950WAT     H281093   0.633   0.494   6.953
26951WAT      O81094   0.575   4.673   3.061
26951WAT     H181095   0.477   4.667   3.044
26951WAT     H281096   0.592   4.739   3.134
26952WAT      O81097   7.442   5.523   8.262
26952WAT     H181098   7.471   5.429   8.247
26952WAT     H281099   7.344   5.525   8.281
26953WAT      O81100   5.362   7.479   1.348
26953WAT     H181101   5.451   7.433   1.341
26953WAT     H281102   5.352   7.543   1.272
26954WAT      O81103   8.667   4.493   5.775
26954WAT     H181104   8.767   4.482   5.766
26954WAT     H281105   8.633   4.546   5.698
26955WAT      O81106   3.879   6.659   9.441
26955WAT     H181107   3.927   6.588   9.389
26955WAT     H281108   3.845   6.620   9.527
26956WAT      O81109   6.939   1.728   9.333
26956WAT     H181110   6.973   1.761   9.421
26956WAT     H281111   6.926   1.805   9.271
26957WAT      O81112   0.039   2.980   5.523
26957WAT     H181113   0.064   3.067   5.565
26957WAT     H281114  -0.060   2.974   5.515
26958WAT      O81115   1.802   7.563   7.608
26958WAT     H181116   1.753   7.486   7.647
26958WAT     H281117   1.883   7.583   7.663
26959WAT      O81118   2.997   2.024   1.876
26959WAT     H181119   3.089   2.059   1.864
26959WAT     H281120   2.939   2.054   1.800
26960WAT      O81121   3.983   9.467   4.870
26960WAT     H181122   4.050   9.480   4.942
26960WAT     H281123   3.988   9.542   4.805
26961WAT      O81124   1.565   0.086   6.650
26961WAT     H181125   1.477   0.089   6.603
26961WAT     H281126   1.553   0.103   6.747
26962WAT      O81127   4.483   4.572   2.301
26962WAT     H181128   4.526   4.661   2.289
26962WAT     H281129   4.407   4.579   2.365
26963WAT      O81130   8.110   5.169   8.225
26963WAT     H181131   8.183   5.182   8.292
26963WAT     H281132   8.140   5.104   8.155
26964WAT      O81133   3.513   6.850   6.302
26964WAT     H181134   3.578   6.913   6.259
26964WAT     H281135   3.458   6.900   6.369
26965WAT      O81136   4.358   7.780   5.886
26965WAT     H181137   4.446   7.797   5.841
26965WAT     H281138   4.330   7.863   5.935
26966WAT      O81139   6.610   2.276   8.762
26966WAT     H181140   6.676   2.351   8.760
26966WAT     H281141   6.601   2.236   8.671
26967WAT      O81142   8.659   8.137   5.577
26967WAT     H181143   8.593   8.212   5.580
26967WAT     H281144   8.611   8.051   5.593
26968WAT      O81145   4.033   4.216   2.203
26968WAT     H181146   4.081   4.299   2.233
26968WAT     H281147   3.938   4.219   2.235
26969WAT      O81148   7.791   8.735   2.043
26969WAT     H181149   7.891   8.744   2.044
26969WAT     H281150   7.754   8.779   1.961
26970WAT      O81151   8.110   6.733   3.017
26970WAT     H181152   8.108   6.694   3.109
26970WAT     H281153   8.182   6.688   2.963
26971WAT      O81154   0.648   7.529   3.154
26971WAT     H181155   0.684   7.464   3.087
26971WAT     H281156   0.720   7.554   3.218
26972WAT      O81157   8.120   0.771   5.946
26972WAT     H181158   8.138   0.734   6.037
26972WAT     H281159   8.056   0.847   5.952
26973WAT      O81160   0.569   6.166   6.132
26973WAT     H181161   0.658   6.121   6.125
26973WAT     H281162   0.546   6.179   6.229
26974WAT      O81163   6.507   3.330   7.244
26974WAT     H181164   6.556   3.273   7.177
26974WAT     H281165   6.570   3.360   7.315
26975WAT      O81166   8.469   0.819   4.481
26975WAT     H181167   8.453   0.835   4.579
26975WAT     H281168   8.425   0.733   4.454
26976WAT      O81169   9.457   9.536   1.840
26976WAT     H181170   9.467   9.535   1.740
26976WAT     H281171   9.518   9.605   1.878
26977WAT      O81172   4.869   7.571   5.284
26977WAT     H181173   4.904   7.516   5.208
26977WAT     H281174   4.854   7.513   5.364
26978WAT      O81175   5.171   3.275   7.895
26978WAT     H181176   5.094   3.242   7.948
26978WAT     H281177   5.212   3.200   7.844
26979WAT      O81178   2.428   9.633   7.869
26979WAT     H181179   2.365   9.590   7.934
26979WAT     H281180   2.464   9.717   7.910
26980WAT      O81181   2.434   5.860   5.176
26980WAT     H181182   2.425   5.954   5.144
26980WAT     H281183   2.493   5.808   5.114
26981WAT      O81184   0.030   0.693   9.362
26981WAT     H181185  -0.061   0.728   9.385
26981WAT     H281186   0.084   0.681   9.445
26982WAT      O81187   4.434   1.623   5.551
26982WAT     H181188   4.390   1.534   5.540
26982WAT     H281189   4.388   1.674   5.625
26983WAT      O81190   8.217   0.351   9.674
26983WAT     H181191   8.301   0.310   9.708
26983WAT     H281192   8.145   0.343   9.743
26984WAT      O81193   9.437   9.245   8.677
26984WAT     H181194   9.520   9.300   8.673
26984WAT     H281195   9.419   9.219   8.772
26985WAT      O81196   7.614   0.697   6.821
26985WAT     H181197   7.542   0.761   6.848
26985WAT     H281198   7.702   0.744   6.821
26986WAT      O81199   2.765   6.542   2.510
26986WAT     H181200   2.824   6.612   2.551
26986WAT     H281201   2.696   6.586   2.453
26987WAT      O81202   7.486   9.612   9.362
26987WAT     H181203   7.435   9.527   9.348
26987WAT     H281204   7.479   9.670   9.281
26988WAT      O81205   6.241   5.474   8.699
26988WAT     H181206   6.299   5.459   8.619
26988WAT     H281207   6.202   5.566   8.695
26989WAT      O81208   9.469   3.090   3.534
26989WAT     H181209   9.557   3.072   3.490
26989WAT     H281210   9.481   3.093   3.633
26990WAT      O81211   7.214   5.798   4.034
26990WAT     H181212   7.274   5.724   4.064
26990WAT     H281213   7.198   5.861   4.110
26991WAT      O81214   7.775   6.202   7.734
26991WAT     H181215   7.787   6.134   7.661
26991WAT     H281216   7.735   6.285   7.695
26992WAT      O81217   8.785   0.582   0.129
26992WAT     H181218   8.860   0.553   0.188
26992WAT     H281219   8.812   0.664   0.077
26993WAT      O81220   8.525   6.766   6.784
26993WAT     H181221   8.608   6.807   6.745
26993WAT     H281222   8.464   6.739   6.709
26994WAT      O81223   5.348   2.091   5.361
26994WAT     H181224   5.274   2.051   5.415
26994WAT     H281225   5.435   2.077   5.408
26995WAT      O81226   7.223   0.436   4.587
26995WAT     H181227   7.167   0.414   4.507
26995WAT     H281228   7.190   0.521   4.628
26996WAT      O81229   2.199   9.216   6.690
26996WAT     H181230   2.134   9.224   6.766
26996WAT     H281231   2.149   9.193   6.606
26997WAT      O81232   2.690   0.438   4.907
26997WAT     H181233   2.771   0.426   4.851
26997WAT     H281234   2.651   0.349   4.930
26998WAT      O81235   1.906   2.402   6.835
26998WAT     H181236   1.823   2.420   6.783
26998WAT     H281237   1.936   2.308   6.821
26999WAT      O81238   6.442   5.789   2.892
26999WAT     H181239   6.518   5.815   2.833
26999WAT     H281240   6.357   5.828   2.856
27000WAT      O81241   1.956   1.460   8.710
27000WAT     H181242   2.024   1.531   8.728
27000WAT     H281243   1.958   1.392   8.783
27001WAT      O81244   2.081   8.436   4.837
27001WAT     H181245   2.121   8.375   4.905
27001WAT     H281246   1.989   8.463   4.866
27002WAT      O81247   5.578   9.735   5.963
27002WAT     H181248   5.572   9.702   5.868
27002WAT     H281249   5.640   9.813   5.967
27003WAT      O81250   0.899   6.182   0.818
27003WAT     H181251   0.832   6.160   0.889
27003WAT     H281252   0.949   6.264   0.844
27004WAT      O81253   6.266   2.144   9.334
27004WAT     H181254   6.260   2.152   9.235
27004WAT     H281255   6.259   2.048   9.361
27005WAT      O81256   8.824   9.436   4.658
27005WAT     H181257   8.861   9.391   4.578
27005WAT     H281258   8.876   9.409   4.739
27006WAT      O81259   6.409   9.691   7.055
27006WAT     H181260   6.438   9.747   6.978
27006WAT     H281261   6.489   9.657   7.104
27007WAT      O81262   7.105   5.366   4.608
27007WAT     H181263   7.053   5.337   4.528
27007WAT     H281264   7.176   5.430   4.578
27008WAT      O81265   0.139   1.205   2.065
27008WAT     H181266   0.167   1.228   2.159
27008WAT     H281267   0.175   1.116   2.040
27009WAT      O81268   1.273   1.602   0.128
27009WAT     H181269   1.220   1.682   0.100
27009WAT     H281270   1.230   1.560   0.208
27010WAT      O81271   2.206   2.758   0.502
27010WAT     H181272   2.229   2.744   0.406
27010WAT     H281273   2.108   2.775   0.511
27011WAT      O81274   3.149   8.217   2.923
27011WAT     H181275   3.196   8.164   2.993
27011WAT     H281276   3.050   8.210   2.937
27012WAT      O81277   8.131   7.621   9.694
27012WAT     H181278   8.182   7.559   9.635
27012WAT     H281279   8.125   7.711   9.651
27013WAT      O81280   6.672   1.527   8.263
27013WAT     H181281   6.723   1.526   8.177
27013WAT     H281282   6.577   1.503   8.245
27014WAT      O81283   3.521   6.680   4.447
27014WAT     H181284   3.478   6.630   4.523
27014WAT     H281285   3.479   6.770   4.438
27015WAT      O81286   8.236   0.599   3.733
27015WAT     H181287   8.299   0.533   3.693
27015WAT     H281288   8.149   0.597   3.683
27016WAT      O81289   6.693   8.753   5.146
27016WAT     H181290   6.780   8.709   5.167
27016WAT     H281291   6.648   8.781   5.231
27017WAT      O81292   2.906   1.770   6.882
27017WAT     H181293   2.958   1.844   6.838
27017WAT     H281294   2.939   1.682   6.849
27018WAT      O81295   6.463   5.814   4.571
27018WAT     H181296   6.374   5.767   4.569
27018WAT     H281297   6.453   5.901   4.620
27019WAT      O81298   1.801   1.133   1.722
27019WAT     H181299   1.756   1.084   1.797
27019WAT     H281300   1.784   1.086   1.636
27020WAT      O81301   5.122   6.577   9.723
27020WAT     H181302   5.203   6.616   9.768
27020WAT     H281303   5.099   6.490   9.766
27021WAT      O81304   6.130   0.513   9.701
27021WAT     H181305   6.165   0.441   9.640
27021WAT     H281306   6.076   0.471   9.774
27022WAT      O81307   0.229   9.691   3.652
27022WAT     H181308   0.324   9.679   3.682
27022WAT     H281309   0.175   9.727   3.727
27023WAT      O81310   8.506   9.354   8.777
27023WAT     H181311   8.536   9.378   8.869
27023WAT     H281312   8.408   9.335   8.777
27024WAT      O81313   7.078   6.484   3.781
27024WAT     H181314   7.035   6.528   3.702
27024WAT     H281315   7.050   6.532   3.865
27025WAT      O81316   9.453   8.355   6.824
27025WAT     H181317   9.549   8.382   6.825
27025WAT     H281318   9.406   8.396   6.902
27026WAT      O81319   4.797   8.200   7.659
27026WAT     H181320   4.795   8.117   7.604
27026WAT     H281321   4.809   8.176   7.756
27027WAT      O81322   2.118   1.830   7.554
27027WAT     H181323   2.198   1.883   7.527
27027WAT     H281324   2.100   1.759   7.486
27028WAT      O81325   0.185   5.240   3.610
27028WAT     H181326   0.167   5.239   3.709
27028WAT     H281327   0.270   5.191   3.591
27029WAT      O81328   7.396   3.056   5.966
27029WAT     H181329   7.443   3.130   5.918
27029WAT     H281330   7.326   3.017   5.905
27030WAT      O81331   4.372   0.627   8.577
27030WAT     H181332   4.423   0.674   8.504
27030WAT     H281333   4.276   0.657   8.575
27031WAT      O81334   2.780   6.175   4.089
27031WAT     H181335   2.771   6.128   4.001
27031WAT     H281336   2.711   6.247   4.096
27032WAT      O81337   8.170   2.233   2.109
27032WAT     H181338   8.156   2.161   2.176
27032WAT     H281339   8.206   2.314   2.154
27033WAT      O81340   6.145   3.556   6.173
27033WAT     H181341   6.142   3.644   6.125
27033WAT     H281342   6.193   3.489   6.117
27034WAT      O81343   1.778   6.545   4.444
27034WAT     H181344   1.727   6.581   4.366
27034WAT     H281345   1.876   6.553   4.426
27035WAT      O81346   4.163   3.295   0.434
27035WAT     H181347   4.142   3.293   0.336
27035WAT     H281348   4.184   3.203   0.466
27036WAT      O81349   1.405   1.077   4.417
27036WAT     H181350   1.486   1.104   4.469
27036WAT     H281351   1.331   1.142   4.433
27037WAT      O81352   9.550   8.115   7.987
27037WAT     H181353   9.558   8.038   7.924
27037WAT     H281354   9.569   8.200   7.939
27038WAT      O81355   4.200   1.787   4.174
27038WAT     H181356   4.178   1.691   4.189
27038WAT     H281357   4.116   1.841   4.177
27039WAT      O81358   5.170   9.009   2.846
27039WAT     H181359   5.098   9.070   2.814
27039WAT     H281360   5.183   9.022   2.944
27040WAT      O81361   0.160   3.241   6.043
27040WAT     H181362   0.133   3.154   6.000
27040WAT     H281363   0.257   3.237   6.067
27041WAT      O81364   1.289   1.682   4.826
27041WAT     H181365   1.277   1.728   4.914
27041WAT     H281366   1.355   1.733   4.771
27042WAT      O81367   2.230   8.883   7.340
27042WAT     H181368   2.261   8.827   7.416
27042WAT     H281369   2.141   8.850   7.308
27043WAT      O81370   8.535   9.204   0.634
27043WAT     H181371   8.500   9.254   0.712
27043WAT     H281372   8.630   9.177   0.650
27044WAT      O81373   2.701   5.591   1.501
27044WAT     H181374   2.792   5.599   1.543
27044WAT     H281375   2.667   5.498   1.514
27045WAT      O81376   9.808   3.668   8.824
27045WAT     H181377   9.734   3.728   8.794
27045WAT     H281378   9.793   3.575   8.790
27046WAT      O81379   6.062   6.818   7.862
27046WAT     H181380   6.056   6.875   7.780
27046WAT     H281381   6.150   6.834   7.907
27047WAT      O81382   0.714   2.671   9.476
27047WAT     H181383   0.775   2.696   9.401
27047WAT     H281384   0.738   2.723   9.558
27048WAT      O81385   2.782   7.477   2.910
27048WAT     H181386   2.765   7.576   2.913
27048WAT     H281387   2.713   7.430   2.964
27049WAT      O81388   8.176   7.840   8.386
27049WAT     H181389   8.240   7.842   8.463
27049WAT     H281390   8.226   7.852   8.300
27050WAT      O81391   7.711   3.369   4.015
27050WAT     H181392   7.686   3.463   3.993
27050WAT     H281393   7.673   3.307   3.946
27051WAT      O81394   3.070   4.396   7.798
27051WAT     H181395   3.023   4.332   7.737
27051WAT     H281396   3.155   4.428   7.754
27052WAT      O81397   6.994   8.282   7.668
27052WAT     H181398   7.033   8.192   7.645
27052WAT     H281399   7.056   8.331   7.728
27053WAT      O81400   2.012   6.282   2.004
27053WAT     H181401   1.935   6.232   2.044
27053WAT     H281402   1.988   6.311   1.911
27054WAT      O81403   5.403   0.931   3.007
27054WAT     H181404   5.369   0.875   2.931
27054WAT     H281405   5.395   1.027   2.984
27055WAT      O81406   7.930   2.588   1.847
27055WAT     H181407   8.014   2.609   1.897
27055WAT     H281408   7.950   2.528   1.770
27056WAT      O81409   2.651   3.005   5.754
27056WAT     H181410   2.625   2.944   5.830
27056WAT     H281411   2.631   3.099   5.779
27057WAT      O81412   7.096   1.779   8.582
27057WAT     H181413   7.028   1.853   8.583
27057WAT     H281414   7.081   1.722   8.501
27058WAT      O81415   5.646   3.579   8.897
27058WAT     H181416   5.706   3.654   8.868
27058WAT     H281417   5.610   3.533   8.815
27059WAT      O81418   0.314   7.030   7.275
27059WAT     H181419   0.305   6.955   7.340
27059WAT     H281420   0.391   7.088   7.301
27060WAT      O81421   4.445   3.046   8.355
27060WAT     H181422   4.388   3.066   8.435
27060WAT     H281423   4.402   3.083   8.273
27061WAT      O81424   3.730   6.290   6.555
27061WAT     H181425   3.802   6.319   6.492
27061WAT     H281426   3.715   6.362   6.623
27062WAT      O81427   2.290   8.329   9.847
27062WAT     H181428   2.325   8.334   9.754
27062WAT     H281429   2.358   8.366   9.911
27063WAT      O81430   0.475   0.676   2.201
27063WAT     H181431   0.549   0.620   2.237
27063WAT     H281432   0.454   0.749   2.265
27064WAT      O81433   0.305   8.090   5.454
27064WAT     H181434   0.238   8.059   5.387
27064WAT     H281435   0.391   8.040   5.441
27065WAT      O81436   7.002   3.059   5.147
27065WAT     H181437   6.959   3.097   5.229
27065WAT     H281438   6.932   3.043   5.077
27066WAT      O81439   2.276   3.771   8.162
27066WAT     H181440   2.193   3.736   8.118
27066WAT     H281441   2.253   3.852   8.216
27067WAT      O81442   6.719   5.727   8.151
27067WAT     H181443   6.810   5.727   8.109
27067WAT     H281444   6.728   5.709   8.249
27068WAT      O81445   0.121   3.302   7.878
27068WAT     H181446   0.112   3.384   7.936
27068WAT     H281447   0.031   3.261   7.865
27069WAT      O81448   7.350   4.373   8.485
27069WAT     H181449   7.414   4.314   8.437
27069WAT     H281450   7.288   4.318   8.541
27070WAT      O81451   4.365   2.660   0.105
27070WAT     H181452   4.399   2.577   0.150
27070WAT     H281453   4.270   2.645   0.077
27071WAT      O81454   1.359   6.971   8.028
27071WAT     H181455   1.415   7.032   8.084
27071WAT     H281456   1.275   7.019   8.002
27072WAT      O81457   1.513   3.225   9.199
27072WAT     H181458   1.571   3.179   9.266
27072WAT     H281459   1.470   3.157   9.140
27073WAT      O81460   9.233   2.859   8.221
27073WAT     H181461   9.262   2.924   8.151
27073WAT     H281462   9.198   2.910   8.300
27074WAT      O81463   4.432   1.389   3.316
27074WAT     H181464   4.492   1.348   3.246
27074WAT     H281465   4.461   1.358   3.406
27075WAT      O81466   8.839   1.099   7.681
27075WAT     H181467   8.740   1.090   7.689
27075WAT     H281468   8.873   1.151   7.760
27076WAT      O81469   9.140   5.775   8.989
27076WAT     H181470   9.217   5.793   8.927
27076WAT     H281471   9.062   5.742   8.936
27077WAT      O81472   1.718   4.269   9.178
27077WAT     H181473   1.718   4.330   9.098
27077WAT     H281474   1.755   4.318   9.257
27078WAT      O81475   6.714   7.347   1.383
27078WAT     H181476   6.809   7.367   1.361
27078WAT     H281477   6.658   7.429   1.371
27079WAT      O81478   7.579   7.430   2.149
27079WAT     H181479   7.497   7.409   2.202
27079WAT     H281480   7.597   7.528   2.152
27080WAT      O81481   3.612   8.475   8.846
27080WAT     H181482   3.679   8.422   8.794
27080WAT     H281483   3.522   8.467   8.802
27081WAT      O81484   3.369   2.568   6.293
27081WAT     H181485   3.325   2.478   6.298
27081WAT     H281486   3.314   2.628   6.235
27082WAT      O81487   7.161   7.033   4.009
27082WAT     H181488   7.216   6.975   4.069
27082WAT     H281489   7.191   7.128   4.017
27083WAT      O81490   0.231   7.879   3.241
27083WAT     H181491   0.295   7.815   3.283
27083WAT     H281492   0.280   7.963   3.216
27084WAT      O81493   7.847   4.870   7.962
27084WAT     H181494   7.883   4.955   7.923
27084WAT     H281495   7.829   4.883   8.060
27085WAT      O81496   8.235   6.448   5.504
27085WAT     H181497   8.209   6.537   5.541
27085WAT     H281498   8.153   6.400   5.474
27086WAT      O81499   1.938   7.666   1.545
27086WAT     H181500   1.869   7.631   1.482
27086WAT     H281501   2.016   7.604   1.547
27087WAT      O81502   4.832   0.639   3.656
27087WAT     H181503   4.851   0.726   3.612
27087WAT     H281504   4.733   0.623   3.659
27088WAT      O81505   8.275   0.014   3.847
27088WAT     H181506   8.282  -0.037   3.761
27088WAT     H281507   8.352  -0.009   3.906
27089WAT      O81508   2.428   9.330   7.473
27089WAT     H181509   2.352   9.387   7.441
27089WAT     H281510   2.505   9.341   7.411
27090WAT      O81511   9.202   8.104   9.652
27090WAT     H181512   9.260   8.184   9.667
27090WAT     H281513   9.189   8.091   9.553
27091WAT      O81514   1.309   9.264   7.549
27091WAT     H181515   1.250   9.195   7.506
27091WAT     H281516   1.334   9.333   7.482
27092WAT      O81517   7.039   4.669   6.793
27092WAT     H181518   7.063   4.698   6.700
27092WAT     H281519   6.940   4.680   6.807
27093WAT      O81520   4.732   4.537   7.511
27093WAT     H181521   4.764   4.555   7.418
27093WAT     H281522   4.753   4.442   7.536
27094WAT      O81523   8.791   6.208   5.622
27094WAT     H181524   8.776   6.231   5.525
27094WAT     H281525   8.734   6.267   5.679
27095WAT      O81526   5.695   5.280   7.559
27095WAT     H181527   5.647   5.353   7.509
27095WAT     H281528   5.731   5.316   7.645
27096WAT      O81529   5.759   2.866   7.957
27096WAT     H181530   5.694   2.850   7.882
27096WAT     H281531   5.810   2.950   7.938
27097WAT      O81532   5.100   2.744   4.403
27097WAT     H181533   5.027   2.788   4.350
27097WAT     H281534   5.061   2.690   4.476
27098WAT      O81535   9.116   5.104   0.773
27098WAT     H181536   9.019   5.078   0.776
27098WAT     H281537   9.151   5.090   0.681
27099WAT      O81538   0.325   6.638   3.296
27099WAT     H181539   0.365   6.684   3.375
27099WAT     H281540   0.295   6.707   3.229
27100WAT      O81541   9.225   7.126   4.021
27100WAT     H181542   9.195   7.090   3.932
27100WAT     H281543   9.146   7.155   4.074
27101WAT      O81544   9.826   9.280   0.254
27101WAT     H181545   9.787   9.192   0.227
27101WAT     H281546   9.809   9.348   0.183
27102WAT      O81547   9.498   7.384   5.816
27102WAT     H181548   9.535   7.313   5.756
27102WAT     H281549   9.497   7.472   5.769
27103WAT      O81550   3.425   8.582   5.579
27103WAT     H181551   3.362   8.641   5.629
27103WAT     H281552   3.456   8.629   5.496
27104WAT      O81553   0.875   5.817   4.390
27104WAT     H181554   0.875   5.718   4.399
27104WAT     H281555   0.838   5.858   4.474
27105WAT      O81556   0.436   8.697   9.312
27105WAT     H181557   0.394   8.768   9.368
27105WAT     H281558   0.535   8.714   9.306
27106WAT      O81559   0.855   3.531   5.546
27106WAT     H181560   0.829   3.566   5.455
27106WAT     H281561   0.775   3.489   5.589
27107WAT      O81562   4.763   5.932   3.320
27107WAT     H181563   4.735   5.980   3.236
27107WAT     H281564   4.811   5.995   3.380
27108WAT      O81565   9.336   4.124   0.199
27108WAT     H181566   9.263   4.083   0.145
27108WAT     H281567   9.317   4.221   0.213
27109WAT      O81568   6.080   5.179   3.129
27109WAT     H181569   6.085   5.218   3.036
27109WAT     H281570   5.987   5.192   3.164
27110WAT      O81571   6.114   3.655   9.565
27110WAT     H181572   6.031   3.684   9.518
27110WAT     H281573   6.166   3.736   9.594
27111WAT      O81574   7.652   4.785   7.304
27111WAT     H181575   7.686   4.847   7.234
27111WAT     H281576   7.728   4.733   7.342
27112WAT      O81577   4.795   7.721   3.253
27112WAT     H181578   4.876   7.746   3.200
27112WAT     H281579   4.814   7.733   3.350
27113WAT      O81580   4.278   3.004   1.856
27113WAT     H181581   4.372   2.983   1.831
27113WAT     H281582   4.277   3.066   1.934
27114WAT      O81583   5.773   5.271   1.986
27114WAT     H181584   5.727   5.183   1.979
27114WAT     H281585   5.870   5.259   1.967
27115WAT      O81586   8.282   1.559   4.413
27115WAT     H181587   8.251   1.465   4.397
27115WAT     H281588   8.226   1.622   4.358
27116WAT      O81589   8.388   2.354   3.762
27116WAT     H181590   8.423   2.431   3.709
27116WAT     H281591   8.459   2.322   3.826
27117WAT      O81592   2.266   1.521   5.980
27117WAT     H181593   2.235   1.587   5.911
27117WAT     H281594   2.192   1.457   6.000
27118WAT      O81595   9.845   3.650   9.104
27118WAT     H181596   9.937   3.635   9.139
27118WAT     H281597   9.845   3.640   9.005
27119WAT      O81598   2.412   9.767   9.410
27119WAT     H181599   2.406   9.861   9.443
27119WAT     H281600   2.444   9.708   9.484
27120WAT      O81601   1.241   4.144   1.739
27120WAT     H181602   1.319   4.127   1.798
27120WAT     H281603   1.157   4.114   1.785
27121WAT      O81604   4.734   5.367   6.240
27121WAT     H181605   4.674   5.390   6.163
27121WAT     H281606   4.685   5.310   6.306
27122WAT      O81607   6.410   4.610   9.626
27122WAT     H181608   6.423   4.570   9.535
27122WAT     H281609   6.332   4.566   9.671
27123WAT      O81610   3.173   5.614   1.550
27123WAT     H181611   3.208   5.653   1.464
27123WAT     H281612   3.123   5.530   1.531
27124WAT      O81613   8.745   8.200   1.317
27124WAT     H181614   8.753   8.297   1.342
27124WAT     H281615   8.834   8.155   1.328
27125WAT      O81616   0.452   2.444   7.396
27125WAT     H181617   0.441   2.385   7.476
27125WAT     H281618   0.362   2.481   7.369
27126WAT      O81619   8.178   7.244   8.696
27126WAT     H181620   8.203   7.326   8.645
27126WAT     H281621   8.210   7.253   8.791
27127WAT      O81622   4.989   3.236   8.329
27127WAT     H181623   4.911   3.278   8.375
27127WAT     H281624   5.074   3.278   8.361
27128WAT      O81625   7.923   5.176   2.132
27128WAT     H181626   7.962   5.087   2.111
27128WAT     H281627   7.996   5.244   2.139
27129WAT      O81628   4.737   3.791   3.531
27129WAT     H181629   4.653   3.757   3.572
27129WAT     H281630   4.767   3.874   3.579
27130WAT      O81631   2.224   5.606   4.809
27130WAT     H181632   2.219   5.599   4.908
27130WAT     H281633   2.301   5.552   4.775
27131WAT      O81634   5.716   2.149   7.021
27131WAT     H181635   5.699   2.105   6.933
27131WAT     H281636   5.677   2.241   7.021
27132WAT      O81637   2.655   7.417   8.603
27132WAT     H181638   2.615   7.473   8.675
27132WAT     H281639   2.676   7.474   8.524
27133WAT      O81640   0.880   8.945   9.398
27133WAT     H181641   0.882   9.034   9.352
27133WAT     H281642   0.879   8.959   9.497
27134WAT      O81643   5.929   7.160   8.814
27134WAT     H181644   5.921   7.250   8.769
27134WAT     H281645   5.985   7.100   8.757
27135WAT      O81646   6.967   6.042   0.933
27135WAT     H181647   6.952   5.951   0.897
27135WAT     H281648   6.899   6.105   0.895
27136WAT      O81649   6.457   0.429   8.605
27136WAT     H181650   6.417   0.519   8.587
27136WAT     H281651   6.469   0.416   8.703
27137WAT      O81652   0.792   4.264   5.691
27137WAT     H181653   0.884   4.278   5.652
27137WAT     H281654   0.801   4.231   5.785
27138WAT      O81655   5.113   6.569   0.350
27138WAT     H181656   5.144   6.564   0.445
27138WAT     H281657   5.015   6.588   0.348
27139WAT      O81658   7.791   1.150   6.177
27139WAT     H181659   7.766   1.162   6.081
27139WAT     H281660   7.781   1.237   6.225
27140WAT      O81661   3.070   6.157   6.717
27140WAT     H181662   2.982   6.142   6.761
27140WAT     H281663   3.094   6.254   6.720
27141WAT      O81664   6.644   1.748   9.049
27141WAT     H181665   6.699   1.707   8.977
27141WAT     H281666   6.611   1.676   9.111
27142WAT      O81667   3.167   4.102   2.313
27142WAT     H181668   3.131   4.167   2.246
27142WAT     H281669   3.267   4.107   2.313
27143WAT      O81670   8.475   9.429   0.291
27143WAT     H181671   8.395   9.405   0.345
27143WAT     H281672   8.556   9.429   0.349
27144WAT      O81673   1.665   8.543   9.725
27144WAT     H181674   1.616   8.460   9.754
27144WAT     H281675   1.678   8.603   9.804
27145WAT      O81676   1.558   6.787   2.842
27145WAT     H181677   1.569   6.722   2.767
27145WAT     H281678   1.646   6.804   2.886
27146WAT      O81679   8.519   1.649   4.336
27146WAT     H181680   8.431   1.605   4.353
27146WAT     H281681   8.508   1.718   4.265
27147WAT      O81682   5.288   6.223   1.068
27147WAT     H181683   5.382   6.230   1.100
27147WAT     H281684   5.226   6.229   1.147
27148WAT      O81685   2.332   4.537   5.396
27148WAT     H181686   2.318   4.636   5.403
27148WAT     H281687   2.257   4.497   5.342
27149WAT      O81688   3.553   9.721   5.441
27149WAT     H181689   3.625   9.706   5.374
27149WAT     H281690   3.594   9.750   5.528
27150WAT      O81691   4.814   1.015   4.693
27150WAT     H181692   4.871   0.933   4.683
27150WAT     H281693   4.739   1.011   4.627
27151WAT      O81694   1.341   5.262   2.668
27151WAT     H181695   1.441   5.260   2.670
27151WAT     H281696   1.304   5.234   2.756
27152WAT      O81697   8.905   1.232   2.227
27152WAT     H181698   8.955   1.173   2.164
27152WAT     H281699   8.908   1.327   2.194
27153WAT      O81700   1.147   8.117   6.642
27153WAT     H181701   1.189   8.139   6.731
27153WAT     H281702   1.059   8.163   6.635
27154WAT      O81703   9.843   2.127   1.212
27154WAT     H181704   9.876   2.040   1.249
27154WAT     H281705   9.820   2.188   1.288
27155WAT      O81706   6.729   8.651   0.164
27155WAT     H181707   6.681   8.732   0.196
27155WAT     H281708   6.672   8.570   0.180
27156WAT      O81709   1.789   5.734   8.671
27156WAT     H181710   1.756   5.783   8.753
27156WAT     H281711   1.768   5.637   8.680
27157WAT      O81712   5.931   2.633   4.922
27157WAT     H181713   5.985   2.623   4.838
27157WAT     H281714   5.953   2.721   4.965
27158WAT      O81715   8.874   2.214   3.636
27158WAT     H181716   8.919   2.241   3.551
27158WAT     H281717   8.807   2.142   3.618
27159WAT      O81718   2.325   4.680   0.524
27159WAT     H181719   2.349   4.724   0.438
27159WAT     H281720   2.302   4.584   0.508
27160WAT      O81721   5.813   6.400   9.670
27160WAT     H181722   5.897   6.350   9.649
27160WAT     H281723   5.828   6.498   9.653
27161WAT      O81724   9.286   0.196   0.722
27161WAT     H181725   9.305   0.140   0.803
27161WAT     H281726   9.252   0.286   0.750
27162WAT      O81727   0.755   5.246   3.248
27162WAT     H181728   0.780   5.161   3.202
27162WAT     H281729   0.833   5.279   3.303
27163WAT      O81730   0.406   9.784   1.423
27163WAT     H181731   0.317   9.829   1.413
27163WAT     H281732   0.467   9.815   1.350
27164WAT      O81733   6.447   3.719   6.472
27164WAT     H181734   6.449   3.663   6.388
27164WAT     H281735   6.420   3.661   6.549
27165WAT      O81736   8.252   5.778   5.548
27165WAT     H181737   8.182   5.850   5.543
27165WAT     H281738   8.343   5.819   5.538
27166WAT      O81739   9.368   8.540   7.905
27166WAT     H181740   9.463   8.522   7.929
27166WAT     H281741   9.362   8.625   7.853
27167WAT      O81742   2.373   2.910   0.828
27167WAT     H181743   2.348   2.992   0.777
27167WAT     H281744   2.376   2.832   0.767
27168WAT      O81745   3.974   0.374   7.384
27168WAT     H181746   3.983   0.410   7.477
27168WAT     H281747   3.951   0.447   7.321
27169WAT      O81748   4.421   2.395   1.006
27169WAT     H181749   4.434   2.301   0.975
27169WAT     H281750   4.510   2.439   1.018
27170WAT      O81751   2.680   4.553   5.230
27170WAT     H181752   2.690   4.551   5.130
27170WAT     H281753   2.611   4.485   5.258
27171WAT      O81754   5.898   7.103   8.478
27171WAT     H181755   5.956   7.153   8.415
27171WAT     H281756   5.952   7.032   8.524
27172WAT      O81757   6.279   9.714   4.773
27172WAT     H181758   6.273   9.665   4.686
27172WAT     H281759   6.336   9.662   4.837
27173WAT      O81760   4.774   4.299   7.577
27173WAT     H181761   4.755   4.235   7.503
27173WAT     H281762   4.799   4.248   7.659
27174WAT      O81763   9.017   0.886   7.547
27174WAT     H181764   8.994   0.820   7.476
27174WAT     H281765   8.937   0.942   7.569
27175WAT      O81766   2.516   1.155   2.545
27175WAT     H181767   2.535   1.108   2.632
27175WAT     H281768   2.602   1.169   2.496
27176WAT      O81769   7.915   8.229   4.912
27176WAT     H181770   8.007   8.243   4.951
27176WAT     H281771   7.878   8.142   4.945
27177WAT      O81772   9.117   3.144   7.806
27177WAT     H181773   9.108   3.125   7.709
27177WAT     H281774   9.172   3.227   7.819
27178WAT      O81775   7.202   8.350   6.187
27178WAT     H181776   7.180   8.257   6.216
27178WAT     H281777   7.162   8.415   6.253
27179WAT      O81778   8.356   0.093   7.371
27179WAT     H181779   8.413   0.012   7.377
27179WAT     H281780   8.398   0.159   7.308
27180WAT      O81781   0.687   6.025   7.821
27180WAT     H181782   0.748   6.104   7.816
27180WAT     H281783   0.739   5.941   7.802
27181WAT      O81784   2.031   6.395   4.553
27181WAT     H181785   1.999   6.466   4.616
27181WAT     H281786   2.068   6.437   4.470
27182WAT      O81787   8.669   1.759   8.477
27182WAT     H181788   8.611   1.776   8.557
27182WAT     H281789   8.764   1.748   8.508
27183WAT      O81790   7.278   8.109   2.248
27183WAT     H181791   7.247   8.201   2.273
27183WAT     H281792   7.250   8.044   2.319
27184WAT      O81793   2.073   6.311   2.286
27184WAT     H181794   2.075   6.300   2.187
27184WAT     H281795   2.032   6.399   2.309
27185WAT      O81796   7.851   5.604   5.417
27185WAT     H181797   7.921   5.608   5.489
27185WAT     H281798   7.824   5.509   5.403
27186WAT      O81799   1.476   2.443   3.662
27186WAT     H181800   1.430   2.364   3.702
27186WAT     H281801   1.474   2.436   3.562
27187WAT      O81802   8.463   7.277   6.381
27187WAT     H181803   8.375   7.312   6.347
27187WAT     H281804   8.536   7.340   6.354
27188WAT      O81805   3.544   3.948   4.970
27188WAT     H181806   3.487   3.885   5.023
27188WAT     H281807   3.640   3.920   4.976
27189WAT      O81808   6.529   6.902   4.257
27189WAT     H181809   6.628   6.918   4.260
27189WAT     H281810   6.483   6.987   4.228
27190WAT      O81811   0.132   3.004   1.649
27190WAT     H181812   0.164   3.090   1.687
27190WAT     H281813   0.055   3.021   1.588
27191WAT      O81814   5.248   2.207   8.662
27191WAT     H181815   5.309   2.276   8.623
27191WAT     H281816   5.156   2.221   8.626
27192WAT      O81817   2.187   9.498   2.222
27192WAT     H181818   2.212   9.430   2.153
27192WAT     H281819   2.233   9.584   2.202
27193WAT      O81820   0.116   5.529   0.163
27193WAT     H181821   0.017   5.522   0.177
27193WAT     H281822   0.156   5.586   0.235
27194WAT      O81823   9.195   0.165   5.800
27194WAT     H181824   9.129   0.231   5.767
27194WAT     H281825   9.155   0.111   5.874
27195WAT      O81826   9.689   4.419   3.979
27195WAT     H181827   9.761   4.452   4.041
27195WAT     H281828   9.730   4.369   3.903
27196WAT      O81829   6.497   0.108   5.002
27196WAT     H181830   6.430   0.125   5.075
27196WAT     H281831   6.515   0.010   4.996
27197WAT      O81832   6.253   1.316   3.732
27197WAT     H181833   6.164   1.298   3.775
27197WAT     H281834   6.257   1.412   3.703
27198WAT      O81835   5.132   9.350   3.226
27198WAT     H181836   5.165   9.435   3.185
27198WAT     H281837   5.037   9.363   3.255
27199WAT      O81838   3.222   9.135   4.298
27199WAT     H181839   3.196   9.190   4.218
27199WAT     H281840   3.212   9.189   4.381
27200WAT      O81841   5.560   3.672   4.127
27200WAT     H181842   5.521   3.733   4.196
27200WAT     H281843   5.525   3.697   4.036
27201WAT      O81844   8.527   1.364   3.727
27201WAT     H181845   8.559   1.282   3.773
27201WAT     H281846   8.452   1.340   3.665
27202WAT      O81847   2.204   5.519   7.346
27202WAT     H181848   2.275   5.505   7.415
27202WAT     H281849   2.121   5.554   7.390
27203WAT      O81850   5.189   4.491   2.182
27203WAT     H181851   5.192   4.393   2.162
27203WAT     H281852   5.190   4.543   2.097
27204WAT      O81853   8.230   8.311   2.491
27204WAT     H181854   8.240   8.377   2.566
27204WAT     H281855   8.179   8.231   2.523
27205WAT      O81856   0.033   5.544   5.183
27205WAT     H181857   0.123   5.581   5.163
27205WAT     H281858  -0.033   5.619   5.187
27206WAT      O81859   1.685   4.217   2.664
27206WAT     H181860   1.657   4.287   2.731
27206WAT     H281861   1.785   4.215   2.658
27207WAT      O81862   6.559   1.326   8.773
27207WAT     H181863   6.615   1.244   8.763
27207WAT     H281864   6.521   1.352   8.684
27208WAT      O81865   6.462   7.407   0.256
27208WAT     H181866   6.426   7.442   0.170
27208WAT     H281867   6.402   7.335   0.291
27209WAT      O81868   1.743   8.702   7.390
27209WAT     H181869   1.701   8.623   7.435
27209WAT     H281870   1.676   8.776   7.383
27210WAT      O81871   3.951   0.449   0.934
27210WAT     H181872   3.870   0.486   0.979
27210WAT     H281873   3.954   0.350   0.947
27211WAT      O81874   7.000   0.319   2.674
27211WAT     H181875   7.051   0.348   2.755
27211WAT     H281876   7.046   0.351   2.591
27212WAT      O81877   0.175   9.473   3.043
27212WAT     H181878   0.222   9.439   3.124
27212WAT     H281879   0.138   9.564   3.062
27213WAT      O81880   4.406   8.850   3.615
27213WAT     H181881   4.485   8.857   3.676
27213WAT     H281882   4.406   8.760   3.571
27214WAT      O81883   9.335   5.790   0.545
27214WAT     H181884   9.370   5.697   0.533
27214WAT     H281885   9.238   5.786   0.569
27215WAT      O81886   4.427   9.514   1.424
27215WAT     H181887   4.364   9.506   1.346
27215WAT     H281888   4.379   9.490   1.508
27216WAT      O81889   1.715   3.587   8.714
27216WAT     H181890   1.792   3.547   8.764
27216WAT     H281891   1.725   3.569   8.616
27217WAT      O81892   5.325   2.742   2.398
27217WAT     H181893   5.405   2.793   2.365
27217WAT     H281894   5.266   2.803   2.450
27218WAT      O81895   9.252   2.871   4.347
27218WAT     H181896   9.178   2.920   4.392
27218WAT     H281897   9.338   2.919   4.363
27219WAT      O81898   0.436   1.721   5.934
27219WAT     H181899   0.360   1.658   5.950
27219WAT     H281900   0.456   1.770   6.018
27220WAT      O81901   1.121   9.041   6.446
27220WAT     H181902   1.105   9.035   6.347
27220WAT     H281903   1.212   9.006   6.467
27221WAT      O81904   1.702   0.164   0.471
27221WAT     H181905   1.767   0.190   0.399
27221WAT     H281906   1.676   0.068   0.459
27222WAT      O81907   3.994   1.721   4.737
27222WAT     H181908   4.031   1.699   4.827
27222WAT     H281909   4.056   1.688   4.666
27223WAT      O81910   4.802   9.620   6.976
27223WAT     H181911   4.882   9.568   7.007
27223WAT     H281912   4.781   9.693   7.041
27224WAT      O81913   7.357   3.293   7.229
27224WAT     H181914   7.341   3.385   7.263
27224WAT     H281915   7.271   3.241   7.229
27225WAT      O81916   7.769   5.651   2.536
27225WAT     H181917   7.802   5.745   2.528
27225WAT     H281918   7.820   5.593   2.473
27226WAT      O81919   6.440   5.142   0.709
27226WAT     H181920   6.430   5.174   0.615
27226WAT     H281921   6.351   5.111   0.743
27227WAT      O81922   2.916   0.246   6.891
27227WAT     H181923   2.858   0.199   6.824
27227WAT     H281924   2.858   0.292   6.958
27228WAT      O81925   7.592   3.459   3.579
27228WAT     H181926   7.532   3.496   3.508
27228WAT     H281927   7.575   3.507   3.665
27229WAT      O81928   0.107   5.141   4.389
27229WAT     H181929   0.070   5.221   4.434
27229WAT     H281930   0.182   5.103   4.443
27230WAT      O81931   5.845   3.501   3.911
27230WAT     H181932   5.784   3.453   3.974
27230WAT     H281933   5.857   3.446   3.829
27231WAT      O81934   6.452   7.240   8.621
27231WAT     H181935   6.362   7.203   8.645
27231WAT     H281936   6.446   7.287   8.533
27232WAT      O81937   0.278   0.337   8.796
27232WAT     H181938   0.271   0.362   8.700
27232WAT     H281939   0.228   0.252   8.813
27233WAT      O81940   0.052   3.427   0.290
27233WAT     H181941   0.019   3.375   0.211
27233WAT     H281942   0.024   3.382   0.374
27234WAT      O81943   9.586   5.380   7.225
27234WAT     H181944   9.683   5.374   7.202
27234WAT     H281945   9.569   5.332   7.311
27235WAT      O81946   5.458   7.169   6.043
27235WAT     H181947   5.506   7.221   5.971
27235WAT     H281948   5.524   7.113   6.093
27236WAT      O81949   2.031   7.766   8.984
27236WAT     H181950   2.030   7.856   8.940
27236WAT     H281951   2.117   7.754   9.033
27237WAT      O81952   5.568   0.055   5.151
27237WAT     H181953   5.588   0.055   5.249
27237WAT     H281954   5.602  -0.030   5.110
27238WAT      O81955   0.715   4.770   7.776
27238WAT     H181956   0.798   4.747   7.827
27238WAT     H281957   0.740   4.812   7.689
27239WAT      O81958   8.696   6.071   8.299
27239WAT     H181959   8.760   6.126   8.353
27239WAT     H281960   8.740   6.043   8.214
27240WAT      O81961   5.915   8.702   1.380
27240WAT     H181962   5.927   8.676   1.476
27240WAT     H281963   5.919   8.802   1.372
27241WAT      O81964   1.054   0.539   7.483
27241WAT     H181965   1.071   0.546   7.582
27241WAT     H281966   1.141   0.527   7.436
27242WAT      O81967   0.544   5.475   3.507
27242WAT     H181968   0.497   5.529   3.577
27242WAT     H281969   0.611   5.415   3.551
27243WAT      O81970   1.835   4.218   6.336
27243WAT     H181971   1.857   4.137   6.281
27243WAT     H281972   1.855   4.301   6.283
27244WAT      O81973   9.812   2.566   2.728
27244WAT     H181974   9.720   2.600   2.709
27244WAT     H281975   9.835   2.495   2.662
27245WAT      O81976   1.100   0.154   7.008
27245WAT     H181977   1.075   0.222   7.077
27245WAT     H281978   1.073   0.187   6.917
27246WAT      O81979   2.283   6.173   7.567
27246WAT     H181980   2.202   6.126   7.602
27246WAT     H281981   2.299   6.145   7.472
27247WAT      O81982   3.663   3.902   6.122
27247WAT     H181983   3.613   3.956   6.054
27247WAT     H281984   3.733   3.847   6.076
27248WAT      O81985   8.203   1.509   9.710
27248WAT     H181986   8.157   1.584   9.756
27248WAT     H281987   8.284   1.482   9.762
27249WAT      O81988   3.683   5.385   6.576
27249WAT     H181989   3.645   5.384   6.483
27249WAT     H281990   3.754   5.315   6.584
27250WAT      O81991   9.164   2.484   3.784
27250WAT     H181992   9.179   2.417   3.713
27250WAT     H281993   9.085   2.542   3.761
27251WAT      O81994   2.756   3.834   6.847
27251WAT     H181995   2.729   3.746   6.887
27251WAT     H281996   2.694   3.857   6.772
27252WAT      O81997   9.867   1.035   8.452
27252WAT     H181998   9.802   0.960   8.463
27252WAT     H281999   9.819   1.115   8.416
27253WAT      O82000   5.072   7.846   6.106
27253WAT     H182001   5.102   7.872   6.198
27253WAT     H282002   4.992   7.787   6.112
27254WAT      O82003   4.301   7.032   2.142
27254WAT     H182004   4.366   7.000   2.074
27254WAT     H282005   4.330   7.120   2.179
27255WAT      O82006   0.013   2.126   2.615
27255WAT     H182007  -0.062   2.147   2.553
27255WAT     H282008   0.070   2.054   2.575
27256WAT      O82009   4.271   4.106   0.894
27256WAT     H182010   4.320   4.183   0.853
27256WAT     H282011   4.185   4.091   0.846
27257WAT      O82012   0.528   3.265   7.773
27257WAT     H182013   0.446   3.288   7.721
27257WAT     H282014   0.541   3.331   7.847
27258WAT      O82015   6.889   2.385   6.597
27258WAT     H182016   6.887   2.344   6.688
27258WAT     H282017   6.980   2.419   6.578
27259WAT      O82018   6.580   8.149   3.529
27259WAT     H182019   6.551   8.235   3.570
27259WAT     H282020   6.677   8.136   3.545
27260WAT      O82021   7.805   3.567   0.043
27260WAT     H182022   7.785   3.580  -0.054
27260WAT     H282023   7.873   3.635   0.071
27261WAT      O82024   1.935   7.126   7.982
27261WAT     H182025   1.839   7.141   7.959
27261WAT     H282026   1.990   7.199   7.943
27262WAT      O82027   2.374   8.278   5.986
27262WAT     H182028   2.314   8.247   5.912
27262WAT     H282029   2.418   8.363   5.960
27263WAT      O82030   5.936   9.513   1.692
27263WAT     H182031   6.006   9.582   1.672
27263WAT     H282032   5.979   9.423   1.699
27264WAT      O82033   8.149   9.376   0.552
27264WAT     H182034   8.087   9.448   0.521
27264WAT     H282035   8.198   9.337   0.474
27265WAT      O82036   9.417   5.995   6.967
27265WAT     H182037   9.406   5.939   6.885
27265WAT     H282038   9.383   6.088   6.949
27266WAT      O82039   0.472   2.166   5.906
27266WAT     H182040   0.542   2.237   5.904
27266WAT     H282041   0.426   2.166   5.995
27267WAT      O82042   9.843   3.724   5.469
27267WAT     H182043   9.908   3.798   5.486
27267WAT     H282044   9.754   3.763   5.444
27268WAT      O82045   9.044   6.328   1.508
27268WAT     H182046   9.107   6.251   1.521
27268WAT     H282047   8.975   6.304   1.440
27269WAT      O82048   8.121   8.910   8.670
27269WAT     H182049   8.147   8.997   8.629
27269WAT     H282050   8.045   8.923   8.733
27270WAT      O82051   7.001   2.053   6.273
27270WAT     H182052   7.053   2.138   6.275
27270WAT     H282053   6.947   2.049   6.190
27271WAT      O82054   5.181   8.936   4.720
27271WAT     H182055   5.139   8.949   4.631
27271WAT     H282056   5.189   9.024   4.766
27272WAT      O82057   6.942   6.384   3.201
27272WAT     H182058   6.982   6.339   3.281
27272WAT     H282059   7.015   6.427   3.148
27273WAT      O82060   5.553   2.515   5.190
27273WAT     H182061   5.487   2.588   5.178
27273WAT     H282062   5.506   2.427   5.198
27274WAT      O82063   1.521   8.901   5.496
27274WAT     H182064   1.477   8.975   5.446
27274WAT     H282065   1.550   8.934   5.586
27275WAT      O82066   8.385   6.897   9.779
27275WAT     H182067   8.467   6.922   9.726
27275WAT     H282068   8.382   6.953   9.863
27276WAT      O82069   3.660   0.829   1.179
27276WAT     H182070   3.671   0.733   1.153
27276WAT     H282071   3.576   0.839   1.232
27277WAT      O82072   2.939   5.034   7.704
27277WAT     H182073   2.981   4.982   7.630
27277WAT     H282074   2.902   4.971   7.773
27278WAT      O82075   7.448   6.614   6.419
27278WAT     H182076   7.540   6.650   6.405
27278WAT     H282077   7.396   6.678   6.475
27279WAT      O82078   2.677   4.553   0.866
27279WAT     H182079   2.677   4.455   0.886
27279WAT     H282080   2.597   4.596   0.906
27280WAT      O82081   7.716   6.560   5.386
27280WAT     H182082   7.658   6.640   5.374
27280WAT     H282083   7.759   6.537   5.299
27281WAT      O82084   2.089   0.803   6.094
27281WAT     H182085   2.112   0.708   6.116
27281WAT     H282086   2.163   0.844   6.041
27282WAT      O82087   8.945   5.956   9.866
27282WAT     H182088   8.993   6.038   9.835
27282WAT     H282089   8.908   5.907   9.788
27283WAT      O82090   3.896   5.978   5.829
27283WAT     H182091   3.920   5.919   5.752
27283WAT     H282092   3.975   6.036   5.852
27284WAT      O82093   7.274   4.572   7.932
27284WAT     H182094   7.275   4.648   7.867
27284WAT     H282095   7.197   4.584   7.996
27285WAT      O82096   4.756   8.720   4.412
27285WAT     H182097   4.850   8.690   4.423
27285WAT     H282098   4.749   8.777   4.329
27286WAT      O82099   0.432   5.792   9.428
27286WAT     H182100   0.438   5.707   9.375
27286WAT     H282101   0.342   5.834   9.414
27287WAT      O82102   5.886   8.663   5.935
27287WAT     H182103   5.802   8.678   5.883
27287WAT     H282104   5.911   8.566   5.931
27288WAT      O82105   6.074   1.886   4.263
27288WAT     H182106   6.151   1.833   4.226
27288WAT     H282107   5.990   1.832   4.254
27289WAT      O82108   1.817   0.766   0.587
27289WAT     H182109   1.765   0.783   0.504
27289WAT     H282110   1.903   0.720   0.564
27290WAT      O82111   6.456   5.920   1.436
27290WAT     H182112   6.534   5.882   1.485
27290WAT     H282113   6.481   5.938   1.341
27291WAT      O82114   2.227   7.485   7.079
27291WAT     H182115   2.263   7.471   6.987
27291WAT     H282116   2.133   7.518   7.073
27292WAT      O82117   1.544   0.652   8.204
27292WAT     H182118   1.456   0.672   8.247
27292WAT     H282119   1.559   0.715   8.128
27293WAT      O82120   1.291   7.288   7.031
27293WAT     H182121   1.359   7.219   7.056
27293WAT     H282122   1.199   7.253   7.047
27294WAT      O82123   7.531   1.314   7.836
27294WAT     H182124   7.609   1.311   7.897
27294WAT     H282125   7.526   1.403   7.791
27295WAT      O82126   1.050   7.819   8.007
27295WAT     H182127   1.088   7.889   8.067
27295WAT     H282128   0.950   7.817   8.017
27296WAT      O82129   6.567   2.705   2.448
27296WAT     H182130   6.560   2.642   2.371
27296WAT     H282131   6.658   2.747   2.447
27297WAT      O82132   8.259   2.289   7.054
27297WAT     H182133   8.165   2.258   7.036
27297WAT     H282134   8.321   2.240   6.992
27298WAT      O82135   3.203   8.068   9.392
27298WAT     H182136   3.302   8.055   9.398
27298WAT     H282137   3.157   7.990   9.436
27299WAT      O82138   7.379   2.540   7.786
27299WAT     H182139   7.326   2.460   7.761
27299WAT     H282140   7.476   2.516   7.790
27300WAT      O82141   9.477   5.118   4.198
27300WAT     H182142   9.433   5.166   4.274
27300WAT     H282143   9.454   5.021   4.202
27301WAT      O82144   5.838   6.800   2.498
27301WAT     H182145   5.790   6.717   2.468
27301WAT     H282146   5.929   6.802   2.458
27302WAT      O82147   4.586   0.048   1.403
27302WAT     H182148   4.624   0.138   1.384
27302WAT     H282149   4.487   0.054   1.409
27303WAT      O82150   0.612   2.188   8.853
27303WAT     H182151   0.614   2.205   8.951
27303WAT     H282152   0.700   2.151   8.824
27304WAT      O82153   4.963   5.666   1.157
27304WAT     H182154   5.041   5.720   1.190
27304WAT     H282155   4.969   5.657   1.058
27305WAT      O82156   6.182   2.789   9.336
27305WAT     H182157   6.219   2.750   9.252
27305WAT     H282158   6.253   2.791   9.406
27306WAT      O82159   3.929   5.923   3.681
27306WAT     H182160   3.973   5.910   3.592
27306WAT     H282161   3.998   5.919   3.753
27307WAT      O82162   5.276   7.914   2.700
27307WAT     H182163   5.268   7.978   2.625
27307WAT     H282164   5.199   7.925   2.763
27308WAT      O82165   3.823   1.982   7.569
27308WAT     H182166   3.908   1.949   7.610
27308WAT     H282167   3.785   2.055   7.626
27309WAT      O82168   8.083   4.946   1.266
27309WAT     H182169   8.013   5.005   1.226
27309WAT     H282170   8.086   4.960   1.365
27310WAT      O82171   2.950   3.633   3.750
27310WAT     H182172   3.027   3.691   3.723
27310WAT     H282173   2.946   3.627   3.850
27311WAT      O82174   6.525   1.188   9.583
27311WAT     H182175   6.472   1.158   9.662
27311WAT     H282176   6.464   1.234   9.519
27312WAT      O82177   6.657   4.502   4.737
27312WAT     H182178   6.559   4.524   4.727
27312WAT     H282179   6.702   4.512   4.649
27313WAT      O82180   4.768   1.265   6.390
27313WAT     H182181   4.677   1.306   6.399
27313WAT     H282182   4.805   1.245   6.481
27314WAT      O82183   3.611   9.551   1.841
27314WAT     H182184   3.688   9.614   1.845
27314WAT     H282185   3.527   9.600   1.863
27315WAT      O82186   4.611   5.987   8.927
27315WAT     H182187   4.658   5.904   8.896
27315WAT     H282188   4.516   5.964   8.950
27316WAT      O82189   2.343   3.407   1.802
27316WAT     H182190   2.272   3.411   1.872
27316WAT     H282191   2.319   3.338   1.734
27317WAT      O82192   5.120   2.756   2.943
27317WAT     H182193   5.067   2.704   2.876
27317WAT     H282194   5.204   2.706   2.965
27318WAT      O82195   5.694   6.233   3.923
27318WAT     H182196   5.602   6.222   3.886
27318WAT     H282197   5.730   6.322   3.897
27319WAT      O82198   7.143   1.518   4.589
27319WAT     H182199   7.126   1.428   4.548
27319WAT     H282200   7.056   1.567   4.601
27320WAT      O82201   6.341   7.624   1.802
27320WAT     H182202   6.331   7.655   1.896
27320WAT     H282203   6.251   7.600   1.765
27321WAT      O82204   8.456   2.995   9.043
27321WAT     H182205   8.512   2.975   9.123
27321WAT     H282206   8.492   2.946   8.963
27322WAT      O82207   4.715   0.648   1.744
27322WAT     H182208   4.638   0.589   1.719
27322WAT     H282209   4.723   0.651   1.844
27323WAT      O82210   8.381   7.236   5.554
27323WAT     H182211   8.466   7.287   5.540
27323WAT     H282212   8.359   7.185   5.470
27324WAT      O82213   6.221   0.546   8.832
27324WAT     H182214   6.151   0.474   8.826
27324WAT     H282215   6.312   0.504   8.826
27325WAT      O82216   8.985   2.481   8.418
27325WAT     H182217   8.961   2.388   8.390
27325WAT     H282218   9.084   2.494   8.405
27326WAT      O82219   6.282   3.273   8.038
27326WAT     H182220   6.282   3.312   8.130
27326WAT     H282221   6.246   3.179   8.041
27327WAT      O82222   6.065   6.087   3.466
27327WAT     H182223   6.135   6.016   3.473
27327WAT     H282224   6.048   6.109   3.370
27328WAT      O82225   6.091   0.787   3.301
27328WAT     H182226   6.067   0.693   3.278
27328WAT     H282227   6.155   0.823   3.233
27329WAT      O82228   6.363   2.448   7.800
27329WAT     H182229   6.320   2.416   7.885
27329WAT     H282230   6.370   2.372   7.736
27330WAT      O82231   4.722   2.869   4.026
27330WAT     H182232   4.672   2.840   3.945
27330WAT     H282233   4.820   2.853   4.012
27331WAT      O82234   0.397   9.077   8.077
27331WAT     H182235   0.432   9.092   8.169
27331WAT     H282236   0.297   9.090   8.077
27332WAT      O82237   1.574   7.558   0.374
27332WAT     H182238   1.476   7.571   0.388
27332WAT     H282239   1.606   7.619   0.302
27333WAT      O82240   8.487   7.875   1.764
27333WAT     H182241   8.585   7.896   1.765
27333WAT     H282242   8.434   7.959   1.763
27334WAT      O82243   4.096   7.993   0.007
27334WAT     H182244   4.187   8.015  -0.028
27334WAT     H282245   4.047   7.936  -0.059
27335WAT      O82246   4.925   7.895   0.905
27335WAT     H182247   5.019   7.863   0.894
27335WAT     H282248   4.872   7.870   0.824
27336WAT      O82249   2.682   5.167   9.207
27336WAT     H182250   2.738   5.132   9.282
27336WAT     H282251   2.634   5.249   9.237
27337WAT      O82252   6.733   7.771   5.941
27337WAT     H182253   6.665   7.698   5.950
27337WAT     H282254   6.755   7.807   6.031
27338WAT      O82255   7.229   8.140   1.566
27338WAT     H182256   7.264   8.088   1.488
27338WAT     H282257   7.264   8.234   1.560
27339WAT      O82258   5.114   9.346   8.328
27339WAT     H182259   5.166   9.272   8.370
27339WAT     H282260   5.166   9.382   8.250
27340WAT      O82261   5.604   4.909   3.140
27340WAT     H182262   5.524   4.969   3.139
27340WAT     H282263   5.675   4.950   3.197
27341WAT      O82264   1.182   6.456   3.362
27341WAT     H182265   1.250   6.495   3.300
27341WAT     H282266   1.145   6.528   3.420
27342WAT      O82267   4.074   1.023   8.904
27342WAT     H182268   4.074   0.935   8.950
27342WAT     H282269   3.980   1.047   8.878
27343WAT      O82270   7.816   8.302   1.593
27343WAT     H182271   7.817   8.229   1.525
27343WAT     H282272   7.895   8.292   1.654
27344WAT      O82273   9.551   6.033   4.138
27344WAT     H182274   9.552   6.010   4.235
27344WAT     H282275   9.643   6.024   4.100
27345WAT      O82276   4.928   3.761   8.457
27345WAT     H182277   4.879   3.692   8.402
27345WAT     H282278   5.024   3.762   8.430
27346WAT      O82279   5.272   4.028   3.436
27346WAT     H182280   5.319   4.068   3.515
27346WAT     H282281   5.334   3.965   3.389
27347WAT      O82282   3.741   8.498   0.345
27347WAT     H182283   3.730   8.407   0.306
27347WAT     H282284   3.800   8.553   0.286
27348WAT      O82285   1.043   0.339   7.236
27348WAT     H182286   1.121   0.400   7.244
27348WAT     H282287   0.960   0.393   7.219
27349WAT      O82288   3.648   9.528   3.604
27349WAT     H182289   3.701   9.469   3.666
27349WAT     H282290   3.603   9.600   3.656
27350WAT      O82291   3.935   8.184   3.703
27350WAT     H182292   3.923   8.199   3.605
27350WAT     H282293   3.979   8.095   3.718
27351WAT      O82294   0.529   6.890   0.940
27351WAT     H182295   0.464   6.889   0.864
27351WAT     H282296   0.503   6.819   1.006
27352WAT      O82297   6.811   2.838   9.287
27352WAT     H182298   6.749   2.764   9.312
27352WAT     H282299   6.853   2.876   9.369
27353WAT      O82300   5.390   8.067   8.824
27353WAT     H182301   5.433   8.139   8.877
27353WAT     H282302   5.391   7.982   8.876
27354WAT      O82303   3.602   6.822   3.920
27354WAT     H182304   3.525   6.865   3.875
27354WAT     H282305   3.589   6.723   3.921
27355WAT      O82306   6.403   1.389   6.386
27355WAT     H182307   6.480   1.430   6.337
27355WAT     H282308   6.403   1.290   6.370
27356WAT      O82309   2.501   2.607   5.291
27356WAT     H182310   2.486   2.511   5.267
27356WAT     H282311   2.420   2.661   5.267
27357WAT      O82312   6.461   1.592   4.403
27357WAT     H182313   6.386   1.579   4.338
27357WAT     H282314   6.538   1.533   4.378
27358WAT      O82315   0.821   4.536   0.769
27358WAT     H182316   0.803   4.576   0.679
27358WAT     H282317   0.825   4.437   0.761
27359WAT      O82318   6.357   7.581   0.589
27359WAT     H182319   6.274   7.536   0.557
27359WAT     H282320   6.356   7.677   0.559
27360WAT      O82321   2.576   3.697   7.147
27360WAT     H182322   2.511   3.684   7.221
27360WAT     H282323   2.660   3.739   7.182
27361WAT      O82324   2.702   8.616   0.901
27361WAT     H182325   2.722   8.621   0.999
27361WAT     H282326   2.644   8.693   0.875
27362WAT      O82327   7.139   8.890   7.927
27362WAT     H182328   7.062   8.892   7.991
27362WAT     H282329   7.214   8.837   7.967
27363WAT      O82330   7.790   0.802   1.318
27363WAT     H182331   7.801   0.724   1.381
27363WAT     H282332   7.880   0.834   1.289
27364WAT      O82333   2.767   2.377   8.847
27364WAT     H182334   2.748   2.324   8.930
27364WAT     H282335   2.852   2.427   8.857
27365WAT      O82336   1.373   2.937   8.215
27365WAT     H182337   1.473   2.944   8.211
27365WAT     H282338   1.333   2.972   8.130
27366WAT      O82339   7.981   7.253   9.663
27366WAT     H182340   7.904   7.193   9.641
27366WAT     H282341   8.060   7.227   9.608
27367WAT      O82342   0.389   2.568   0.523
27367WAT     H182343   0.435   2.486   0.558
27367WAT     H282344   0.313   2.592   0.582
27368WAT      O82345   8.260   7.937   6.786
27368WAT     H182346   8.280   7.844   6.756
27368WAT     H282347   8.312   8.002   6.729
27369WAT      O82348   6.926   0.700   2.402
27369WAT     H182349   6.889   0.665   2.487
27369WAT     H282350   7.020   0.731   2.416
27370WAT      O82351   4.751   0.350   5.133
27370WAT     H182352   4.666   0.304   5.104
27370WAT     H282353   4.820   0.340   5.061
27371WAT      O82354   5.931   0.296   1.154
27371WAT     H182355   5.834   0.275   1.164
27371WAT     H282356   5.960   0.356   1.229
27372WAT      O82357   0.383   3.605   2.511
27372WAT     H182358   0.420   3.666   2.581
27372WAT     H282359   0.457   3.566   2.456
27373WAT      O82360   9.845   1.650   3.246
27373WAT     H182361   9.762   1.705   3.250
27373WAT     H282362   9.825   1.564   3.199
27374WAT      O82363   1.904   2.991   4.074
27374WAT     H182364   1.929   3.051   4.149
27374WAT     H282365   1.896   3.044   3.990
27375WAT      O82366   0.367   1.281   7.158
27375WAT     H182367   0.317   1.236   7.085
27375WAT     H282368   0.447   1.227   7.184
27376WAT      O82369   8.850   0.436   7.790
27376WAT     H182370   8.827   0.527   7.756
27376WAT     H282371   8.945   0.436   7.822
27377WAT      O82372   7.345   9.382   9.306
27377WAT     H182373   7.297   9.316   9.363
27377WAT     H282374   7.347   9.350   9.211
27378WAT      O82375   6.165   4.498   5.881
27378WAT     H182376   6.092   4.479   5.946
27378WAT     H282377   6.243   4.539   5.928
27379WAT      O82378   5.813   9.073   6.025
27379WAT     H182379   5.909   9.101   6.032
27379WAT     H282380   5.755   9.154   6.021
27380WAT      O82381   3.845   1.106   8.804
27380WAT     H182382   3.818   1.147   8.717
27380WAT     H282383   3.785   1.140   8.877
27381WAT      O82384   9.349   6.469   0.097
27381WAT     H182385   9.442   6.431   0.096
27381WAT     H282386   9.303   6.441   0.181
27382WAT      O82387   7.600   5.365   7.948
27382WAT     H182388   7.607   5.461   7.922
27382WAT     H282389   7.679   5.339   8.003
27383WAT      O82390   3.416   0.774   4.344
27383WAT     H182391   3.347   0.820   4.400
27383WAT     H282392   3.430   0.681   4.379
27384WAT      O82393   4.589   4.050   8.147
27384WAT     H182394   4.617   3.955   8.160
27384WAT     H282395   4.589   4.097   8.235
27385WAT      O82396   4.495   5.274   0.220
27385WAT     H182397   4.515   5.218   0.300
27385WAT     H282398   4.575   5.277   0.160
27386WAT      O82399   0.582   0.702   3.681
27386WAT     H182400   0.681   0.709   3.691
27386WAT     H282401   0.559   0.689   3.585
27387WAT      O82402   2.336   0.185   1.931
27387WAT     H182403   2.380   0.097   1.917
27387WAT     H282404   2.406   0.257   1.938
27388WAT      O82405   5.247   6.834   6.309
27388WAT     H182406   5.163   6.886   6.327
27388WAT     H282407   5.249   6.805   6.213
27389WAT      O82408   8.035   2.548   8.671
27389WAT     H182409   8.116   2.531   8.726
27389WAT     H282410   8.021   2.473   8.607
27390WAT      O82411   4.963   0.383   1.070
27390WAT     H182412   4.981   0.333   1.155
27390WAT     H282413   5.038   0.448   1.053
27391WAT      O82414   1.600   1.331   1.970
27391WAT     H182415   1.677   1.388   2.000
27391WAT     H282416   1.632   1.266   1.901
27392WAT      O82417   6.902   5.511   9.443
27392WAT     H182418   6.817   5.502   9.495
27392WAT     H282419   6.950   5.594   9.470
27393WAT      O82420   3.292   0.575   1.375
27393WAT     H182421   3.355   0.616   1.441
27393WAT     H282422   3.340   0.504   1.323
27394WAT      O82423   1.705   4.998   7.313
27394WAT     H182424   1.633   5.058   7.349
27394WAT     H282425   1.719   5.017   7.216
27395WAT      O82426   7.985   8.513   7.776
27395WAT     H182427   7.901   8.564   7.791
27395WAT     H282428   7.971   8.447   7.702
27396WAT      O82429   1.319   2.095   2.837
27396WAT     H182430   1.381   2.169   2.864
27396WAT     H282431   1.252   2.080   2.909
27397WAT      O82432   3.834   0.109   8.112
27397WAT     H182433   3.852   0.207   8.114
27397WAT     H282434   3.757   0.087   8.172
27398WAT      O82435   6.506   5.824   5.832
27398WAT     H182436   6.406   5.830   5.823
27398WAT     H282437   6.539   5.746   5.778
27399WAT      O82438   0.271   1.899   9.134
27399WAT     H182439   0.276   1.983   9.080
27399WAT     H282440   0.207   1.836   9.091
27400WAT      O82441   4.583   5.149   5.224
27400WAT     H182442   4.529   5.123   5.304
27400WAT     H282443   4.671   5.102   5.225
27401WAT      O82444   9.244   7.864   7.889
27401WAT     H182445   9.217   7.816   7.973
27401WAT     H282446   9.341   7.888   7.895
27402WAT      O82447   9.694   9.289   3.110
27402WAT     H182448   9.723   9.363   3.171
27402WAT     H282449   9.595   9.294   3.096
27403WAT      O82450   5.499   6.644   2.414
27403WAT     H182451   5.413   6.659   2.366
27403WAT     H282452   5.520   6.725   2.470
27404WAT      O82453   8.603   5.484   4.154
27404WAT     H182454   8.571   5.550   4.221
27404WAT     H282455   8.673   5.426   4.195
27405WAT      O82456   6.424   4.512   9.351
27405WAT     H182457   6.507   4.549   9.310
27405WAT     H282458   6.393   4.432   9.299
27406WAT      O82459   1.985   8.537   9.490
27406WAT     H182460   1.957   8.461   9.548
27406WAT     H282461   1.960   8.624   9.533
27407WAT      O82462   6.806   1.292   4.616
27407WAT     H182463   6.759   1.320   4.699
27407WAT     H282464   6.760   1.332   4.536
27408WAT      O82465   9.561   1.376   4.161
27408WAT     H182466   9.492   1.438   4.123
27408WAT     H282467   9.649   1.423   4.167
27409WAT      O82468   4.750   5.454   0.738
27409WAT     H182469   4.770   5.430   0.643
27409WAT     H282470   4.830   5.498   0.779
27410WAT      O82471   2.330   8.626   7.790
27410WAT     H182472   2.321   8.721   7.819
27410WAT     H282473   2.427   8.601   7.789
27411WAT      O82474   7.780   8.276   1.236
27411WAT     H182475   7.805   8.197   1.293
27411WAT     H282476   7.853   8.293   1.170
27412WAT      O82477   1.888   6.617   0.411
27412WAT     H182478   1.902   6.615   0.510
27412WAT     H282479   1.966   6.661   0.368
27413WAT      O82480   4.684   5.490   5.472
27413WAT     H182481   4.767   5.531   5.435
27413WAT     H282482   4.696   5.391   5.482
27414WAT      O82483   2.050   4.974   3.523
27414WAT     H182484   2.071   5.013   3.613
27414WAT     H282485   2.048   5.048   3.455
27415WAT      O82486   9.749   1.193   2.845
27415WAT     H182487   9.748   1.193   2.745
27415WAT     H282488   9.795   1.275   2.877
27416WAT      O82489   1.336   7.337   9.189
27416WAT     H182490   1.303   7.418   9.140
27416WAT     H282491   1.353   7.264   9.123
27417WAT      O82492   7.754   9.099   5.501
27417WAT     H182493   7.713   9.174   5.553
27417WAT     H282494   7.689   9.066   5.432
27418WAT      O82495   9.562   8.563   3.864
27418WAT     H182496   9.534   8.612   3.783
27418WAT     H282497   9.482   8.535   3.917
27419WAT      O82498   1.368   7.624   5.220
27419WAT     H182499   1.321   7.669   5.145
27419WAT     H282500   1.467   7.636   5.208
27420WAT      O82501   5.541   2.894   6.462
27420WAT     H182502   5.614   2.962   6.456
27420WAT     H282503   5.553   2.838   6.545
27421WAT      O82504   4.550   1.728   3.283
27421WAT     H182505   4.593   1.701   3.369
27421WAT     H282506   4.452   1.706   3.286
27422WAT      O82507   9.541   4.030   5.400
27422WAT     H182508   9.632   4.032   5.358
27422WAT     H282509   9.540   4.091   5.479
27423WAT      O82510   5.171   3.978   2.210
27423WAT     H182511   5.187   3.999   2.114
27423WAT     H282512   5.155   3.879   2.220
27424WAT      O82513   8.940   0.555   6.273
27424WAT     H182514   8.872   0.568   6.201
27424WAT     H282515   9.029   0.585   6.241
27425WAT      O82516   9.392   4.168   7.549
27425WAT     H182517   9.341   4.254   7.540
27425WAT     H282518   9.382   4.114   7.466
27426WAT      O82519   1.181   9.682   6.742
27426WAT     H182520   1.114   9.694   6.815
27426WAT     H282521   1.200   9.771   6.700
27427WAT      O82522   8.169   8.353   4.718
27427WAT     H182523   8.171   8.307   4.807
27427WAT     H282524   8.222   8.437   4.723
27428WAT      O82525   1.925   7.234   6.733
27428WAT     H182526   1.988   7.306   6.705
27428WAT     H282527   1.910   7.238   6.832
27429WAT      O82528   1.583   2.299   5.367
27429WAT     H182529   1.526   2.372   5.328
27429WAT     H282530   1.525   2.234   5.416
27430WAT      O82531   0.689   6.402   5.966
27430WAT     H182532   0.626   6.420   5.890
27430WAT     H282533   0.687   6.305   5.989
27431WAT      O82534   6.401   1.380   7.556
27431WAT     H182535   6.391   1.399   7.458
27431WAT     H282536   6.362   1.456   7.608
27432WAT      O82537   8.586   0.363   5.484
27432WAT     H182538   8.596   0.303   5.563
27432WAT     H282539   8.615   0.315   5.401
27433WAT      O82540   5.452   9.166   3.080
27433WAT     H182541   5.402   9.084   3.108
27433WAT     H282542   5.479   9.217   3.162
27434WAT      O82543   6.311   5.723   1.806
27434WAT     H182544   6.258   5.654   1.855
27434WAT     H282545   6.324   5.693   1.711
27435WAT      O82546   6.483   1.067   1.609
27435WAT     H182547   6.513   1.157   1.638
27435WAT     H282548   6.385   1.056   1.627
27436WAT      O82549   1.710   8.937   2.481
27436WAT     H182550   1.732   9.002   2.408
27436WAT     H282551   1.793   8.911   2.529
27437WAT      O82552   8.647   2.620   8.781
27437WAT     H182553   8.658   2.521   8.766
27437WAT     H282554   8.736   2.664   8.776
27438WAT      O82555   1.788   7.946   1.430
27438WAT     H182556   1.763   7.849   1.430
27438WAT     H282557   1.707   8.002   1.414
27439WAT      O82558   4.985   1.744   7.144
27439WAT     H182559   4.898   1.703   7.172
27439WAT     H282560   4.977   1.844   7.147
27440WAT      O82561   5.416   6.001   6.172
27440WAT     H182562   5.497   6.034   6.221
27440WAT     H282563   5.334   6.022   6.225
27441WAT      O82564   5.961   2.004   7.652
27441WAT     H182565   5.916   1.935   7.710
27441WAT     H282566   5.903   2.085   7.646
27442WAT      O82567   7.924   5.244   4.116
27442WAT     H182568   7.932   5.326   4.173
27442WAT     H282569   8.008   5.189   4.124
27443WAT      O82570   5.418   2.336   6.270
27443WAT     H182571   5.513   2.353   6.243
27443WAT     H282572   5.359   2.336   6.189
27444WAT      O82573   4.526   8.124   3.881
27444WAT     H182574   4.510   8.172   3.967
27444WAT     H282575   4.591   8.049   3.896
27445WAT      O82576   1.855   0.715   1.819
27445WAT     H182577   1.872   0.618   1.802
27445WAT     H282578   1.942   0.764   1.819
27446WAT      O82579   1.991   7.943   3.959
27446WAT     H182580   2.005   7.995   4.043
27446WAT     H282581   1.919   7.986   3.905
27447WAT      O82582   0.743   4.976   4.865
27447WAT     H182583   0.798   4.984   4.948
27447WAT     H282584   0.765   4.890   4.819
27448WAT      O82585   8.547   5.029   1.307
27448WAT     H182586   8.513   5.030   1.213
27448WAT     H282587   8.646   5.016   1.308
27449WAT      O82588   7.419   8.927   3.238
27449WAT     H182589   7.501   8.960   3.285
27449WAT     H282590   7.361   9.004   3.214
27450WAT      O82591   8.062   0.473   1.469
27450WAT     H182592   8.013   0.450   1.386
27450WAT     H282593   8.003   0.525   1.530
27451WAT      O82594   1.024   2.994   6.408
27451WAT     H182595   0.955   3.029   6.345
27451WAT     H282596   1.113   3.031   6.382
27452WAT      O82597   8.877   1.981   9.582
27452WAT     H182598   8.931   1.944   9.506
27452WAT     H282599   8.795   2.025   9.545
27453WAT      O82600   8.052   1.860   1.340
27453WAT     H182601   8.077   1.845   1.244
27453WAT     H282602   8.032   1.957   1.354
27454WAT      O82603   7.517   2.741   6.012
27454WAT     H182604   7.453   2.709   6.082
27454WAT     H282605   7.552   2.830   6.038
27455WAT      O82606   6.714   9.537   7.029
27455WAT     H182607   6.695   9.607   7.097
27455WAT     H282608   6.749   9.580   6.945
27456WAT      O82609   2.094   2.224   1.404
27456WAT     H182610   2.104   2.149   1.469
27456WAT     H282611   2.000   2.256   1.404
27457WAT      O82612   6.671   6.571   2.433
27457WAT     H182613   6.713   6.618   2.355
27457WAT     H282614   6.572   6.577   2.426
27458WAT      O82615   2.681   1.353   5.078
27458WAT     H182616   2.754   1.344   5.010
27458WAT     H282617   2.699   1.431   5.137
27459WAT      O82618   5.960   7.150   5.458
27459WAT     H182619   5.995   7.225   5.401
27459WAT     H282620   5.963   7.176   5.554
27460WAT      O82621   0.737   7.945   1.212
27460WAT     H182622   0.675   7.877   1.252
27460WAT     H282623   0.703   7.971   1.122
27461WAT      O82624   3.120   1.223   6.937
27461WAT     H182625   3.200   1.253   6.884
27461WAT     H282626   3.139   1.235   7.034
27462WAT      O82627   4.146   0.482   3.975
27462WAT     H182628   4.183   0.500   4.066
27462WAT     H282629   4.081   0.406   3.980
27463WAT      O82630   2.582   9.414   1.498
27463WAT     H182631   2.563   9.511   1.514
27463WAT     H282632   2.641   9.379   1.571
27464WAT      O82633   8.307   1.200   0.896
27464WAT     H182634   8.319   1.299   0.890
27464WAT     H282635   8.230   1.172   0.837
27465WAT      O82636   3.871   1.435   2.620
27465WAT     H182637   3.780   1.397   2.602
27465WAT     H282638   3.863   1.512   2.682
27466WAT      O82639   4.665   6.860   0.801
27466WAT     H182640   4.729   6.796   0.843
27466WAT     H282641   4.572   6.822   0.805
27467WAT      O82642   9.185   0.003   6.209
27467WAT     H182643   9.182  -0.041   6.299
27467WAT     H282644   9.131   0.087   6.210
27468WAT      O82645   4.722   0.998   5.703
27468WAT     H182646   4.730   1.046   5.790
27468WAT     H282647   4.790   1.034   5.639
27469WAT      O82648   0.651   7.973   3.656
27469WAT     H182649   0.629   8.063   3.695
27469WAT     H282650   0.738   7.979   3.606
27470WAT      O82651   4.763   8.934   1.391
27470WAT     H182652   4.666   8.943   1.416
27470WAT     H282653   4.819   8.968   1.467
27471WAT      O82654   9.746   7.600   5.859
27471WAT     H182655   9.839   7.581   5.889
27471WAT     H282656   9.724   7.696   5.876
27472WAT      O82657   3.711   3.221   5.469
27472WAT     H182658   3.754   3.139   5.507
27472WAT     H282659   3.638   3.252   5.529
27473WAT      O82660   3.738   9.686   6.177
27473WAT     H182661   3.831   9.717   6.163
27473WAT     H282662   3.738   9.587   6.196
27474WAT      O82663   2.937   2.749   9.833
27474WAT     H182664   3.001   2.706   9.896
27474WAT     H282665   2.911   2.839   9.869
27475WAT      O82666   1.196   2.233   3.182
27475WAT     H182667   1.123   2.261   3.245
27475WAT     H282668   1.167   2.151   3.133
27476WAT      O82669   5.885   5.046   8.162
27476WAT     H182670   5.846   5.108   8.230
27476WAT     H282671   5.818   4.976   8.138
27477WAT      O82672   8.651   5.476   1.126
27477WAT     H182673   8.555   5.458   1.147
27477WAT     H282674   8.705   5.394   1.145
27478WAT      O82675   7.984   6.504   1.643
27478WAT     H182676   7.960   6.525   1.738
27478WAT     H282677   8.078   6.472   1.638
27479WAT      O82678   0.497   7.327   3.346
27479WAT     H182679   0.524   7.395   3.415
27479WAT     H282680   0.440   7.371   3.277
27480WAT      O82681   5.667   7.047   2.240
27480WAT     H182682   5.711   7.007   2.160
27480WAT     H282683   5.737   7.072   2.307
27481WAT      O82684   4.852   9.555   6.706
27481WAT     H182685   4.796   9.472   6.710
27481WAT     H282686   4.836   9.610   6.788
27482WAT      O82687   1.352   4.117   3.438
27482WAT     H182688   1.333   4.033   3.388
27482WAT     H282689   1.401   4.096   3.523
27483WAT      O82690   5.494   8.730   5.461
27483WAT     H182691   5.552   8.789   5.405
27483WAT     H282692   5.480   8.643   5.415
27484WAT      O82693   1.554   7.102   5.744
27484WAT     H182694   1.489   7.177   5.732
27484WAT     H282695   1.629   7.133   5.802
27485WAT      O82696   8.294   9.740   2.417
27485WAT     H182697   8.350   9.823   2.409
27485WAT     H282698   8.216   9.747   2.356
27486WAT      O82699   2.645   5.091   5.518
27486WAT     H182700   2.650   5.058   5.612
27486WAT     H282701   2.668   5.188   5.515
27487WAT      O82702   6.289   6.952   0.702
27487WAT     H182703   6.297   7.030   0.765
27487WAT     H282704   6.358   6.960   0.630
27488WAT      O82705   8.246   1.837   5.741
27488WAT     H182706   8.262   1.738   5.736
27488WAT     H282707   8.323   1.881   5.787
27489WAT      O82708   3.001   3.419   5.696
27489WAT     H182709   2.968   3.326   5.714
27489WAT     H282710   2.961   3.453   5.611
27490WAT      O82711   4.638   4.753   8.046
27490WAT     H182712   4.672   4.790   8.132
27490WAT     H282713   4.692   4.673   8.020
27491WAT      O82714   8.869   9.703   8.384
27491WAT     H182715   8.848   9.795   8.352
27491WAT     H282716   8.968   9.694   8.397
27492WAT      O82717   8.214   5.295   6.704
27492WAT     H182718   8.177   5.266   6.792
27492WAT     H282719   8.300   5.246   6.687
27493WAT      O82720   3.256   5.968   4.771
27493WAT     H182721   3.302   6.052   4.799
27493WAT     H282722   3.188   5.943   4.840
27494WAT      O82723   6.650   6.099   4.432
27494WAT     H182724   6.649   6.000   4.426
27494WAT     H282725   6.717   6.136   4.368
27495WAT      O82726   7.681   4.008   6.422
27495WAT     H182727   7.750   3.994   6.350
27495WAT     H282728   7.625   4.088   6.400
27496WAT      O82729   5.716   8.116   8.266
27496WAT     H182730   5.639   8.178   8.262
27496WAT     H282731   5.775   8.130   8.186
27497WAT      O82732   2.560   3.495   1.534
27497WAT     H182733   2.579   3.593   1.545
27497WAT     H282734   2.626   3.443   1.588
27498WAT      O82735   0.274   1.043   4.873
27498WAT     H182736   0.200   1.095   4.915
27498WAT     H282737   0.239   0.955   4.841
27499WAT      O82738   0.336   4.394   3.467
27499WAT     H182739   0.265   4.390   3.536
27499WAT     H282740   0.425   4.413   3.510
27500WAT      O82741   9.361   3.963   8.703
27500WAT     H182742   9.449   4.002   8.730
27500WAT     H282743   9.354   3.870   8.738
27501WAT      O82744   1.432   9.143   9.416
27501WAT     H182745   1.485   9.086   9.354
27501WAT     H282746   1.443   9.239   9.391
27502WAT      O82747   6.675   1.518   6.356
27502WAT     H182748   6.668   1.603   6.407
27502WAT     H282749   6.740   1.457   6.401
27503WAT      O82750   9.188   1.899   4.941
27503WAT     H182751   9.173   1.870   5.035
27503WAT     H282752   9.133   1.842   4.879
27504WAT      O82753   8.025   2.885   4.711
27504WAT     H182754   7.977   2.949   4.651
27504WAT     H282755   7.959   2.842   4.772
27505WAT      O82756   0.410   0.061   5.722
27505WAT     H182757   0.469   0.103   5.791
27505WAT     H282758   0.367  -0.021   5.759
27506WAT      O82759   9.673   4.427   1.361
27506WAT     H182760   9.715   4.517   1.349
27506WAT     H282761   9.736   4.367   1.410
27507WAT      O82762   3.904   9.412   7.896
27507WAT     H182763   3.846   9.343   7.938
27507WAT     H282764   3.932   9.479   7.964
27508WAT      O82765   6.233   9.729   0.722
27508WAT     H182766   6.297   9.722   0.645
27508WAT     H282767   6.210   9.825   0.737
27509WAT      O82768   5.405   7.205   4.887
27509WAT     H182769   5.380   7.115   4.921
27509WAT     H282770   5.398   7.206   4.787
27510WAT      O82771   2.412   5.550   7.524
27510WAT     H182772   2.378   5.509   7.608
27510WAT     H282773   2.507   5.577   7.536
27511WAT      O82774   0.632   7.823   2.462
27511WAT     H182775   0.625   7.797   2.366
27511WAT     H282776   0.728   7.816   2.491
27512WAT      O82777   4.995   8.040   5.491
27512WAT     H182778   4.983   7.962   5.552
27512WAT     H282779   5.053   8.109   5.535
27513WAT      O82780   9.781   8.027   3.503
27513WAT     H182781   9.842   8.107   3.499
27513WAT     H282782   9.808   7.961   3.434
27514WAT      O82783   4.719   0.322   2.451
27514WAT     H182784   4.749   0.371   2.533
27514WAT     H282785   4.676   0.236   2.477
27515WAT      O82786   6.378   6.780   5.715
27515WAT     H182787   6.411   6.826   5.797
27515WAT     H282788   6.378   6.844   5.638
27516WAT      O82789   0.266   4.498   1.745
27516WAT     H182790   0.337   4.443   1.700
27516WAT     H282791   0.239   4.453   1.830
27517WAT      O82792   2.828   4.179   2.430
27517WAT     H182793   2.746   4.219   2.388
27517WAT     H282794   2.810   4.162   2.527
27518WAT      O82795   9.642   4.527   3.369
27518WAT     H182796   9.607   4.471   3.444
27518WAT     H282797   9.575   4.597   3.344
27519WAT      O82798   1.602   2.662   0.592
27519WAT     H182799   1.694   2.676   0.554
27519WAT     H282800   1.587   2.726   0.667
27520WAT      O82801   8.654   8.371   6.603
27520WAT     H182802   8.587   8.412   6.540
27520WAT     H282803   8.726   8.438   6.623
27521WAT      O82804   2.328   4.754   5.724
27521WAT     H182805   2.357   4.794   5.811
27521WAT     H282806   2.392   4.681   5.698
27522WAT      O82807   5.401   5.482   9.396
27522WAT     H182808   5.384   5.384   9.399
27522WAT     H282809   5.342   5.524   9.327
27523WAT      O82810   4.428   0.574   2.416
27523WAT     H182811   4.379   0.554   2.500
27523WAT     H282812   4.364   0.606   2.346
27524WAT      O82813   7.635   1.701   4.528
27524WAT     H182814   7.687   1.616   4.536
27524WAT     H282815   7.698   1.779   4.528
27525WAT      O82816   7.587   6.140   3.628
27525WAT     H182817   7.616   6.162   3.721
27525WAT     H282818   7.665   6.110   3.574
27526WAT      O82819   4.847   8.693   8.221
27526WAT     H182820   4.816   8.643   8.302
27526WAT     H282821   4.777   8.758   8.193
27527WAT      O82822   1.132   8.005   5.357
27527WAT     H182823   1.082   8.029   5.440
27527WAT     H282824   1.171   7.913   5.367
27528WAT      O82825   1.184   0.785   3.118
27528WAT     H182826   1.246   0.855   3.084
27528WAT     H282827   1.207   0.697   3.075
27529WAT      O82828   0.532   7.326   0.428
27529WAT     H182829   0.571   7.403   0.478
27529WAT     H282830   0.560   7.240   0.471
27530WAT      O82831   4.135   8.561   3.778
27530WAT     H182832   4.204   8.587   3.711
27530WAT     H282833   4.139   8.463   3.793
27531WAT      O82834   2.584   4.805   2.130
27531WAT     H182835   2.585   4.837   2.225
27531WAT     H282836   2.562   4.882   2.070
27532WAT      O82837   6.348   6.813   1.922
27532WAT     H182838   6.270   6.757   1.948
27532WAT     H282839   6.374   6.872   1.998
27533WAT      O82840   2.157   0.522   0.251
27533WAT     H182841   2.237   0.534   0.192
27533WAT     H282842   2.087   0.471   0.203
27534WAT      O82843   1.261   7.776   5.431
27534WAT     H182844   1.346   7.821   5.459
27534WAT     H282845   1.283   7.700   5.369
27535WAT      O82846   8.554   3.575   1.825
27535WAT     H182847   8.605   3.654   1.789
27535WAT     H282848   8.615   3.519   1.881
27536WAT      O82849   1.898   1.242   8.860
27536WAT     H182850   1.949   1.212   8.941
27536WAT     H282851   1.800   1.242   8.881
27537WAT      O82852   2.856   2.851   3.020
27537WAT     H182853   2.894   2.927   3.073
27537WAT     H282854   2.863   2.767   3.073
27538WAT      O82855   5.698   4.453   1.025
27538WAT     H182856   5.631   4.468   1.098
27538WAT     H282857   5.701   4.355   1.003
27539WAT      O82858   6.833   7.460   2.973
27539WAT     H182859   6.900   7.503   2.912
27539WAT     H282860   6.832   7.361   2.956
27540WAT      O82861   6.042   3.176   9.786
27540WAT     H182862   5.987   3.108   9.737
27540WAT     H282863   6.073   3.246   9.721
27541WAT      O82864   1.013   5.669   6.401
27541WAT     H182865   1.028   5.673   6.303
27541WAT     H282866   1.100   5.663   6.449
27542WAT      O82867   7.548   9.281   7.282
27542WAT     H182868   7.472   9.302   7.344
27542WAT     H282869   7.624   9.243   7.334
27543WAT      O82870   8.120   1.077   6.986
27543WAT     H182871   8.201   1.128   7.016
27543WAT     H282872   8.147   1.006   6.922
27544WAT      O82873   7.121   9.331   1.248
27544WAT     H182874   7.097   9.428   1.248
27544WAT     H282875   7.045   9.278   1.210
27545WAT      O82876   1.989   9.461   3.334
27545WAT     H182877   2.028   9.551   3.353
27545WAT     H282878   2.063   9.393   3.336
27546WAT      O82879   0.983   6.934   0.422
27546WAT     H182880   0.972   6.988   0.506
27546WAT     H282881   0.996   6.996   0.345
27547WAT      O82882   9.577   4.328   3.542
27547WAT     H182883   9.489   4.331   3.588
27547WAT     H282884   9.570   4.272   3.459
27548WAT      O82885   3.213   0.359   7.958
27548WAT     H182886   3.185   0.347   7.862
27548WAT     H282887   3.252   0.274   7.992
27549WAT      O82888   1.443   0.974   5.540
27549WAT     H182889   1.526   0.940   5.584
27549WAT     H282890   1.441   1.074   5.547
27550WAT      O82891   9.397   8.812   8.149
27550WAT     H182892   9.301   8.785   8.146
27550WAT     H282893   9.406   8.900   8.195
27551WAT      O82894   2.487   4.866   1.674
27551WAT     H182895   2.440   4.778   1.685
27551WAT     H282896   2.510   4.880   1.578
27552WAT      O82897   9.559   0.465   1.392
27552WAT     H182898   9.624   0.523   1.342
27552WAT     H282899   9.466   0.486   1.363
27553WAT      O82900   8.838   0.121   1.215
27553WAT     H182901   8.846   0.125   1.315
27553WAT     H282902   8.927   0.139   1.174
27554WAT      O82903   3.721   6.068   7.887
27554WAT     H182904   3.804   6.091   7.939
27554WAT     H282905   3.693   6.148   7.833
27555WAT      O82906   8.282   8.602   9.308
27555WAT     H182907   8.204   8.658   9.279
27555WAT     H282908   8.286   8.601   9.408
27556WAT      O82909   2.843   4.057   1.786
27556WAT     H182910   2.925   4.108   1.811
27556WAT     H282911   2.857   4.015   1.696
27557WAT      O82912   7.930   5.938   3.283
27557WAT     H182913   8.008   5.999   3.269
27557WAT     H282914   7.959   5.858   3.335
27558WAT      O82915   3.940   3.795   2.595
27558WAT     H182916   3.881   3.729   2.640
27558WAT     H282917   4.019   3.748   2.556
27559WAT      O82918   4.545   7.996   3.263
27559WAT     H182919   4.453   7.968   3.234
27559WAT     H282920   4.604   8.005   3.183
27560WAT      O82921   1.218   9.361   4.857
27560WAT     H182922   1.252   9.302   4.930
27560WAT     H282923   1.209   9.307   4.773
27561WAT      O82924   1.778   0.708   9.400
27561WAT     H182925   1.864   0.720   9.351
27561WAT     H282926   1.711   0.666   9.338
27562WAT      O82927   3.203   7.579   5.984
27562WAT     H182928   3.157   7.493   5.962
27562WAT     H282929   3.165   7.653   5.927
27563WAT      O82930   1.079   7.330   7.567
27563WAT     H182931   1.075   7.259   7.496
27563WAT     H282932   1.164   7.320   7.619
27564WAT      O82933   9.013   7.254   0.005
27564WAT     H182934   8.937   7.319   0.002
27564WAT     H282935   8.978   7.162   0.023
27565WAT      O82936   7.278   2.067   5.889
27565WAT     H182937   7.306   2.157   5.922
27565WAT     H282938   7.193   2.076   5.836
27566WAT      O82939   1.118   9.736   2.877
27566WAT     H182940   1.086   9.646   2.907
27566WAT     H282941   1.175   9.725   2.796
27567WAT      O82942   4.352   5.798   9.244
27567WAT     H182943   4.405   5.874   9.282
27567WAT     H282944   4.327   5.819   9.149
27568WAT      O82945   1.765   0.691   4.270
27568WAT     H182946   1.727   0.778   4.299
27568WAT     H282947   1.861   0.703   4.243
27569WAT      O82948   3.447   4.578   8.253
27569WAT     H182949   3.515   4.625   8.196
27569WAT     H282950   3.397   4.646   8.308
27570WAT      O82951   3.383   4.405   6.803
27570WAT     H182952   3.343   4.364   6.721
27570WAT     H282953   3.383   4.504   6.795
27571WAT      O82954   9.318   2.686   9.862
27571WAT     H182955   9.313   2.740   9.946
27571WAT     H282956   9.225   2.665   9.830
27572WAT      O82957   6.935   6.639   9.756
27572WAT     H182958   6.904   6.721   9.805
27572WAT     H282959   7.028   6.616   9.784
27573WAT      O82960   6.179   6.335   2.604
27573WAT     H182961   6.149   6.376   2.518
27573WAT     H282962   6.245   6.396   2.649
27574WAT      O82963   3.541   1.341   9.509
27574WAT     H182964   3.496   1.283   9.577
27574WAT     H282965   3.610   1.397   9.555
27575WAT      O82966   8.165   1.086   8.565
27575WAT     H182967   8.146   1.138   8.481
27575WAT     H282968   8.250   1.119   8.606
27576WAT      O82969   3.680   6.031   5.683
27576WAT     H182970   3.746   6.004   5.753
27576WAT     H282971   3.690   6.128   5.662
27577WAT      O82972   5.136   0.348   8.910
27577WAT     H182973   5.080   0.356   8.992
27577WAT     H282974   5.140   0.252   8.882
27578WAT      O82975   2.807   2.153   4.337
27578WAT     H182976   2.738   2.099   4.386
27578WAT     H282977   2.859   2.208   4.401
27579WAT      O82978   2.210   5.207   9.086
27579WAT     H182979   2.225   5.193   8.988
27579WAT     H282980   2.290   5.254   9.125
27580WAT      O82981   1.756   8.223   5.386
27580WAT     H182982   1.763   8.124   5.378
27580WAT     H282983   1.784   8.265   5.299
27581WAT      O82984   2.801   5.116   8.014
27581WAT     H182985   2.770   5.157   7.928
27581WAT     H282986   2.758   5.026   8.024
27582WAT      O82987   1.139   1.718   6.754
27582WAT     H182988   1.221   1.776   6.752
27582WAT     H282989   1.058   1.776   6.746
27583WAT      O82990   2.303   6.714   1.614
27583WAT     H182991   2.378   6.766   1.656
27583WAT     H282992   2.218   6.731   1.664
27584WAT      O82993   7.153   5.161   6.203
27584WAT     H182994   7.208   5.134   6.123
27584WAT     H282995   7.184   5.249   6.237
27585WAT      O82996   9.484   9.773   4.777
27585WAT     H182997   9.438   9.688   4.805
27585WAT     H282998   9.425   9.851   4.796
27586WAT      O82999   6.293   2.416   1.683
27586WAT     H183000   6.289   2.377   1.775
27586WAT     H283001   6.215   2.478   1.670
27587WAT      O83002   6.003   6.632   1.837
27587WAT     H183003   6.057   6.659   1.916
27587WAT     H283004   6.016   6.534   1.820
27588WAT      O83005   8.426   1.194   5.972
27588WAT     H183006   8.346   1.214   6.030
27588WAT     H283007   8.502   1.253   5.999
27589WAT      O83008   2.074   8.560   4.355
27589WAT     H183009   2.065   8.598   4.263
27589WAT     H283010   2.049   8.630   4.422
27590WAT      O83011   9.601   9.246   3.899
27590WAT     H183012   9.696   9.275   3.889
27590WAT     H283013   9.551   9.270   3.815
27591WAT      O83014   2.134   3.597   6.711
27591WAT     H183015   2.146   3.533   6.787
27591WAT     H283016   2.198   3.574   6.637
27592WAT      O83017   3.838   3.500   6.576
27592WAT     H183018   3.814   3.571   6.510
27592WAT     H283019   3.781   3.419   6.561
27593WAT      O83020   8.284   3.850   8.409
27593WAT     H183021   8.300   3.770   8.468
27593WAT     H283022   8.253   3.819   8.319
27594WAT      O83023   8.858   2.235   6.029
27594WAT     H183024   8.866   2.197   5.937
27594WAT     H283025   8.802   2.174   6.085
27595WAT      O83026   1.476   6.340   2.049
27595WAT     H183027   1.487   6.342   2.149
27595WAT     H283028   1.405   6.405   2.022
27596WAT      O83029   6.081   4.283   5.424
27596WAT     H183030   6.045   4.213   5.362
27596WAT     H283031   6.051   4.263   5.517
27597WAT      O83032   7.968   1.424   1.999
27597WAT     H183033   8.052   1.478   1.990
27597WAT     H283034   7.892   1.474   1.960
27598WAT      O83035   2.872   9.729   3.668
27598WAT     H183036   2.890   9.810   3.724
27598WAT     H283037   2.839   9.655   3.726
27599WAT      O83038   6.962   3.392   1.517
27599WAT     H183039   6.900   3.468   1.495
27599WAT     H283040   6.921   3.335   1.587
27600WAT      O83041   8.280   1.270   3.650
27600WAT     H183042   8.197   1.322   3.670
27600WAT     H283043   8.280   1.243   3.554
27601WAT      O83044   7.696   0.185   9.223
27601WAT     H183045   7.738   0.263   9.177
27601WAT     H283046   7.727   0.100   9.180
27602WAT      O83047   8.924   6.305   2.316
27602WAT     H183048   8.909   6.212   2.282
27602WAT     H283049   8.973   6.301   2.404
27603WAT      O83050   0.789   7.830   8.078
27603WAT     H183051   0.724   7.755   8.067
27603WAT     H283052   0.830   7.826   8.169
27604WAT      O83053   1.652   3.571   1.786
27604WAT     H183054   1.695   3.614   1.866
27604WAT     H283055   1.723   3.546   1.720
27605WAT      O83056   3.960   7.177   6.130
27605WAT     H183057   3.884   7.118   6.106
27605WAT     H283058   3.936   7.273   6.113
27606WAT      O83059   8.456   8.820   7.328
27606WAT     H183060   8.450   8.811   7.427
27606WAT     H283061   8.430   8.733   7.285
27607WAT      O83062   6.023   1.429   3.369
27607WAT     H183063   6.042   1.362   3.297
27607WAT     H283064   5.970   1.504   3.331
27608WAT      O83065   4.625   5.980   6.766
27608WAT     H183066   4.697   5.913   6.754
27608WAT     H283067   4.553   5.942   6.824
27609WAT      O83068   8.952   9.533   1.093
27609WAT     H183069   9.001   9.480   1.024
27609WAT     H283070   9.016   9.557   1.167
27610WAT      O83071   9.263   2.158   4.858
27610WAT     H183072   9.235   2.063   4.874
27610WAT     H283073   9.309   2.194   4.939
27611WAT      O83074   1.907   9.684   1.670
27611WAT     H183075   2.000   9.685   1.707
27611WAT     H283076   1.910   9.667   1.572
27612WAT      O83077   2.163   5.445   4.332
27612WAT     H183078   2.125   5.537   4.345
27612WAT     H283079   2.098   5.378   4.367
27613WAT      O83080   7.919   2.608   7.687
27613WAT     H183081   7.997   2.581   7.743
27613WAT     H283082   7.950   2.672   7.617
27614WAT      O83083   4.095   9.176   3.174
27614WAT     H183084   4.163   9.248   3.165
27614WAT     H283085   4.141   9.087   3.178
27615WAT      O83086   5.753   1.277   8.316
27615WAT     H183087   5.665   1.239   8.287
27615WAT     H283088   5.820   1.264   8.243
27616WAT      O83089   1.265   3.714   3.038
27616WAT     H183090   1.274   3.699   2.940
27616WAT     H283091   1.196   3.650   3.075
27617WAT      O83092   7.229   5.439   9.481
27617WAT     H183093   7.177   5.463   9.563
27617WAT     H283094   7.189   5.358   9.438
27618WAT      O83095   1.925   4.527   8.040
27618WAT     H183096   1.851   4.488   7.986
27618WAT     H283097   1.896   4.614   8.079
27619WAT      O83098   0.737   9.253   9.865
27619WAT     H183099   0.707   9.324   9.928
27619WAT     H283100   0.704   9.273   9.773
27620WAT      O83101   3.996   2.625   6.464
27620WAT     H183102   4.042   2.550   6.416
27620WAT     H283103   3.897   2.611   6.461
27621WAT      O83104   1.286   6.580   5.709
27621WAT     H183105   1.330   6.597   5.797
27621WAT     H283106   1.187   6.587   5.719
27622WAT      O83107   7.454   8.454   2.485
27622WAT     H183108   7.480   8.358   2.486
27622WAT     H283109   7.509   8.504   2.552
27623WAT      O83110   1.221   7.347   2.130
27623WAT     H183111   1.166   7.264   2.120
27623WAT     H283112   1.217   7.379   2.224
27624WAT      O83113   2.648   2.625   1.747
27624WAT     H183114   2.589   2.549   1.773
27624WAT     H283115   2.669   2.681   1.827
27625WAT      O83116   6.726   6.743   8.835
27625WAT     H183117   6.780   6.681   8.777
27625WAT     H283118   6.787   6.809   8.879
27626WAT      O83119   4.013   9.090  -0.000
27626WAT     H183120   4.105   9.128  -0.010
27626WAT     H283121   4.002   9.053   0.092
27627WAT      O83122   5.036   6.071   1.991
27627WAT     H183123   5.079   5.980   1.992
27627WAT     H283124   5.013   6.096   1.898
27628WAT      O83125   0.266   5.735   9.172
27628WAT     H183126   0.229   5.750   9.263
27628WAT     H283127   0.333   5.661   9.175
27629WAT      O83128   4.735   4.992   3.633
27629WAT     H183129   4.709   4.929   3.560
27629WAT     H283130   4.754   5.082   3.594
27630WAT      O83131   8.782   5.202   5.405
27630WAT     H183132   8.738   5.257   5.475
27630WAT     H283133   8.879   5.225   5.400
27631WAT      O83134   1.168   5.955   7.591
27631WAT     H183135   1.193   6.048   7.618
27631WAT     H283136   1.117   5.958   7.505
27632WAT      O83137   2.707   5.562   7.485
27632WAT     H183138   2.772   5.558   7.561
27632WAT     H283139   2.706   5.655   7.447
27633WAT      O83140   2.988   6.077   1.491
27633WAT     H183141   3.011   5.986   1.526
27633WAT     H283142   3.043   6.146   1.539
27634WAT      O83143   4.538   0.329   6.790
27634WAT     H183144   4.485   0.414   6.789
27634WAT     H283145   4.624   0.343   6.741
27635WAT      O83146   6.341   2.828   8.383
27635WAT     H183147   6.435   2.859   8.395
27635WAT     H283148   6.336   2.763   8.307
27636WAT      O83149   8.502   8.910   2.766
27636WAT     H183150   8.503   8.820   2.810
27636WAT     H283151   8.459   8.976   2.827
27637WAT      O83152   5.986   7.069   0.918
27637WAT     H183153   5.997   6.974   0.946
27637WAT     H283154   6.028   7.082   0.828
27638WAT      O83155   4.480   9.416   0.333
27638WAT     H183156   4.466   9.512   0.310
27638WAT     H283157   4.577   9.399   0.350
27639WAT      O83158   9.758   0.163   2.121
27639WAT     H183159   9.662   0.135   2.130
27639WAT     H283160   9.799   0.171   2.212
27640WAT      O83161   5.164   5.988   9.493
27640WAT     H183162   5.115   5.934   9.562
27640WAT     H283163   5.253   5.945   9.475
27641WAT      O83164   8.362   8.128   6.983
27641WAT     H183165   8.287   8.070   6.950
27641WAT     H283166   8.438   8.071   7.013
27642WAT      O83167   0.451   8.203   8.838
27642WAT     H183168   0.514   8.125   8.837
27642WAT     H283169   0.393   8.198   8.920
27643WAT      O83170   4.309   6.248   6.377
27643WAT     H183171   4.398   6.287   6.404
27643WAT     H283172   4.315   6.213   6.284
27644WAT      O83173   5.121   6.242   1.288
27644WAT     H183174   5.139   6.326   1.339
27644WAT     H283175   5.023   6.221   1.290
27645WAT      O83176   7.531   1.233   0.869
27645WAT     H183177   7.581   1.289   0.803
27645WAT     H283178   7.444   1.277   0.892
27646WAT      O83179   4.794   4.273   1.245
27646WAT     H183180   4.773   4.350   1.184
27646WAT     H283181   4.798   4.189   1.192
27647WAT      O83182   7.510   3.879   5.476
27647WAT     H183183   7.516   3.821   5.395
27647WAT     H283184   7.596   3.874   5.527
27648WAT      O83185   6.394   1.315   9.370
27648WAT     H183186   6.342   1.290   9.289
27648WAT     H283187   6.434   1.406   9.358
27649WAT      O83188   0.842   4.729   4.768
27649WAT     H183189   0.773   4.665   4.802
27649WAT     H283190   0.929   4.712   4.816
27650WAT      O83191   9.681   2.656   5.517
27650WAT     H183192   9.652   2.590   5.587
27650WAT     H283193   9.689   2.610   5.429
27651WAT      O83194   1.040   7.890   5.852
27651WAT     H183195   1.060   7.830   5.775
27651WAT     H283196   1.123   7.905   5.906
27652WAT      O83197   4.056   7.887   2.239
27652WAT     H183198   4.103   7.962   2.286
27652WAT     H283199   3.967   7.871   2.281
27653WAT      O83200   0.067   7.221   5.931
27653WAT     H183201   0.163   7.194   5.930
27653WAT     H283202   0.010   7.143   5.954
27654WAT      O83203   3.959   2.923   3.394
27654WAT     H183204   4.002   2.958   3.477
27654WAT     H283205   4.029   2.901   3.326
27655WAT      O83206   3.669   3.067   3.334
27655WAT     H183207   3.702   3.154   3.296
27655WAT     H283208   3.744   3.002   3.338
27656WAT      O83209   6.916   8.563   2.743
27656WAT     H183210   7.014   8.556   2.764
27656WAT     H283211   6.905   8.603   2.651
27657WAT      O83212   7.554   0.664   5.328
27657WAT     H183213   7.481   0.609   5.369
27657WAT     H283214   7.577   0.629   5.238
27658WAT      O83215   5.114   3.176   1.192
27658WAT     H183216   5.147   3.260   1.149
27658WAT     H283217   5.036   3.141   1.141
27659WAT      O83218   1.294   4.781   2.068
27659WAT     H183219   1.376   4.831   2.039
27659WAT     H283220   1.244   4.836   2.134
27660WAT      O83221   7.960   0.978   5.920
27660WAT     H183222   8.000   1.068   5.902
27660WAT     H283223   7.917   0.943   5.837
27661WAT      O83224   7.164   7.618   3.719
27661WAT     H183225   7.105   7.688   3.761
27661WAT     H283226   7.175   7.542   3.783
27662WAT      O83227   9.215   4.408   4.186
27662WAT     H183228   9.202   4.444   4.279
27662WAT     H283229   9.283   4.463   4.138
27663WAT      O83230   1.656   4.761   1.106
27663WAT     H183231   1.684   4.795   1.017
27663WAT     H283232   1.733   4.766   1.170
27664WAT      O83233   8.180   9.441   3.877
27664WAT     H183234   8.123   9.364   3.850
27664WAT     H283235   8.146   9.478   3.963
27665WAT      O83236   7.014   0.942   5.705
27665WAT     H183237   7.019   0.859   5.761
27665WAT     H283238   6.967   1.014   5.756
27666WAT      O83239   0.597   5.269   5.802
27666WAT     H183240   0.558   5.274   5.894
27666WAT     H283241   0.539   5.319   5.738
27667WAT      O83242   3.149   0.277   3.730
27667WAT     H183243   3.082   0.326   3.785
27667WAT     H283244   3.214   0.342   3.690
27668WAT      O83245   2.544   8.086   5.833
27668WAT     H183246   2.464   8.146   5.830
27668WAT     H283247   2.570   8.060   5.740
27669WAT      O83248   3.954   2.759   9.685
27669WAT     H183249   3.915   2.849   9.665
27669WAT     H283250   4.042   2.750   9.638
27670WAT      O83251   1.713   7.314   2.939
27670WAT     H183252   1.666   7.321   2.851
27670WAT     H283253   1.810   7.293   2.923
27671WAT      O83254   6.706   6.630   5.661
27671WAT     H183255   6.608   6.642   5.680
27671WAT     H283256   6.732   6.536   5.682
27672WAT      O83257   2.207   3.342   7.783
27672WAT     H183258   2.212   3.442   7.772
27672WAT     H283259   2.282   3.311   7.841
27673WAT      O83260   4.486   1.276   7.524
27673WAT     H183261   4.487   1.324   7.436
27673WAT     H283262   4.392   1.269   7.556
27674WAT      O83263   2.542   5.264   0.927
27674WAT     H183264   2.584   5.279   1.016
27674WAT     H283265   2.604   5.210   0.869
27675WAT      O83266   8.891   4.514   5.999
27675WAT     H183267   8.974   4.458   5.993
27675WAT     H283268   8.839   4.487   6.080
27676WAT      O83269   1.185   1.662   3.904
27676WAT     H183270   1.222   1.599   3.835
27676WAT     H283271   1.103   1.622   3.945
27677WAT      O83272   3.664   1.525   8.167
27677WAT     H183273   3.627   1.603   8.116
27677WAT     H283274   3.679   1.552   8.262
27678WAT      O83275   6.595   2.606   7.831
27678WAT     H183276   6.507   2.559   7.837
27678WAT     H283277   6.619   2.620   7.735
27679WAT      O83278   3.537   5.305   2.248
27679WAT     H183279   3.494   5.338   2.164
27679WAT     H283280   3.602   5.233   2.226
27680WAT      O83281   3.201   0.022   6.236
27680WAT     H183282   3.296   0.028   6.207
27680WAT     H283283   3.167   0.113   6.259
27681WAT      O83284   9.752   6.286   8.949
27681WAT     H183285   9.796   6.198   8.932
27681WAT     H283286   9.701   6.281   9.036
27682WAT      O83287   6.916   7.726   4.438
27682WAT     H183288   6.930   7.825   4.426
27682WAT     H283289   6.845   7.710   4.506
27683WAT      O83290   5.041   1.222   5.752
27683WAT     H183291   5.059   1.128   5.778
27683WAT     H283292   4.996   1.224   5.662
27684WAT      O83293   6.380   1.440   5.261
27684WAT     H183294   6.294   1.489   5.249
27684WAT     H283295   6.451   1.503   5.291
27685WAT      O83296   8.520   9.688   0.648
27685WAT     H183297   8.436   9.639   0.623
27685WAT     H283298   8.505   9.786   0.639
27686WAT      O83299   2.553   6.923   5.364
27686WAT     H183300   2.605   6.946   5.446
27686WAT     H283301   2.478   6.863   5.388
27687WAT      O83302   0.158   7.238   8.927
27687WAT     H183303   0.065   7.274   8.913
27687WAT     H283304   0.178   7.236   9.025
27688WAT      O83305   2.231   0.773   3.795
27688WAT     H183306   2.236   0.838   3.870
27688WAT     H283307   2.247   0.821   3.708
27689WAT      O83308   2.705   4.116   4.417
27689WAT     H183309   2.766   4.116   4.338
27689WAT     H283310   2.742   4.057   4.488
27690WAT      O83311   3.359   3.353   6.588
27690WAT     H183312   3.309   3.325   6.506
27690WAT     H283313   3.295   3.371   6.662
27691WAT      O83314   6.023   0.366   6.927
27691WAT     H183315   5.942   0.423   6.914
27691WAT     H283316   6.062   0.383   7.018
27692WAT      O83317   0.084   0.050   1.133
27692WAT     H183318   0.154   0.016   1.195
27692WAT     H283319   0.010   0.092   1.185
27693WAT      O83320   8.880   3.556   1.428
27693WAT     H183321   8.825   3.505   1.362
27693WAT     H283322   8.819   3.609   1.487
27694WAT      O83323   2.060   4.773   1.751
27694WAT     H183324   2.101   4.704   1.812
27694WAT     H283325   2.056   4.861   1.798
27695WAT      O83326   3.984   2.708   6.163
27695WAT     H183327   3.896   2.731   6.206
27695WAT     H283328   4.038   2.653   6.226
27696WAT      O83329   2.934   1.265   1.638
27696WAT     H183330   2.856   1.257   1.701
27696WAT     H283331   2.902   1.251   1.544
27697WAT      O83332   7.945   8.126   7.359
27697WAT     H183333   7.953   8.047   7.298
27697WAT     H283334   8.017   8.123   7.427
27698WAT      O83335   6.349   9.106   9.233
27698WAT     H183336   6.288   9.066   9.165
27698WAT     H283337   6.424   9.043   9.252
27699WAT      O83338   7.748   4.257   8.992
27699WAT     H183339   7.698   4.189   9.044
27699WAT     H283340   7.733   4.243   8.894
27700WAT      O83341   6.078   6.769   4.162
27700WAT     H183342   6.162   6.718   4.177
27700WAT     H283343   6.007   6.734   4.224
27701WAT      O83344   7.282   3.402   2.571
27701WAT     H183345   7.310   3.451   2.654
27701WAT     H283346   7.187   3.423   2.550
27702WAT      O83347   1.947   7.815   7.438
27702WAT     H183348   1.910   7.731   7.478
27702WAT     H283349   1.927   7.892   7.499
27703WAT      O83350   6.089   1.643   8.962
27703WAT     H183351   6.117   1.605   8.873
27703WAT     H283352   6.167   1.643   9.024
27704WAT      O83353   6.633   9.128   5.316
27704WAT     H183354   6.681   9.115   5.402
27704WAT     H283355   6.589   9.218   5.316
27705WAT      O83356   0.199   1.965   6.841
27705WAT     H183357   0.179   2.057   6.875
27705WAT     H283358   0.299   1.952   6.837
27706WAT      O83359   3.229   6.569   1.183
27706WAT     H183360   3.305   6.603   1.238
27706WAT     H283361   3.166   6.517   1.240
27707WAT      O83362   4.351   9.112   2.806
27707WAT     H183363   4.435   9.090   2.756
27707WAT     H283364   4.332   9.041   2.874
27708WAT      O83365   9.358   7.347   6.132
27708WAT     H183366   9.412   7.273   6.172
27708WAT     H283367   9.293   7.381   6.200
27709WAT      O83368   1.313   5.960   4.209
27709WAT     H183369   1.373   5.961   4.288
27709WAT     H283370   1.218   5.965   4.239
27710WAT      O83371   6.211   3.111   8.450
27710WAT     H183372   6.296   3.159   8.469
27710WAT     H283373   6.230   3.016   8.427
27711WAT      O83374   7.845   5.639   9.081
27711WAT     H183375   7.896   5.665   8.999
27711WAT     H283376   7.908   5.636   9.159
27712WAT      O83377   2.978   4.669   7.555
27712WAT     H183378   2.956   4.717   7.640
27712WAT     H283379   2.973   4.732   7.478
27713WAT      O83380   4.683   4.952   9.450
27713WAT     H183381   4.644   5.044   9.464
27713WAT     H283382   4.697   4.936   9.353
27714WAT      O83383   2.927   6.871   6.980
27714WAT     H183384   3.024   6.895   6.977
27714WAT     H283385   2.915   6.776   6.950
27715WAT      O83386   3.984   2.312   8.420
27715WAT     H183387   4.025   2.253   8.489
27715WAT     H283388   3.903   2.357   8.458
27716WAT      O83389   0.275   1.674   1.287
27716WAT     H183390   0.320   1.649   1.202
27716WAT     H283391   0.227   1.595   1.325
27717WAT      O83392   2.660   2.412   7.495
27717WAT     H183393   2.580   2.389   7.440
27717WAT     H283394   2.665   2.512   7.506
27718WAT      O83395   9.875   0.071   6.603
27718WAT     H183396   9.918  -0.018   6.598
27718WAT     H283397   9.944   0.143   6.603
27719WAT      O83398   5.180   0.914   6.136
27719WAT     H183399   5.121   0.987   6.100
27719WAT     H283400   5.147   0.825   6.103
27720WAT      O83401   4.043   1.560   8.253
27720WAT     H183402   4.019   1.542   8.348
27720WAT     H283403   4.000   1.492   8.194
27721WAT      O83404   4.570   2.353   3.567
27721WAT     H183405   4.540   2.433   3.514
27721WAT     H283406   4.562   2.372   3.664
27722WAT      O83407   6.093   6.322   3.618
27722WAT     H183408   6.110   6.306   3.716
27722WAT     H283409   6.076   6.234   3.573
27723WAT      O83410   7.540   3.669   1.476
27723WAT     H183411   7.518   3.572   1.480
27723WAT     H283412   7.593   3.695   1.557
27724WAT      O83413   0.818   1.159   7.141
27724WAT     H183414   0.916   1.170   7.155
27724WAT     H283415   0.795   1.181   7.047
27725WAT      O83416   2.828   6.575   3.917
27725WAT     H183417   2.883   6.658   3.912
27725WAT     H283418   2.734   6.596   3.891
27726WAT      O83419   9.649   6.262   9.187
27726WAT     H183420   9.693   6.172   9.196
27726WAT     H283421   9.579   6.271   9.258
27727WAT      O83422   0.337   9.395   4.048
27727WAT     H183423   0.303   9.471   3.992
27727WAT     H283424   0.435   9.385   4.034
27728WAT      O83425   1.910   1.395   6.268
27728WAT     H183426   1.899   1.460   6.343
27728WAT     H283427   1.820   1.363   6.239
27729WAT      O83428   0.879   7.034   0.968
27729WAT     H183429   0.920   7.116   0.927
27729WAT     H283430   0.795   7.059   1.015
27730WAT      O83431   7.306   9.143   1.024
27730WAT     H183432   7.385   9.193   0.988
27730WAT     H283433   7.321   9.123   1.121
27731WAT      O83434   0.515   1.548   9.680
27731WAT     H183435   0.419   1.565   9.657
27731WAT     H283436   0.562   1.635   9.695
27732WAT      O83437   9.870   2.268   8.816
27732WAT     H183438   9.930   2.346   8.800
27732WAT     H283439   9.887   2.198   8.747
27733WAT      O83440   8.480   2.737   8.149
27733WAT     H183441   8.561   2.786   8.116
27733WAT     H283442   8.485   2.641   8.122
27734WAT      O83443   8.410   3.227   6.090
27734WAT     H183444   8.434   3.130   6.092
27734WAT     H283445   8.402   3.261   6.184
27735WAT      O83446   1.394   7.239   5.994
27735WAT     H183447   1.422   7.283   5.909
27735WAT     H283448   1.351   7.306   6.054
27736WAT      O83449   2.489   4.772   3.271
27736WAT     H183450   2.409   4.789   3.329
27736WAT     H283451   2.558   4.721   3.323
27737WAT      O83452   0.724   8.110   9.419
27737WAT     H183453   0.770   8.037   9.369
27737WAT     H283454   0.784   8.190   9.424
27738WAT      O83455   3.635   4.283   9.364
27738WAT     H183456   3.564   4.251   9.301
27738WAT     H283457   3.725   4.270   9.324
27739WAT      O83458   9.585   8.427   4.746
27739WAT     H183459   9.565   8.333   4.718
27739WAT     H283460   9.655   8.426   4.817
27740WAT      O83461   2.124   5.288   5.681
27740WAT     H183462   2.105   5.367   5.739
27740WAT     H283463   2.042   5.264   5.630
27741WAT      O83464   2.332   4.085   0.648
27741WAT     H183465   2.242   4.128   0.656
27741WAT     H283466   2.323   3.998   0.599
27742WAT      O83467   0.881   7.268   9.205
27742WAT     H183468   0.975   7.249   9.233
27742WAT     H283469   0.840   7.184   9.169
27743WAT      O83470   5.374   1.514   0.955
27743WAT     H183471   5.389   1.426   0.999
27743WAT     H283472   5.398   1.507   0.858
27744WAT      O83473   3.149   4.774   9.712
27744WAT     H183474   3.224   4.748   9.652
27744WAT     H283475   3.078   4.820   9.659
27745WAT      O83476   3.245   2.587   9.114
27745WAT     H183477   3.146   2.571   9.119
27745WAT     H283478   3.293   2.500   9.125
27746WAT      O83479   4.628   6.510   5.032
27746WAT     H183480   4.643   6.608   5.014
27746WAT     H283481   4.711   6.459   5.008
27747WAT      O83482   4.565   7.218   6.456
27747WAT     H183483   4.618   7.212   6.372
27747WAT     H283484   4.606   7.285   6.517
27748WAT      O83485   3.957   3.860   9.485
27748WAT     H183486   3.966   3.930   9.557
27748WAT     H283487   4.034   3.869   9.421
27749WAT      O83488   5.810   4.046   5.812
27749WAT     H183489   5.893   4.073   5.862
27749WAT     H283490   5.730   4.063   5.869
27750WAT      O83491   8.519   5.312   6.625
27750WAT     H183492   8.616   5.321   6.649
27750WAT     H283493   8.509   5.250   6.548
27751WAT      O83494   8.502   7.215   2.875
27751WAT     H183495   8.420   7.243   2.925
27751WAT     H283496   8.541   7.294   2.827
27752WAT      O83497   4.897   8.855   7.858
27752WAT     H183498   4.848   8.930   7.902
27752WAT     H283499   4.836   8.808   7.795
27753WAT      O83500   6.898   4.730   3.728
27753WAT     H183501   6.918   4.688   3.639
27753WAT     H283502   6.813   4.691   3.764
27754WAT      O83503   4.082   7.951   8.183
27754WAT     H183504   4.137   8.034   8.191
27754WAT     H283505   3.985   7.974   8.193
27755WAT      O83506   9.641   2.201   9.796
27755WAT     H183507   9.557   2.158   9.764
27755WAT     H283508   9.719   2.161   9.747
27756WAT      O83509   1.635   1.284   4.466
27756WAT     H183510   1.597   1.373   4.490
27756WAT     H283511   1.652   1.280   4.367
27757WAT      O83512   1.896   4.299   0.393
27757WAT     H183513   1.845   4.214   0.406
27757WAT     H283514   1.856   4.350   0.317
27758WAT      O83515   5.684   4.892   3.806
27758WAT     H183516   5.780   4.901   3.779
27758WAT     H283517   5.674   4.817   3.871
27759WAT      O83518   9.312   7.625   6.658
27759WAT     H183519   9.296   7.611   6.755
27759WAT     H283520   9.347   7.718   6.642
27760WAT      O83521   8.405   9.246   1.484
27760WAT     H183522   8.393   9.326   1.542
27760WAT     H283523   8.366   9.264   1.393
27761WAT      O83524   2.604   8.742   8.676
27761WAT     H183525   2.521   8.713   8.723
27761WAT     H283526   2.677   8.756   8.744
27762WAT      O83527   9.418   4.512   5.499
27762WAT     H183528   9.425   4.455   5.581
27762WAT     H283529   9.367   4.462   5.428
27763WAT      O83530   9.671   7.144   9.373
27763WAT     H183531   9.646   7.056   9.333
27763WAT     H283532   9.588   7.196   9.395
27764WAT      O83533   4.400   9.611   9.362
27764WAT     H183534   4.487   9.562   9.352
27764WAT     H283535   4.326   9.545   9.376
27765WAT      O83536   4.055   2.355   8.165
27765WAT     H183537   4.152   2.373   8.183
27765WAT     H283538   4.007   2.338   8.251
27766WAT      O83539   9.627   2.399   7.958
27766WAT     H183540   9.688   2.472   7.990
27766WAT     H283541   9.585   2.426   7.872
27767WAT      O83542   1.098   3.747   7.433
27767WAT     H183543   1.128   3.652   7.439
27767WAT     H283544   1.178   3.806   7.427
27768WAT      O83545   1.306   7.921   9.669
27768WAT     H183546   1.321   7.855   9.742
27768WAT     H283547   1.394   7.948   9.630
27769WAT      O83548   1.630   6.954   9.810
27769WAT     H183549   1.613   7.001   9.724
27769WAT     H283550   1.544   6.943   9.860
27770WAT      O83551   9.398   5.411   4.468
27770WAT     H183552   9.478   5.392   4.411
27770WAT     H283553   9.391   5.343   4.540
27771WAT      O83554   0.898   1.628   9.156
27771WAT     H183555   0.874   1.725   9.161
27771WAT     H283556   0.831   1.574   9.207
27772WAT      O83557   2.822   6.730   1.657
27772WAT     H183558   2.914   6.733   1.696
27772WAT     H283559   2.789   6.635   1.654
27773WAT      O83560   8.929   1.172   8.173
27773WAT     H183561   8.951   1.077   8.148
27773WAT     H283562   8.858   1.172   8.243
27774WAT      O83563   3.318   7.644   6.237
27774WAT     H183564   3.402   7.592   6.222
27774WAT     H283565   3.258   7.635   6.157
27775WAT      O83566   2.523   2.892   3.219
27775WAT     H183567   2.566   2.816   3.169
27775WAT     H283568   2.587   2.968   3.226
27776WAT      O83569   6.434   8.547   1.968
27776WAT     H183570   6.394   8.578   2.054
27776WAT     H283571   6.505   8.611   1.939
27777WAT      O83572   4.100   4.579   1.789
27777WAT     H183573   4.122   4.642   1.864
27777WAT     H283574   4.112   4.485   1.821
27778WAT      O83575   0.039   5.314   2.944
27778WAT     H183576   0.004   5.243   2.882
27778WAT     H283577   0.114   5.362   2.899
27779WAT      O83578   2.216   7.520   2.513
27779WAT     H183579   2.254   7.612   2.501
27779WAT     H283580   2.178   7.512   2.605
27780WAT      O83581   9.781   6.667   8.229
27780WAT     H183582   9.782   6.568   8.216
27780WAT     H283583   9.695   6.705   8.192
27781WAT      O83584   7.746   7.792   9.097
27781WAT     H183585   7.731   7.891   9.091
27781WAT     H283586   7.700   7.756   9.178
27782WAT      O83587   1.969   8.614   9.233
27782WAT     H183588   1.981   8.587   9.329
27782WAT     H283589   2.001   8.540   9.173
27783WAT      O83590   9.491   9.519   7.891
27783WAT     H183591   9.584   9.551   7.874
27783WAT     H283592   9.445   9.500   7.805
27784WAT      O83593   4.794   0.222   3.942
27784WAT     H183594   4.811   0.126   3.922
27784WAT     H283595   4.853   0.279   3.884
27785WAT      O83596   7.998   6.379   9.863
27785WAT     H183597   7.977   6.379   9.765
27785WAT     H283598   8.045   6.464   9.887
27786WAT      O83599   4.012   7.242   0.970
27786WAT     H183600   3.997   7.157   0.919
27786WAT     H283601   4.048   7.220   1.061
27787WAT      O83602   2.017   9.327   5.934
27787WAT     H183603   1.925   9.359   5.910
27787WAT     H283604   2.020   9.227   5.928
27788WAT      O83605   9.325   0.501   2.576
27788WAT     H183606   9.364   0.471   2.489
27788WAT     H283607   9.390   0.482   2.650
27789WAT      O83608   3.250   8.270   3.337
27789WAT     H183609   3.177   8.268   3.404
27789WAT     H283610   3.339   8.263   3.383
27790WAT      O83611   0.169   5.321   7.712
27790WAT     H183612   0.252   5.342   7.661
27790WAT     H283613   0.186   5.334   7.810
27791WAT      O83614   0.695   0.988   8.874
27791WAT     H183615   0.607   1.014   8.915
27791WAT     H283616   0.759   0.965   8.947
27792WAT      O83617   0.499   1.441   0.631
27792WAT     H183618   0.408   1.423   0.666
27792WAT     H283619   0.526   1.535   0.652
27793WAT      O83620   7.256   9.693   1.150
27793WAT     H183621   7.235   9.786   1.120
27793WAT     H283622   7.181   9.658   1.206
27794WAT      O83623   7.313   0.407   9.228
27794WAT     H183624   7.343   0.394   9.322
27794WAT     H283625   7.331   0.501   9.199
27795WAT      O83626   8.567   2.209   9.618
27795WAT     H183627   8.479   2.169   9.643
27795WAT     H283628   8.579   2.295   9.667
27796WAT      O83629   0.801   2.432   7.612
27796WAT     H183630   0.721   2.455   7.557
27796WAT     H283631   0.803   2.334   7.629
27797WAT      O83632   8.878   8.619   7.526
27797WAT     H183633   8.902   8.703   7.575
27797WAT     H283634   8.950   8.551   7.542
27798WAT      O83635   1.058   6.357   4.408
27798WAT     H183636   1.103   6.285   4.461
27798WAT     H283637   1.125   6.399   4.347
27799WAT      O83638   6.280   1.943   5.762
27799WAT     H183639   6.195   1.959   5.712
27799WAT     H283640   6.351   2.005   5.728
27800WAT      O83641   5.670   4.651   9.016
27800WAT     H183642   5.597   4.672   9.081
27800WAT     H283643   5.692   4.554   9.021
27801WAT      O83644   6.367   5.627   1.550
27801WAT     H183645   6.353   5.623   1.452
27801WAT     H283646   6.450   5.576   1.574
27802WAT      O83647   6.112   2.856   1.907
27802WAT     H183648   6.201   2.882   1.944
27802WAT     H283649   6.089   2.763   1.937
27803WAT      O83650   1.854   4.963   2.532
27803WAT     H183651   1.860   4.925   2.440
27803WAT     H283652   1.786   5.036   2.533
27804WAT      O83653   1.939   5.377   3.577
27804WAT     H183654   1.943   5.436   3.497
27804WAT     H283655   1.859   5.317   3.571
27805WAT      O83656   8.353   0.925   9.514
27805WAT     H183657   8.286   0.943   9.586
27805WAT     H283658   8.306   0.914   9.427
27806WAT      O83659   0.776   8.180   4.667
27806WAT     H183660   0.726   8.190   4.581
27806WAT     H283661   0.873   8.168   4.648
27807WAT      O83662   9.030   4.077   4.634
27807WAT     H183663   9.060   4.031   4.550
27807WAT     H283664   9.028   4.011   4.709
27808WAT      O83665   6.546   7.258   9.769
27808WAT     H183666   6.455   7.229   9.797
27808WAT     H283667   6.540   7.317   9.688
27809WAT      O83668   9.029   4.406   9.374
27809WAT     H183669   9.111   4.449   9.337
27809WAT     H283670   8.968   4.380   9.299
27810WAT      O83671   1.934   3.295   6.804
27810WAT     H183672   1.844   3.327   6.772
27810WAT     H283673   1.924   3.257   6.896
27811WAT      O83674   0.539   2.282   9.818
27811WAT     H183675   0.620   2.229   9.793
27811WAT     H283676   0.556   2.379   9.804
27812WAT      O83677   0.241   0.975   6.126
27812WAT     H183678   0.206   0.895   6.175
27812WAT     H283679   0.165   1.036   6.103
27813WAT      O83680   9.405   7.848   5.470
27813WAT     H183681   9.375   7.936   5.433
27813WAT     H283682   9.328   7.784   5.472
27814WAT      O83683   9.813   8.641   8.180
27814WAT     H183684   9.717   8.614   8.174
27814WAT     H283685   9.827   8.700   8.259
27815WAT      O83686   5.665   6.619   6.145
27815WAT     H183687   5.728   6.640   6.071
27815WAT     H283688   5.590   6.562   6.111
27816WAT      O83689   3.145   8.238   6.176
27816WAT     H183690   3.211   8.213   6.105
27816WAT     H283691   3.133   8.161   6.239
27817WAT      O83692   6.907   6.630   4.184
27817WAT     H183693   6.925   6.664   4.091
27817WAT     H283694   6.987   6.579   4.216
27818WAT      O83695   4.287   0.192   2.232
27818WAT     H183696   4.199   0.155   2.201
27818WAT     H283697   4.336   0.230   2.154
27819WAT      O83698   5.997   8.819   3.332
27819WAT     H183699   5.952   8.854   3.414
27819WAT     H283700   5.936   8.753   3.287
27820WAT      O83701   9.232   2.485   5.043
27820WAT     H183702   9.279   2.517   4.961
27820WAT     H283703   9.241   2.386   5.050
27821WAT      O83704   0.368   6.140   2.881
27821WAT     H183705   0.369   6.064   2.947
27821WAT     H283706   0.443   6.203   2.901
27822WAT      O83707   8.993   1.519   3.639
27822WAT     H183708   8.927   1.581   3.596
27822WAT     H283709   8.945   1.461   3.705
27823WAT      O83710   6.355   8.289   7.089
27823WAT     H183711   6.327   8.365   7.031
27823WAT     H283712   6.403   8.220   7.034
27824WAT      O83713   8.680   4.149   8.636
27824WAT     H183714   8.705   4.129   8.731
27824WAT     H283715   8.736   4.093   8.574
27825WAT      O83716   1.699   3.196   4.752
27825WAT     H183717   1.756   3.119   4.724
27825WAT     H283718   1.695   3.200   4.852
27826WAT      O83719   3.848   8.290   1.004
27826WAT     H183720   3.784   8.267   0.932
27826WAT     H283721   3.798   8.323   1.085
27827WAT      O83722   0.332   8.192   6.368
27827WAT     H183723   0.234   8.210   6.369
27827WAT     H283724   0.381   8.270   6.407
27828WAT      O83725   7.421   6.788   3.971
27828WAT     H183726   7.357   6.789   4.048
27828WAT     H283727   7.514   6.782   4.006
27829WAT      O83728   9.814   9.292   2.462
27829WAT     H183729   9.844   9.343   2.381
27829WAT     H283730   9.866   9.207   2.468
27830WAT      O83731   2.788   2.190   2.144
27830WAT     H183732   2.778   2.111   2.082
27830WAT     H283733   2.880   2.192   2.181
27831WAT      O83734   7.287   4.262   8.908
27831WAT     H183735   7.358   4.195   8.928
27831WAT     H283736   7.326   4.354   8.911
27832WAT      O83737   5.257   0.745   3.131
27832WAT     H183738   5.330   0.790   3.080
27832WAT     H283739   5.247   0.651   3.099
27833WAT      O83740   8.641   6.878   9.338
27833WAT     H183741   8.681   6.883   9.246
27833WAT     H283742   8.543   6.860   9.330
27834WAT      O83743   6.985   5.212   9.108
27834WAT     H183744   6.891   5.179   9.115
27834WAT     H283745   6.984   5.310   9.085
27835WAT      O83746   0.039   8.114   9.774
27835WAT     H183747   0.079   8.087   9.862
27835WAT     H283748  -0.056   8.084   9.769
27836WAT      O83749   7.527   6.466   8.094
27836WAT     H183750   7.527   6.557   8.136
27836WAT     H283751   7.621   6.434   8.083
27837WAT      O83752   6.280   5.346   5.376
27837WAT     H183753   6.366   5.396   5.361
27837WAT     H283754   6.204   5.404   5.349
27838WAT      O83755   4.345   0.675   2.099
27838WAT     H183756   4.327   0.733   2.020
27838WAT     H283757   4.262   0.667   2.155
27839WAT      O83758   4.677   7.043   8.705
27839WAT     H183759   4.740   7.100   8.653
27839WAT     H283760   4.713   7.030   8.798
27840WAT      O83761   1.182   2.138   0.037
27840WAT     H183762   1.187   2.061   0.100
27840WAT     H283763   1.180   2.224   0.090
27841WAT      O83764   4.933   9.566   5.625
27841WAT     H183765   4.944   9.473   5.590
27841WAT     H283766   4.845   9.574   5.671
27842WAT      O83767   1.886   5.665   7.814
27842WAT     H183768   1.802   5.612   7.804
27842WAT     H283769   1.944   5.622   7.884
27843WAT      O83770   9.830   7.714   8.501
27843WAT     H183771   9.865   7.783   8.438
27843WAT     H283772   9.751   7.750   8.550
27844WAT      O83773   6.377   6.466   3.271
27844WAT     H183774   6.306   6.450   3.340
27844WAT     H283775   6.454   6.405   3.287
27845WAT      O83776   1.723   4.843   8.872
27845WAT     H183777   1.799   4.897   8.836
27845WAT     H283778   1.687   4.886   8.955
27846WAT      O83779   8.653   7.192   7.030
27846WAT     H183780   8.655   7.103   7.076
27846WAT     H283781   8.584   7.250   7.074
27847WAT      O83782   7.670   9.699   4.313
27847WAT     H183783   7.600   9.715   4.383
27847WAT     H283784   7.735   9.774   4.313
27848WAT      O83785   4.703   5.118   1.078
27848WAT     H183786   4.775   5.181   1.048
27848WAT     H283787   4.731   5.072   1.162
27849WAT      O83788   7.062   6.064   1.855
27849WAT     H183789   7.024   6.056   1.763
27849WAT     H283790   7.145   6.009   1.863
27850WAT      O83791   6.630   5.481   1.525
27850WAT     H183792   6.723   5.508   1.553
27850WAT     H283793   6.632   5.453   1.429
27851WAT      O83794   9.284   2.279   1.876
27851WAT     H183795   9.312   2.200   1.822
27851WAT     H283796   9.184   2.278   1.887
27852WAT      O83797   6.369   1.896   8.385
27852WAT     H183798   6.329   1.845   8.461
27852WAT     H283799   6.362   1.843   8.301
27853WAT      O83800   8.906   6.615   2.339
27853WAT     H183801   8.878   6.522   2.363
27853WAT     H283802   8.998   6.613   2.301
27854WAT      O83803   9.456   6.937   4.016
27854WAT     H183804   9.397   7.018   4.025
27854WAT     H283805   9.493   6.913   4.105
27855WAT      O83806   6.924   0.622   4.975
27855WAT     H183807   6.996   0.667   5.028
27855WAT     H283808   6.951   0.620   4.879
27856WAT      O83809   3.844   4.773   5.297
27856WAT     H183810   3.773   4.831   5.257
27856WAT     H283811   3.804   4.687   5.327
27857WAT      O83812   2.843   1.970   8.799
27857WAT     H183813   2.935   1.944   8.829
27857WAT     H283814   2.849   2.021   8.714
27858WAT      O83815   7.351   6.260   9.536
27858WAT     H183816   7.369   6.343   9.589
27858WAT     H283817   7.437   6.222   9.503
27859WAT      O83818   7.740   9.421   6.125
27859WAT     H183819   7.753   9.389   6.032
27859WAT     H283820   7.731   9.521   6.125
27860WAT      O83821   1.817   7.201   6.981
27860WAT     H183822   1.785   7.142   7.056
27860WAT     H283823   1.786   7.295   6.997
27861WAT      O83824   7.274   6.650   7.721
27861WAT     H183825   7.205   6.598   7.673
27861WAT     H283826   7.309   6.722   7.661
27862WAT      O83827   4.986   7.753   9.245
27862WAT     H183828   4.932   7.836   9.260
27862WAT     H283829   5.038   7.733   9.328
27863WAT      O83830   4.803   7.783   1.898
27863WAT     H183831   4.862   7.814   1.972
27863WAT     H283832   4.709   7.813   1.914
27864WAT      O83833   6.647   3.865   3.486
27864WAT     H183834   6.601   3.953   3.492
27864WAT     H283835   6.730   3.875   3.431
27865WAT      O83836   5.619   5.260   8.531
27865WAT     H183837   5.582   5.338   8.479
27865WAT     H283838   5.636   5.288   8.625
27866WAT      O83839   3.464   4.287   2.623
27866WAT     H183840   3.475   4.208   2.563
27866WAT     H283841   3.550   4.338   2.626
27867WAT      O83842   9.029   0.599   6.855
27867WAT     H183843   8.943   0.605   6.805
27867WAT     H283844   9.105   0.591   6.790
27868WAT      O83845   8.826   7.429   8.650
27868WAT     H183846   8.813   7.432   8.551
27868WAT     H283847   8.879   7.508   8.680
27869WAT      O83848   0.526   6.658   7.093
27869WAT     H183849   0.524   6.695   7.186
27869WAT     H283850   0.432   6.641   7.063
27870WAT      O83851   7.543   4.879   4.306
27870WAT     H183852   7.597   4.835   4.378
27870WAT     H283853   7.487   4.952   4.346
27871WAT      O83854   8.884   8.249   8.277
27871WAT     H183855   8.958   8.187   8.304
27871WAT     H283856   8.881   8.256   8.178
27872WAT      O83857   2.860   0.626   2.092
27872WAT     H183858   2.827   0.713   2.054
27872WAT     H283859   2.804   0.601   2.171
27873WAT      O83860   1.436   6.739   4.428
27873WAT     H183861   1.341   6.727   4.456
27873WAT     H283862   1.445   6.719   4.331
27874WAT      O83863   3.348   0.646   8.028
27874WAT     H183864   3.328   0.551   8.006
27874WAT     H283865   3.341   0.660   8.126
27875WAT      O83866   7.892   5.070   8.857
27875WAT     H183867   7.833   5.001   8.898
27875WAT     H283868   7.914   5.140   8.925
27876WAT      O83869   4.489   1.227   2.794
27876WAT     H183870   4.436   1.293   2.848
27876WAT     H283871   4.460   1.233   2.698
27877WAT      O83872   1.677   5.825   7.675
27877WAT     H183873   1.677   5.923   7.694
27877WAT     H283874   1.670   5.774   7.760
27878WAT      O83875   6.101   6.526   5.718
27878WAT     H183876   6.038   6.541   5.642
27878WAT     H283877   6.076   6.585   5.795
27879WAT      O83878   8.630   9.707   6.403
27879WAT     H183879   8.579   9.666   6.479
27879WAT     H283880   8.726   9.680   6.409
27880WAT      O83881   1.346   0.648   8.788
27880WAT     H183882   1.316   0.741   8.768
27880WAT     H283883   1.418   0.622   8.724
27881WAT      O83884   3.557   8.748   7.860
27881WAT     H183885   3.613   8.723   7.939
27881WAT     H283886   3.487   8.677   7.845
27882WAT      O83887   5.047   1.698   1.337
27882WAT     H183888   5.099   1.654   1.263
27882WAT     H283889   5.016   1.628   1.401
27883WAT      O83890   9.445   1.125   9.416
27883WAT     H183891   9.380   1.161   9.349
27883WAT     H283892   9.407   1.044   9.460
27884WAT      O83893   0.270   9.040   5.820
27884WAT     H183894   0.281   9.127   5.773
27884WAT     H283895   0.185   8.996   5.791
27885WAT      O83896   6.454   4.944   1.712
27885WAT     H183897   6.435   4.852   1.676
27885WAT     H283898   6.388   4.966   1.783
27886WAT      O83899   9.298   9.617   0.902
27886WAT     H183900   9.223   9.554   0.920
27886WAT     H283901   9.375   9.595   0.962
27887WAT      O83902   7.250   2.225   8.642
27887WAT     H183903   7.181   2.205   8.573
27887WAT     H283904   7.206   2.252   8.728
27888WAT      O83905   1.464   4.567   5.614
27888WAT     H183906   1.514   4.616   5.686
27888WAT     H283907   1.476   4.614   5.527
27889WAT      O83908   6.178   2.364   3.386
27889WAT     H183909   6.092   2.415   3.398
27889WAT     H283910   6.248   2.404   3.445
27890WAT      O83911   1.835   0.745   5.943
27890WAT     H183912   1.932   0.753   5.966
27890WAT     H283913   1.788   0.694   6.016
27891WAT      O83914   3.538   0.842   2.882
27891WAT     H183915   3.507   0.767   2.823
27891WAT     H283916   3.593   0.907   2.829
27892WAT      O83917   4.921   7.159   0.251
27892WAT     H183918   4.896   7.068   0.219
27892WAT     H283919   5.014   7.157   0.288
27893WAT      O83920   5.285   1.991   9.465
27893WAT     H183921   5.259   1.897   9.485
27893WAT     H283922   5.241   2.052   9.531
27894WAT      O83923   6.517   6.302   5.269
27894WAT     H183924   6.569   6.305   5.355
27894WAT     H283925   6.462   6.219   5.266
27895WAT      O83926   3.578   2.239   1.713
27895WAT     H183927   3.616   2.246   1.805
27895WAT     H283928   3.592   2.326   1.665
27896WAT      O83929   6.093   2.482   9.450
27896WAT     H183930   6.027   2.408   9.462
27896WAT     H283931   6.107   2.498   9.352
27897WAT      O83932   0.401   8.404   0.312
27897WAT     H183933   0.323   8.351   0.347
27897WAT     H283934   0.454   8.347   0.249
27898WAT      O83935   1.285   0.582   8.350
27898WAT     H183936   1.234   0.667   8.344
27898WAT     H283937   1.243   0.523   8.420
27899WAT      O83938   6.628   1.860   5.776
27899WAT     H183939   6.599   1.897   5.865
27899WAT     H283940   6.696   1.788   5.791
27900WAT      O83941   0.619   5.527   6.626
27900WAT     H183942   0.638   5.623   6.602
27900WAT     H283943   0.678   5.467   6.571
27901WAT      O83944   5.079   6.268   9.490
27901WAT     H183945   5.084   6.170   9.472
27901WAT     H283946   5.154   6.294   9.550
27902WAT      O83947   2.909   0.787   3.790
27902WAT     H183948   2.949   0.878   3.805
27902WAT     H283949   2.982   0.722   3.768
27903WAT      O83950   2.517   9.474   0.760
27903WAT     H183951   2.553   9.413   0.690
27903WAT     H283952   2.451   9.537   0.719
27904WAT      O83953   3.157   1.450   9.144
27904WAT     H183954   3.179   1.442   9.046
27904WAT     H283955   3.178   1.363   9.190
27905WAT      O83956   1.226   2.252   5.351
27905WAT     H183957   1.228   2.292   5.442
27905WAT     H283958   1.228   2.152   5.359
27906WAT      O83959   6.066   1.604   9.376
27906WAT     H183960   6.137   1.620   9.445
27906WAT     H283961   6.003   1.681   9.375
27907WAT      O83962   9.723   9.295   6.455
27907WAT     H183963   9.641   9.348   6.478
27907WAT     H283964   9.803   9.356   6.456
27908WAT      O83965   5.528   3.825   8.142
27908WAT     H183966   5.464   3.761   8.100
27908WAT     H283967   5.489   3.918   8.139
27909WAT      O83968   8.143   2.701   2.474
27909WAT     H183969   8.053   2.741   2.491
27909WAT     H283970   8.208   2.773   2.448
27910WAT      O83971   1.602   0.530   2.615
27910WAT     H183972   1.696   0.499   2.628
27910WAT     H283973   1.540   0.452   2.615
27911WAT      O83974   7.113   9.073   0.863
27911WAT     H183975   7.037   9.138   0.867
27911WAT     H283976   7.175   9.089   0.939
27912WAT      O83977   1.161   2.600   6.267
27912WAT     H183978   1.112   2.514   6.279
27912WAT     H283979   1.235   2.587   6.200
27913WAT      O83980   5.470   3.219   2.952
27913WAT     H183981   5.488   3.186   3.045
27913WAT     H283982   5.540   3.284   2.926
27914WAT      O83983   3.075   2.611   0.459
27914WAT     H183984   3.150   2.675   0.445
27914WAT     H283985   3.021   2.638   0.538
27915WAT      O83986   7.579   6.896   1.864
27915WAT     H183987   7.658   6.862   1.914
27915WAT     H283988   7.594   6.992   1.839
27916WAT      O83989   3.511   8.626   0.413
27916WAT     H183990   3.515   8.722   0.384
27916WAT     H283991   3.604   8.592   0.426
27917WAT      O83992   6.367   5.387   3.077
27917WAT     H183993   6.443   5.395   3.141
27917WAT     H283994   6.386   5.441   2.995
27918WAT      O83995   8.818   5.162   9.437
27918WAT     H183996   8.887   5.115   9.382
27918WAT     H283997   8.780   5.098   9.504
27919WAT      O83998   6.370   0.695   7.007
27919WAT     H183999   6.320   0.633   6.946
27919WAT     H284000   6.406   0.772   6.955
27920WAT      O84001   8.358   1.221   5.050
27920WAT     H184002   8.432   1.275   5.090
27920WAT     H284003   8.273   1.241   5.098
27921WAT      O84004   3.475   8.725   6.777
27921WAT     H184005   3.404   8.795   6.787
27921WAT     H284006   3.448   8.660   6.706
27922WAT      O84007   8.735   3.449   1.986
27922WAT     H184008   8.746   3.354   2.014
27922WAT     H284009   8.714   3.505   2.066
27923WAT      O84010   1.386   0.608   6.145
27923WAT     H184011   1.482   0.629   6.163
27923WAT     H284012   1.330   0.639   6.222
27924WAT      O84013   6.268   1.237   8.334
27924WAT     H184014   6.296   1.153   8.380
27924WAT     H284015   6.168   1.245   8.336
27925WAT      O84016   6.670   4.326   9.603
27925WAT     H184017   6.747   4.390   9.610
27925WAT     H284018   6.602   4.347   9.674
27926WAT      O84019   6.377   1.881   3.776
27926WAT     H184020   6.430   1.964   3.757
27926WAT     H284021   6.430   1.801   3.748
27927WAT      O84022   0.302   1.959   0.789
27927WAT     H184023   0.247   1.937   0.709
27927WAT     H284024   0.289   2.055   0.813
27928WAT      O84025   6.739   4.563   2.523
27928WAT     H184026   6.789   4.634   2.573
27928WAT     H284027   6.656   4.603   2.483
27929WAT      O84028   5.830   0.152   3.026
27929WAT     H184029   5.872   0.237   3.058
27929WAT     H284030   5.817   0.155   2.927
27930WAT      O84031   1.788   8.711   8.050
27930WAT     H184032   1.819   8.798   8.013
27930WAT     H284033   1.819   8.636   7.992
27931WAT      O84034   2.142   6.061   5.908
27931WAT     H184035   2.118   5.989   5.973
27931WAT     H284036   2.096   6.146   5.933
27932WAT      O84037   1.109   7.593   7.553
27932WAT     H184038   1.080   7.498   7.563
27932WAT     H284039   1.030   7.653   7.563
27933WAT      O84040   2.161   5.884   2.532
27933WAT     H184041   2.160   5.951   2.459
27933WAT     H284042   2.145   5.929   2.620
27934WAT      O84043   9.560   7.175   8.768
27934WAT     H184044   9.631   7.106   8.783
27934WAT     H284045   9.577   7.222   8.681
27935WAT      O84046   2.320   1.548   6.929
27935WAT     H184047   2.402   1.491   6.928
27935WAT     H284048   2.346   1.643   6.913
27936WAT      O84049   6.218   0.495   3.211
27936WAT     H184050   6.294   0.523   3.153
27936WAT     H284051   6.250   0.426   3.277
27937WAT      O84052   4.094   7.899   0.975
27937WAT     H184053   4.089   7.988   1.020
27937WAT     H284054   4.096   7.826   1.045
27938WAT      O84055   6.356   6.989   2.128
27938WAT     H184056   6.295   7.051   2.080
27938WAT     H284057   6.390   7.033   2.211
27939WAT      O84058   6.842   8.242   9.136
27939WAT     H184059   6.864   8.151   9.103
27939WAT     H284060   6.765   8.237   9.199
27940WAT      O84061   8.424   6.791   2.355
27940WAT     H184062   8.522   6.786   2.378
27940WAT     H284063   8.413   6.837   2.267
27941WAT      O84064   5.459   3.010   7.623
27941WAT     H184065   5.428   3.061   7.704
27941WAT     H284066   5.530   3.062   7.576
27942WAT      O84067   7.533   6.309   6.831
27942WAT     H184068   7.555   6.402   6.803
27942WAT     H284069   7.618   6.258   6.847
27943WAT      O84070   2.212   0.366   0.463
27943WAT     H184071   2.203   0.266   0.457
27943WAT     H284072   2.163   0.408   0.386
27944WAT      O84073   5.793   0.363   4.439
27944WAT     H184074   5.746   0.275   4.453
27944WAT     H284075   5.858   0.354   4.364
27945WAT      O84076   2.910   4.960   6.102
27945WAT     H184077   2.963   5.045   6.102
27945WAT     H284078   2.815   4.979   6.076
27946WAT      O84079   6.855   0.492   1.668
27946WAT     H184080   6.762   0.529   1.668
27946WAT     H284081   6.882   0.471   1.762
27947WAT      O84082   7.359   5.737   6.391
27947WAT     H184083   7.333   5.665   6.456
27947WAT     H284084   7.305   5.728   6.307
27948WAT      O84085   0.948   6.347   3.239
27948WAT     H184086   0.933   6.252   3.212
27948WAT     H284087   1.044   6.360   3.264
27949WAT      O84088   0.200   0.658   2.683
27949WAT     H184089   0.122   0.596   2.679
27949WAT     H284090   0.275   0.622   2.628
27950WAT      O84091   1.762   2.040   8.610
27950WAT     H184092   1.774   2.084   8.699
27950WAT     H284093   1.825   2.081   8.544
27951WAT      O84094   7.000   0.457   8.137
27951WAT     H184095   6.969   0.539   8.090
27951WAT     H284096   7.100   0.461   8.149
27952WAT      O84097   7.039   7.228   3.233
27952WAT     H184098   7.089   7.297   3.181
27952WAT     H284099   6.957   7.201   3.182
27953WAT      O84100   2.227   3.562   5.620
27953WAT     H184101   2.242   3.471   5.583
27953WAT     H284102   2.313   3.614   5.617
27954WAT      O84103   8.470   4.557   0.517
27954WAT     H184104   8.501   4.499   0.441
27954WAT     H284105   8.482   4.653   0.492
27955WAT      O84106   0.742   6.711   1.201
27955WAT     H184107   0.792   6.797   1.196
27955WAT     H284108   0.670   6.718   1.270
27956WAT      O84109   3.644   3.139   8.221
27956WAT     H184110   3.629   3.229   8.264
27956WAT     H284111   3.650   3.150   8.122
27957WAT      O84112   6.754   3.933   7.818
27957WAT     H184113   6.705   3.903   7.737
27957WAT     H284114   6.736   4.029   7.835
27958WAT      O84115   0.152   5.075   0.601
27958WAT     H184116   0.073   5.107   0.549
27958WAT     H284117   0.232   5.073   0.542
27959WAT      O84118   7.708   2.222   1.926
27959WAT     H184119   7.712   2.318   1.954
27959WAT     H284120   7.796   2.178   1.942
27960WAT      O84121   7.325   6.200   8.444
27960WAT     H184122   7.323   6.126   8.510
27960WAT     H284123   7.413   6.199   8.395
27961WAT      O84124   6.387   6.781   0.455
27961WAT     H184125   6.460   6.845   0.480
27961WAT     H284126   6.301   6.830   0.445
27962WAT      O84127   7.175   1.825   8.961
27962WAT     H184128   7.245   1.774   9.011
27962WAT     H284129   7.116   1.762   8.911
27963WAT      O84130   1.396   8.460   4.251
27963WAT     H184131   1.363   8.366   4.257
27963WAT     H284132   1.333   8.514   4.197
27964WAT      O84133   5.085   6.338   0.001
27964WAT     H184134   5.112   6.333   0.097
27964WAT     H284135   5.058   6.247  -0.030
27965WAT      O84136   0.313   5.288   2.024
27965WAT     H184137   0.239   5.353   2.042
27965WAT     H284138   0.393   5.313   2.079
27966WAT      O84139   2.773   9.255   3.292
27966WAT     H184140   2.831   9.314   3.236
27966WAT     H284141   2.683   9.245   3.248
27967WAT      O84142   3.539   6.855   2.187
27967WAT     H184143   3.609   6.904   2.239
27967WAT     H284144   3.577   6.768   2.155
27968WAT      O84145   2.949   6.372   5.591
27968WAT     H184146   3.032   6.384   5.535
27968WAT     H284147   2.907   6.284   5.570
27969WAT      O84148   8.036   3.126   5.089
27969WAT     H184149   7.965   3.056   5.084
27969WAT     H284150   7.994   3.216   5.085
27970WAT      O84151   1.275   4.226   2.625
27970WAT     H184152   1.218   4.153   2.663
27970WAT     H284153   1.318   4.277   2.700
27971WAT      O84154   8.091   3.751   8.172
27971WAT     H184155   8.034   3.830   8.197
27971WAT     H284156   8.035   3.669   8.173
27972WAT      O84157   0.107   2.421   2.072
27972WAT     H184158   0.106   2.358   1.994
27972WAT     H284159   0.127   2.514   2.040
27973WAT      O84160   0.882   4.761   4.369
27973WAT     H184161   0.846   4.689   4.429
27973WAT     H284162   0.963   4.802   4.411
27974WAT      O84163   3.718   4.168   8.888
27974WAT     H184164   3.791   4.151   8.822
27974WAT     H284165   3.722   4.099   8.961
27975WAT      O84166   1.746   4.056   3.526
27975WAT     H184167   1.751   4.091   3.432
27975WAT     H284168   1.829   4.005   3.547
27976WAT      O84169   5.653   8.557   1.484
27976WAT     H184170   5.625   8.540   1.390
27976WAT     H284171   5.751   8.538   1.494
27977WAT      O84172   4.477   0.683   5.071
27977WAT     H184173   4.437   0.761   5.121
27977WAT     H284174   4.568   0.664   5.107
27978WAT      O84175   6.161   6.491   3.441
27978WAT     H184176   6.166   6.447   3.531
27978WAT     H284177   6.097   6.440   3.383
27979WAT      O84178   6.864   8.406   7.091
27979WAT     H184179   6.924   8.432   7.166
27979WAT     H284180   6.799   8.480   7.072
27980WAT      O84181   0.387   5.323   8.614
27980WAT     H184182   0.448   5.354   8.686
27980WAT     H284183   0.293   5.350   8.636
27981WAT      O84184   5.588   2.159   1.778
27981WAT     H184185   5.577   2.114   1.866
27981WAT     H284186   5.511   2.137   1.719
27982WAT      O84187   6.866   7.507   3.385
27982WAT     H184188   6.954   7.553   3.400
27982WAT     H284189   6.798   7.574   3.357
27983WAT      O84190   5.645   0.154   7.412
27983WAT     H184191   5.601   0.123   7.328
27983WAT     H284192   5.700   0.080   7.450
27984WAT      O84193   7.689   4.464   1.066
27984WAT     H184194   7.669   4.368   1.085
27984WAT     H284195   7.611   4.505   1.020
27985WAT      O84196   2.175   5.902   1.256
27985WAT     H184197   2.159   5.914   1.158
27985WAT     H284198   2.270   5.925   1.277
27986WAT      O84199   2.228   6.649   6.853
27986WAT     H184200   2.221   6.568   6.910
27986WAT     H284201   2.263   6.725   6.907
27987WAT      O84202   3.007   5.570   7.929
27987WAT     H184203   3.074   5.496   7.929
27987WAT     H284204   2.934   5.549   7.863
27988WAT      O84205   5.731   7.054   8.988
27988WAT     H184206   5.756   6.982   9.053
27988WAT     H284207   5.804   7.065   8.921
27989WAT      O84208   2.143   5.608   9.599
27989WAT     H184209   2.137   5.515   9.564
27989WAT     H284210   2.053   5.652   9.593
27990WAT      O84211   2.014   6.515   6.759
27990WAT     H184212   2.078   6.584   6.793
27990WAT     H284213   2.056   6.425   6.766
27991WAT      O84214   4.160   7.757   2.006
27991WAT     H184215   4.142   7.790   2.099
27991WAT     H284216   4.180   7.659   2.009
27992WAT      O84217   6.904   2.521   7.884
27992WAT     H184218   6.850   2.494   7.964
27992WAT     H284219   6.972   2.589   7.911
27993WAT      O84220   4.158   9.545   2.966
27993WAT     H184221   4.076   9.513   2.919
27993WAT     H284222   4.194   9.625   2.919
27994WAT      O84223   3.088   9.172   6.193
27994WAT     H184224   2.994   9.207   6.200
27994WAT     H284225   3.111   9.159   6.097
27995WAT      O84226   9.773   1.412   9.326
27995WAT     H184227   9.794   1.317   9.347
27995WAT     H284228   9.676   1.420   9.303
27996WAT      O84229   2.692   5.104   1.698
27996WAT     H184230   2.599   5.076   1.723
27996WAT     H284231   2.715   5.190   1.744
27997WAT      O84232   8.777   7.793   2.158
27997WAT     H184233   8.772   7.805   2.059
27997WAT     H284234   8.864   7.828   2.192
27998WAT      O84235   8.624   6.405   5.770
27998WAT     H184236   8.619   6.501   5.744
27998WAT     H284237   8.703   6.390   5.830
27999WAT      O84238   1.386   7.338   5.731
27999WAT     H184239   1.300   7.368   5.690
27999WAT     H284240   1.463   7.373   5.677
28000WAT      O84241   8.485   7.687   5.157
28000WAT     H184242   8.538   7.715   5.077
28000WAT     H284243   8.486   7.588   5.165
28001WAT      O84244   7.591   7.578   1.620
28001WAT     H184245   7.667   7.642   1.610
28001WAT     H284246   7.620   7.486   1.592
28002WAT      O84247   8.092   8.487   2.910
28002WAT     H184248   7.996   8.470   2.886
28002WAT     H284249   8.109   8.456   3.003
28003WAT      O84250   4.845   8.863   4.929
28003WAT     H184251   4.914   8.933   4.946
28003WAT     H284252   4.812   8.826   5.015
28004WAT      O84253   6.405   8.294   8.622
28004WAT     H184254   6.387   8.313   8.718
28004WAT     H284255   6.351   8.216   8.592
28005WAT      O84256   6.909   0.380   5.461
28005WAT     H184257   6.998   0.364   5.504
28005WAT     H284258   6.921   0.391   5.362
28006WAT      O84259   5.155   8.251   5.578
28006WAT     H184260   5.151   8.350   5.573
28006WAT     H284261   5.228   8.223   5.641
28007WAT      O84262   0.390   0.843   2.742
28007WAT     H184263   0.328   0.919   2.760
28007WAT     H284264   0.339   0.757   2.741
28008WAT      O84265   7.825   6.080   1.103
28008WAT     H184266   7.814   6.178   1.121
28008WAT     H284267   7.750   6.049   1.045
28009WAT      O84268   6.493   8.964   9.623
28009WAT     H184269   6.401   9.002   9.634
28009WAT     H284270   6.512   8.898   9.696
28010WAT      O84271   8.789   4.997   5.587
28010WAT     H184272   8.720   4.995   5.660
28010WAT     H284273   8.768   5.072   5.524
28011WAT      O84274   3.803   8.353   3.853
28011WAT     H184275   3.840   8.288   3.787
28011WAT     H284276   3.837   8.445   3.831
28012WAT      O84277   6.743   6.343   5.699
28012WAT     H184278   6.777   6.334   5.792
28012WAT     H284279   6.814   6.314   5.634
28013WAT      O84280   2.151   1.338   4.955
28013WAT     H184281   2.121   1.406   5.022
28013WAT     H284282   2.250   1.347   4.940
28014WAT      O84283   8.997   3.268   9.230
28014WAT     H184284   9.084   3.316   9.236
28014WAT     H284285   8.966   3.267   9.135
28015WAT      O84286   0.659   6.959   7.094
28015WAT     H184287   0.680   6.951   7.191
28015WAT     H284288   0.565   6.930   7.078
28016WAT      O84289   6.151   9.518   5.025
28016WAT     H184290   6.090   9.451   4.982
28016WAT     H284291   6.140   9.607   4.980
28017WAT      O84292   3.377   9.277   7.823
28017WAT     H184293   3.388   9.230   7.911
28017WAT     H284294   3.396   9.213   7.748
28018WAT      O84295   2.654   5.157   4.507
28018WAT     H184296   2.632   5.232   4.445
28018WAT     H284297   2.673   5.074   4.455
28019WAT      O84298   7.673   9.802   3.119
28019WAT     H184299   7.744   9.849   3.066
28019WAT     H284300   7.616   9.870   3.166
28020WAT      O84301   1.959   8.649   0.549
28020WAT     H184302   1.868   8.644   0.506
28020WAT     H284303   2.003   8.735   0.524
28021WAT      O84304   6.474   0.712   4.725
28021WAT     H184305   6.416   0.730   4.805
28021WAT     H284306   6.546   0.781   4.719
28022WAT      O84307   9.718   7.000   3.932
28022WAT     H184308   9.625   7.013   3.964
28022WAT     H284309   9.753   6.912   3.964
28023WAT      O84310   2.252   9.131   1.866
28023WAT     H184311   2.192   9.089   1.798
28023WAT     H284312   2.336   9.162   1.822
28024WAT      O84313   4.845   3.330   2.218
28024WAT     H184314   4.784   3.264   2.262
28024WAT     H284315   4.793   3.412   2.193
28025WAT      O84316   5.113   6.606   7.432
28025WAT     H184317   5.201   6.624   7.474
28025WAT     H284318   5.072   6.692   7.402
28026WAT      O84319   0.614   6.264   4.944
28026WAT     H184320   0.608   6.348   4.890
28026WAT     H284321   0.526   6.217   4.944
28027WAT      O84322   1.585   6.111   6.554
28027WAT     H184323   1.542   6.176   6.616
28027WAT     H284324   1.520   6.084   6.483
28028WAT      O84325   8.915   7.722   2.573
28028WAT     H184326   8.953   7.649   2.630
28028WAT     H284327   8.932   7.810   2.616
28029WAT      O84328   5.943   2.777   8.927
28029WAT     H184329   6.002   2.832   8.985
28029WAT     H284330   5.983   2.686   8.916
28030WAT      O84331   7.780   4.354   7.032
28030WAT     H184332   7.733   4.318   6.951
28030WAT     H284333   7.712   4.379   7.101
28031WAT      O84334   4.408   0.824   3.719
28031WAT     H184335   4.481   0.833   3.787
28031WAT     H284336   4.329   0.779   3.760
28032WAT      O84337   5.891   1.234   9.532
28032WAT     H184338   5.804   1.282   9.521
28032WAT     H284339   5.905   1.172   9.455
28033WAT      O84340   0.151   3.682   5.890
28033WAT     H184341   0.149   3.757   5.957
28033WAT     H284342   0.122   3.597   5.935
28034WAT      O84343   0.822   0.193   0.709
28034WAT     H184344   0.863   0.259   0.771
28034WAT     H284345   0.755   0.238   0.650
28035WAT      O84346   1.347   4.047   9.530
28035WAT     H184347   1.266   4.083   9.577
28035WAT     H284348   1.322   3.963   9.481
28036WAT      O84349   4.664   5.599   4.542
28036WAT     H184350   4.586   5.652   4.577
28036WAT     H284351   4.633   5.540   4.467
28037WAT      O84352   4.650   2.550   6.637
28037WAT     H184353   4.613   2.458   6.634
28037WAT     H284354   4.749   2.547   6.627
28038WAT      O84355   7.852   0.425   9.140
28038WAT     H184356   7.876   0.475   9.057
28038WAT     H284357   7.817   0.489   9.208
28039WAT      O84358   7.549   8.176   7.530
28039WAT     H184359   7.475   8.212   7.587
28039WAT     H284360   7.532   8.079   7.511
28040WAT      O84361   3.573   6.357   3.473
28040WAT     H184362   3.563   6.455   3.493
28040WAT     H284363   3.655   6.343   3.418
28041WAT      O84364   0.861   0.171   2.962
28041WAT     H184365   0.896   0.117   2.885
28041WAT     H284366   0.778   0.219   2.934
28042WAT      O84367   5.123   4.813   0.960
28042WAT     H184368   5.067   4.763   1.026
28042WAT     H284369   5.219   4.794   0.977
28043WAT      O84370   9.244   6.622   5.140
28043WAT     H184371   9.337   6.605   5.173
28043WAT     H284372   9.247   6.684   5.062
28044WAT      O84373   0.360   6.307   9.266
28044WAT     H184374   0.293   6.260   9.209
28044WAT     H284375   0.351   6.276   9.361
28045WAT      O84376   4.672   7.481   0.955
28045WAT     H184377   4.687   7.390   0.994
28045WAT     H284378   4.758   7.519   0.924
28046WAT      O84379   1.243   4.837   4.119
28046WAT     H184380   1.336   4.864   4.095
28046WAT     H284381   1.246   4.763   4.186
28047WAT      O84382   1.492   1.787   5.662
28047WAT     H184383   1.480   1.821   5.568
28047WAT     H284384   1.582   1.812   5.695
28048WAT      O84385   3.794   3.768   7.416
28048WAT     H184386   3.845   3.787   7.500
28048WAT     H284387   3.804   3.672   7.392
28049WAT      O84388   7.506   1.728   3.986
28049WAT     H184389   7.551   1.721   4.075
28049WAT     H284390   7.563   1.780   3.923
28050WAT      O84391   4.717   1.464   0.345
28050WAT     H184392   4.718   1.365   0.350
28050WAT     H284393   4.750   1.503   0.432
28051WAT      O84394   6.889   0.227   6.415
28051WAT     H184395   6.828   0.279   6.475
28051WAT     H284396   6.956   0.288   6.374
28052WAT      O84397   4.033   5.746   5.085
28052WAT     H184398   3.960   5.786   5.140
28052WAT     H284399   4.011   5.650   5.064
28053WAT      O84400   4.489   6.765   8.963
28053WAT     H184401   4.473   6.690   9.028
28053WAT     H284402   4.587   6.779   8.951
28054WAT      O84403   4.245   1.328   8.372
28054WAT     H184404   4.263   1.298   8.279
28054WAT     H284405   4.158   1.290   8.403
28055WAT      O84406   4.749   1.792   1.658
28055WAT     H184407   4.693   1.838   1.727
28055WAT     H284408   4.846   1.801   1.683
28056WAT      O84409   8.942   8.667   5.347
28056WAT     H184410   8.981   8.679   5.438
28056WAT     H284411   8.862   8.608   5.352
28057WAT      O84412   2.605   0.150   6.927
28057WAT     H184413   2.674   0.143   6.856
28057WAT     H284414   2.521   0.188   6.888
28058WAT      O84415   8.943   7.916   3.114
28058WAT     H184416   8.885   7.996   3.096
28058WAT     H284417   9.036   7.937   3.085
28059WAT      O84418   5.210   4.719   6.653
28059WAT     H184419   5.233   4.815   6.638
28059WAT     H284420   5.131   4.694   6.596
28060WAT      O84421   2.235   8.263   5.001
28060WAT     H184422   2.292   8.189   4.966
28060WAT     H284423   2.292   8.329   5.049
28061WAT      O84424   1.496   2.753   7.301
28061WAT     H184425   1.468   2.692   7.227
28061WAT     H284426   1.592   2.778   7.289
28062WAT      O84427   8.816   7.582   4.625
28062WAT     H184428   8.909   7.566   4.659
28062WAT     H284429   8.808   7.548   4.532
28063WAT      O84430   4.870   2.706   6.333
28063WAT     H184431   4.914   2.666   6.413
28063WAT     H284432   4.842   2.800   6.354
28064WAT      O84433   7.377   5.596   9.716
28064WAT     H184434   7.470   5.559   9.711
28064WAT     H284435   7.371   5.678   9.660
28065WAT      O84436   9.674   3.238   7.071
28065WAT     H184437   9.734   3.206   7.145
28065WAT     H284438   9.614   3.163   7.043
28066WAT      O84439   8.011   9.174   5.471
28066WAT     H184440   8.025   9.234   5.550
28066WAT     H284441   7.914   9.148   5.466
28067WAT      O84442   9.811   5.765   0.183
28067WAT     H184443   9.758   5.713   0.250
28067WAT     H284444   9.749   5.809   0.118
28068WAT      O84445   4.128   7.748   9.114
28068WAT     H184446   4.129   7.786   9.207
28068WAT     H284447   4.220   7.754   9.075
28069WAT      O84448   5.947   4.969   3.717
28069WAT     H184449   5.969   5.050   3.662
28069WAT     H284450   5.987   4.888   3.676
28070WAT      O84451   0.432   6.866   3.790
28070WAT     H184452   0.354   6.889   3.848
28070WAT     H284453   0.487   6.795   3.835
28071WAT      O84454   5.341   6.697   6.811
28071WAT     H184455   5.286   6.716   6.892
28071WAT     H284456   5.433   6.736   6.823
28072WAT      O84457   3.101   8.300   2.643
28072WAT     H184458   3.168   8.259   2.581
28072WAT     H284459   3.087   8.239   2.721
28073WAT      O84460   3.720   9.549   2.203
28073WAT     H184461   3.631   9.594   2.204
28073WAT     H284462   3.791   9.617   2.183
28074WAT      O84463   6.825   2.052   8.907
28074WAT     H184464   6.734   2.087   8.931
28074WAT     H284465   6.862   1.999   8.983
28075WAT      O84466   3.583   6.607   3.566
28075WAT     H184467   3.665   6.663   3.551
28075WAT     H284468   3.505   6.667   3.584
28076WAT      O84469   1.637   0.906   9.523
28076WAT     H184470   1.686   0.836   9.471
28076WAT     H284471   1.615   0.983   9.464
28077WAT      O84472   6.026   4.875   2.056
28077WAT     H184473   6.090   4.805   2.090
28077WAT     H284474   5.988   4.925   2.134
28078WAT      O84475   4.868   7.861   5.889
28078WAT     H184476   4.946   7.846   5.949
28078WAT     H284477   4.897   7.855   5.794
28079WAT      O84478   5.246   0.387   4.665
28079WAT     H184479   5.271   0.294   4.693
28079WAT     H284480   5.266   0.398   4.567
28080WAT      O84481   6.873   2.146   3.219
28080WAT     H184482   6.792   2.088   3.232
28080WAT     H284483   6.913   2.167   3.308
28081WAT      O84484   1.131   6.805   1.828
28081WAT     H184485   1.061   6.800   1.900
28081WAT     H284486   1.101   6.752   1.749
28082WAT      O84487   0.387   8.448   1.138
28082WAT     H184488   0.476   8.411   1.162
28082WAT     H284489   0.328   8.449   1.219
28083WAT      O84490   9.874   7.182   8.649
28083WAT     H184491   9.854   7.098   8.699
28083WAT     H284492   9.945   7.165   8.580
28084WAT      O84493   5.337   1.581   5.883
28084WAT     H184494   5.432   1.572   5.914
28084WAT     H284495   5.316   1.506   5.819
28085WAT      O84496   0.443   1.366   1.951
28085WAT     H184497   0.453   1.269   1.930
28085WAT     H284498   0.533   1.406   1.968
28086WAT      O84499   0.078   8.611   2.168
28086WAT     H184500   0.061   8.514   2.154
28086WAT     H284501   0.091   8.630   2.265
28087WAT      O84502   7.361   8.204   4.805
28087WAT     H184503   7.461   8.212   4.802
28087WAT     H284504   7.332   8.136   4.738
28088WAT      O84505   1.739   5.881   6.015
28088WAT     H184506   1.800   5.851   5.941
28088WAT     H284507   1.790   5.939   6.079
28089WAT      O84508   6.840   6.432   4.960
28089WAT     H184509   6.763   6.407   4.901
28089WAT     H284510   6.814   6.510   5.018
28090WAT      O84511   4.833   7.742   3.519
28090WAT     H184512   4.772   7.664   3.520
28090WAT     H284513   4.781   7.825   3.539
28091WAT      O84514   8.552   1.071   7.487
28091WAT     H184515   8.577   1.108   7.397
28091WAT     H284516   8.612   0.994   7.509
28092WAT      O84517   6.134   3.373   9.089
28092WAT     H184518   6.221   3.363   9.041
28092WAT     H284519   6.059   3.351   9.026
28093WAT      O84520   8.929   6.033   0.230
28093WAT     H184521   8.933   6.003   0.135
28093WAT     H284522   8.887   6.124   0.235
28094WAT      O84523   4.977   6.032   7.689
28094WAT     H184524   5.010   6.010   7.781
28094WAT     H284525   5.055   6.043   7.627
28095WAT      O84526   1.676   7.270   0.067
28095WAT     H184527   1.586   7.232   0.092
28095WAT     H284528   1.683   7.276  -0.032
28096WAT      O84529   8.715   5.175   8.094
28096WAT     H184530   8.734   5.271   8.114
28096WAT     H284531   8.653   5.168   8.016
28097WAT      O84532   5.797   7.878   8.882
28097WAT     H184533   5.772   7.781   8.889
28097WAT     H284534   5.774   7.925   8.968
28098WAT      O84535   7.206   6.981   2.039
28098WAT     H184536   7.212   6.913   1.966
28098WAT     H284537   7.278   7.049   2.028
28099WAT      O84538   5.286   8.189   5.332
28099WAT     H184539   5.263   8.219   5.425
28099WAT     H284540   5.215   8.221   5.269
28100WAT      O84541   2.030   0.998   1.300
28100WAT     H184542   1.930   0.998   1.299
28100WAT     H284543   2.063   0.926   1.362
28101WAT      O84544   9.166   4.927   8.192
28101WAT     H184545   9.171   4.873   8.276
28101WAT     H284546   9.241   4.993   8.191
28102WAT      O84547   7.533   2.095   8.943
28102WAT     H184548   7.521   1.999   8.919
28102WAT     H284549   7.607   2.134   8.888
28103WAT      O84550   1.347   9.055   3.841
28103WAT     H184551   1.372   8.959   3.827
28103WAT     H284552   1.284   9.084   3.769
28104WAT      O84553   0.667   3.732   4.479
28104WAT     H184554   0.671   3.642   4.522
28104WAT     H284555   0.580   3.776   4.502
28105WAT      O84556   6.842   0.087   2.677
28105WAT     H184557   6.903   0.166   2.678
28105WAT     H284558   6.781   0.091   2.755
28106WAT      O84559   7.301   6.758   5.475
28106WAT     H184560   7.229   6.712   5.528
28106WAT     H284561   7.298   6.857   5.494
28107WAT      O84562   7.396   4.221   0.113
28107WAT     H184563   7.435   4.191   0.200
28107WAT     H284564   7.304   4.185   0.104
28108WAT      O84565   7.138   7.485   2.082
28108WAT     H184566   7.150   7.423   2.159
28108WAT     H284567   7.042   7.487   2.056
28109WAT      O84568   9.380   9.693   4.169
28109WAT     H184569   9.409   9.718   4.261
28109WAT     H284570   9.316   9.762   4.134
28110WAT      O84571   4.206   0.155   3.148
28110WAT     H184572   4.288   0.104   3.124
28110WAT     H284573   4.231   0.235   3.203
28111WAT      O84574   9.864   5.743   3.756
28111WAT     H184575   9.815   5.818   3.711
28111WAT     H284576   9.958   5.772   3.774
28112WAT      O84577   4.601   7.626   3.811
28112WAT     H184578   4.654   7.589   3.887
28112WAT     H284579   4.569   7.552   3.753
28113WAT      O84580   2.617   3.901   9.787
28113WAT     H184581   2.564   3.822   9.756
28113WAT     H284582   2.607   3.976   9.721
28114WAT      O84583   2.339   4.888   4.525
28114WAT     H184584   2.306   4.796   4.505
28114WAT     H284585   2.267   4.939   4.572
28115WAT      O84586   3.237   3.053   3.475
28115WAT     H184587   3.150   3.007   3.493
28115WAT     H284588   3.224   3.124   3.405
28116WAT      O84589   1.556   1.615   2.852
28116WAT     H184590   1.611   1.535   2.876
28116WAT     H284591   1.585   1.650   2.763
28117WAT      O84592   1.422   0.049   1.950
28117WAT     H184593   1.377   0.075   2.036
28117WAT     H284594   1.412  -0.049   1.935
28118WAT      O84595   7.094   7.822   3.893
28118WAT     H184596   7.086   7.919   3.872
28118WAT     H284597   7.184   7.804   3.933
28119WAT      O84598   4.431   8.898   5.092
28119WAT     H184599   4.514   8.945   5.059
28119WAT     H284600   4.381   8.959   5.153
28120WAT      O84601   5.724   8.019   3.513
28120WAT     H184602   5.797   8.024   3.580
28120WAT     H284603   5.762   7.998   3.423
28121WAT      O84604   5.104   7.873   9.701
28121WAT     H184605   5.104   7.819   9.785
28121WAT     H284606   5.010   7.899   9.678
28122WAT      O84607   7.794   4.535   4.718
28122WAT     H184608   7.867   4.478   4.680
28122WAT     H284609   7.827   4.579   4.802
28123WAT      O84610   6.308   9.511   0.877
28123WAT     H184611   6.278   9.592   0.826
28123WAT     H284612   6.328   9.537   0.971
28124WAT      O84613   1.747   7.278   0.786
28124WAT     H184614   1.735   7.212   0.860
28124WAT     H284615   1.674   7.264   0.718
28125WAT      O84616   3.110   9.606   8.192
28125WAT     H184617   3.021   9.575   8.225
28125WAT     H284618   3.122   9.579   8.097
28126WAT      O84619   6.913   0.441   7.083
28126WAT     H184620   6.869   0.488   7.160
28126WAT     H284621   6.847   0.427   7.010
28127WAT      O84622   6.773   6.279   0.353
28127WAT     H184623   6.837   6.246   0.284
28127WAT     H284624   6.727   6.362   0.319
28128WAT      O84625   3.064   2.695   1.555
28128WAT     H184626   3.142   2.655   1.602
28128WAT     H284627   2.980   2.651   1.587
28129WAT      O84628   5.908   7.321   9.855
28129WAT     H184629   5.851   7.250   9.814
28129WAT     H284630   5.852   7.377   9.917
28130WAT      O84631   1.171   4.513   5.163
28130WAT     H184632   1.089   4.490   5.110
28130WAT     H284633   1.249   4.525   5.101
28131WAT      O84634   1.701   6.777   9.216
28131WAT     H184635   1.639   6.725   9.274
28131WAT     H284636   1.722   6.724   9.134
28132WAT      O84637   3.745   2.425   9.506
28132WAT     H184638   3.767   2.476   9.589
28132WAT     H284639   3.711   2.334   9.531
28133WAT      O84640   4.195   7.122   3.988
28133WAT     H184641   4.181   7.213   3.950
28133WAT     H284642   4.107   7.074   3.993
28134WAT      O84643   9.796   1.659   8.132
28134WAT     H184644   9.874   1.720   8.120
28134WAT     H284645   9.711   1.708   8.112
28135WAT      O84646   6.431   2.901   0.033
28135WAT     H184647   6.496   2.833   0.002
28135WAT     H284648   6.391   2.948  -0.046
28136WAT      O84649   8.757   2.759   0.570
28136WAT     H184650   8.664   2.734   0.543
28136WAT     H284651   8.757   2.851   0.610
28137WAT      O84652   1.542   8.395   2.098
28137WAT     H184653   1.642   8.395   2.092
28137WAT     H284654   1.512   8.472   2.154
28138WAT      O84655   3.399   1.124   7.318
28138WAT     H184656   3.481   1.112   7.262
28138WAT     H284657   3.425   1.166   7.406
28139WAT      O84658   6.712   3.449   3.756
28139WAT     H184659   6.682   3.405   3.672
28139WAT     H284660   6.781   3.392   3.801
28140WAT      O84661   4.624   1.868   5.151
28140WAT     H184662   4.575   1.805   5.211
28140WAT     H284663   4.692   1.817   5.098
28141WAT      O84664   3.098   2.019   7.178
28141WAT     H184665   3.141   1.946   7.231
28141WAT     H284666   3.127   2.107   7.214
28142WAT      O84667   2.896   3.432   8.213
28142WAT     H184668   2.841   3.515   8.210
28142WAT     H284669   2.838   3.352   8.203
28143WAT      O84670   1.016   4.649   6.715
28143WAT     H184671   1.075   4.653   6.635
28143WAT     H284672   0.943   4.717   6.706
28144WAT      O84673   6.096   3.651   5.780
28144WAT     H184674   6.070   3.566   5.735
28144WAT     H284675   6.053   3.728   5.733
28145WAT      O84676   7.994   4.346   8.749
28145WAT     H184677   8.015   4.442   8.728
28145WAT     H284678   7.895   4.334   8.757
28146WAT      O84679   1.558   2.533   4.830
28146WAT     H184680   1.473   2.565   4.873
28146WAT     H284681   1.623   2.506   4.901
28147WAT      O84682   1.147   4.018   5.733
28147WAT     H184683   1.112   4.096   5.682
28147WAT     H284684   1.107   3.934   5.698
28148WAT      O84685   6.305   6.663   9.162
28148WAT     H184686   6.237   6.734   9.178
28148WAT     H284687   6.346   6.635   9.249
28149WAT      O84688   1.992   8.724   1.294
28149WAT     H184689   2.031   8.659   1.229
28149WAT     H284690   1.937   8.674   1.361
28150WAT      O84691   7.368   7.652   9.241
28150WAT     H184692   7.378   7.700   9.329
28150WAT     H284693   7.384   7.716   9.167
28151WAT      O84694   0.116   0.647   6.070
28151WAT     H184695   0.039   0.602   6.023
28151WAT     H284696   0.083   0.687   6.155
28152WAT      O84697   3.205   5.674   4.103
28152WAT     H184698   3.169   5.693   4.011
28152WAT     H284699   3.295   5.715   4.112
28153WAT      O84700   2.955   0.192   6.018
28153WAT     H184701   2.872   0.195   5.963
28153WAT     H284702   3.023   0.132   5.975
28154WAT      O84703   2.012   7.342   2.459
28154WAT     H184704   2.083   7.411   2.473
28154WAT     H284705   2.044   7.274   2.393
28155WAT      O84706   9.110   9.015   0.886
28155WAT     H184707   9.165   8.987   0.807
28155WAT     H284708   9.170   9.034   0.963
28156WAT      O84709   1.969   7.815   5.729
28156WAT     H184710   2.056   7.826   5.681
28156WAT     H284711   1.933   7.723   5.712
28157WAT      O84712   7.067   4.996   1.345
28157WAT     H184713   7.143   4.964   1.289
28157WAT     H284714   7.101   5.028   1.433
28158WAT      O84715   9.378   6.624   0.755
28158WAT     H184716   9.418   6.626   0.663
28158WAT     H284717   9.305   6.555   0.758
28159WAT      O84718   4.915   3.896   4.392
28159WAT     H184719   4.842   3.865   4.453
28159WAT     H284720   4.991   3.932   4.445
28160WAT      O84721   5.450   1.289   8.274
28160WAT     H184722   5.391   1.227   8.326
28160WAT     H284723   5.470   1.248   8.185
28161WAT      O84724   1.882   3.543   7.738
28161WAT     H184725   1.918   3.515   7.827
28161WAT     H284726   1.869   3.642   7.737
28162WAT      O84727   3.626   6.503   8.423
28162WAT     H184728   3.627   6.504   8.523
28162WAT     H284729   3.606   6.410   8.391
28163WAT      O84730   6.345   8.642   2.196
28163WAT     H184731   6.389   8.731   2.208
28163WAT     H284732   6.327   8.602   2.286
28164WAT      O84733   4.409   2.434   0.473
28164WAT     H184734   4.493   2.410   0.522
28164WAT     H284735   4.418   2.410   0.377
28165WAT      O84736   8.146   1.435   7.263
28165WAT     H184737   8.189   1.345   7.271
28165WAT     H284738   8.098   1.457   7.348
28166WAT      O84739   9.096   2.165   4.063
28166WAT     H184740   9.073   2.075   4.025
28166WAT     H284741   9.012   2.218   4.078
28167WAT      O84742   6.376   6.825   9.594
28167WAT     H184743   6.430   6.858   9.517
28167WAT     H284744   6.309   6.895   9.621
28168WAT      O84745   3.933   5.873   4.412
28168WAT     H184746   3.955   5.776   4.422
28168WAT     H284747   3.841   5.882   4.372
28169WAT      O84748   3.550   4.060   3.601
28169WAT     H184749   3.524   4.096   3.512
28169WAT     H284750   3.631   4.110   3.634
28170WAT      O84751   5.692   6.113   4.997
28170WAT     H184752   5.766   6.151   4.942
28170WAT     H284753   5.707   6.015   5.009
28171WAT      O84754   3.936   0.118   1.317
28171WAT     H184755   3.839   0.125   1.340
28171WAT     H284756   3.973   0.034   1.356
28172WAT      O84757   8.956   7.072   5.544
28172WAT     H184758   8.945   7.156   5.596
28172WAT     H284759   9.051   7.040   5.552
28173WAT      O84760   1.432   8.799   3.921
28173WAT     H184761   1.515   8.841   3.959
28173WAT     H284762   1.390   8.742   3.990
28174WAT      O84763   1.998   4.357   8.237
28174WAT     H184764   2.093   4.325   8.234
28174WAT     H284765   1.982   4.420   8.161
28175WAT      O84766   7.972   4.126   2.981
28175WAT     H184767   7.991   4.065   3.058
28175WAT     H284768   7.924   4.208   3.015
28176WAT      O84769   2.545   4.289   2.800
28176WAT     H184770   2.445   4.285   2.797
28176WAT     H284771   2.574   4.381   2.826
28177WAT      O84772   5.435   1.993   0.698
28177WAT     H184773   5.341   1.979   0.730
28177WAT     H284774   5.435   2.009   0.599
28178WAT      O84775   3.607   4.494   7.032
28178WAT     H184776   3.700   4.512   7.063
28178WAT     H284777   3.542   4.540   7.092
28179WAT      O84778   9.512   6.409   1.905
28179WAT     H184779   9.512   6.419   1.805
28179WAT     H284780   9.419   6.391   1.937
28180WAT      O84781   3.423   4.149   2.346
28180WAT     H184782   3.441   4.051   2.340
28180WAT     H284783   3.510   4.199   2.346
28181WAT      O84784   3.383   1.566   1.393
28181WAT     H184785   3.296   1.547   1.437
28181WAT     H284786   3.445   1.488   1.405
28182WAT      O84787   4.286   4.174   4.296
28182WAT     H184788   4.294   4.139   4.203
28182WAT     H284789   4.190   4.188   4.319
28183WAT      O84790   0.624   0.804   3.160
28183WAT     H184791   0.721   0.828   3.162
28183WAT     H284792   0.614   0.707   3.140
28184WAT      O84793   3.954   2.945   9.326
28184WAT     H184794   4.039   2.911   9.366
28184WAT     H284795   3.882   2.877   9.339
28185WAT      O84796   1.997   5.285   4.942
28185WAT     H184797   1.969   5.211   5.003
28185WAT     H284798   2.014   5.368   4.995
28186WAT      O84799   7.008   0.939   7.543
28186WAT     H184800   6.925   0.894   7.579
28186WAT     H284801   7.083   0.873   7.542
28187WAT      O84802   6.683   4.078   3.259
28187WAT     H184803   6.625   4.114   3.333
28187WAT     H284804   6.694   4.148   3.189
28188WAT      O84805   2.191   1.073   0.683
28188WAT     H184806   2.191   1.156   0.629
28188WAT     H284807   2.097   1.040   0.694
28189WAT      O84808   5.753   3.882   3.248
28189WAT     H184809   5.845   3.842   3.236
28189WAT     H284810   5.758   3.981   3.236
28190WAT      O84811   6.026   3.208   7.658
28190WAT     H184812   5.973   3.167   7.732
28190WAT     H284813   6.054   3.137   7.592
28191WAT      O84814   5.329   2.963   1.473
28191WAT     H184815   5.391   2.885   1.486
28191WAT     H284816   5.352   3.035   1.539
28192WAT      O84817   1.851   1.264   9.758
28192WAT     H184818   1.854   1.357   9.795
28192WAT     H284819   1.807   1.204   9.824
28193WAT      O84820   3.455   1.127   9.644
28193WAT     H184821   3.403   1.142   9.728
28193WAT     H284822   3.518   1.050   9.657
28194WAT      O84823   2.293   4.717   1.340
28194WAT     H184824   2.392   4.724   1.349
28194WAT     H284825   2.270   4.664   1.259
28195WAT      O84826   5.782   6.573   8.719
28195WAT     H184827   5.789   6.493   8.659
28195WAT     H284828   5.817   6.550   8.809
28196WAT      O84829   2.297   6.682   6.479
28196WAT     H184830   2.302   6.601   6.537
28196WAT     H284831   2.206   6.687   6.436
28197WAT      O84832   1.812   7.558   9.662
28197WAT     H184833   1.768   7.476   9.625
28197WAT     H284834   1.858   7.536   9.748
28198WAT      O84835   4.319   7.261   6.369
28198WAT     H184836   4.282   7.318   6.443
28198WAT     H284837   4.414   7.237   6.390
28199WAT      O84838   1.009   3.435   4.530
28199WAT     H184839   1.097   3.481   4.517
28199WAT     H284840   0.947   3.497   4.578
28200WAT      O84841   7.823   4.206   0.769
28200WAT     H184842   7.793   4.143   0.698
28200WAT     H284843   7.831   4.298   0.731
28201WAT      O84844   1.398   9.558   4.775
28201WAT     H184845   1.360   9.641   4.814
28201WAT     H284846   1.337   9.481   4.794
28202WAT      O84847   2.463   5.380   9.241
28202WAT     H184848   2.445   5.456   9.304
28202WAT     H284849   2.492   5.417   9.152
28203WAT      O84850   7.485   8.969   0.289
28203WAT     H184851   7.558   8.909   0.321
28203WAT     H284852   7.400   8.917   0.281
28204WAT      O84853   5.743   4.499   0.424
28204WAT     H184854   5.647   4.478   0.404
28204WAT     H284855   5.788   4.417   0.460
28205WAT      O84856   6.908   8.216   8.784
28205WAT     H184857   6.869   8.228   8.875
28205WAT     H284858   6.841   8.245   8.715
28206WAT      O84859   8.720   2.367   0.466
28206WAT     H184860   8.633   2.414   0.458
28206WAT     H284861   8.770   2.372   0.379
28207WAT      O84862   5.071   2.809   4.789
28207WAT     H184863   5.156   2.848   4.755
28207WAT     H284864   5.004   2.882   4.803
28208WAT      O84865   5.833   1.711   5.520
28208WAT     H184866   5.785   1.642   5.466
28208WAT     H284867   5.797   1.710   5.614
28209WAT      O84868   2.183   4.442   0.469
28209WAT     H184869   2.094   4.484   0.484
28209WAT     H284870   2.187   4.406   0.376
28210WAT      O84871   0.220   7.729   5.325
28210WAT     H184872   0.202   7.695   5.417
28210WAT     H284873   0.163   7.810   5.308
28211WAT      O84874   9.184   8.160   1.428
28211WAT     H184875   9.268   8.114   1.455
28211WAT     H284876   9.116   8.091   1.402
28212WAT      O84877   1.336   0.429   7.796
28212WAT     H184878   1.265   0.487   7.755
28212WAT     H284879   1.416   0.485   7.818
28213WAT      O84880   2.352   1.423   7.601
28213WAT     H184881   2.304   1.503   7.635
28213WAT     H284882   2.297   1.377   7.532
28214WAT      O84883   8.284   8.677   1.034
28214WAT     H184884   8.225   8.600   1.011
28214WAT     H284885   8.235   8.740   1.094
28215WAT      O84886   3.659   1.826   0.443
28215WAT     H184887   3.589   1.778   0.494
28215WAT     H284888   3.741   1.769   0.437
28216WAT      O84889   9.771   7.006   6.050
28216WAT     H184890   9.821   6.975   6.131
28216WAT     H284891   9.752   6.927   5.991
28217WAT      O84892   4.689   6.966   6.003
28217WAT     H184893   4.781   6.949   5.967
28217WAT     H284894   4.636   7.017   5.935
28218WAT      O84895   1.154   9.721   0.540
28218WAT     H184896   1.141   9.808   0.587
28218WAT     H284897   1.070   9.696   0.491
28219WAT      O84898   1.690   4.335   0.158
28219WAT     H184899   1.714   4.399   0.085
28219WAT     H284900   1.659   4.249   0.118
28220WAT      O84901   0.408   9.356   1.967
28220WAT     H184902   0.339   9.376   2.037
28220WAT     H284903   0.430   9.439   1.917
28221WAT      O84904   7.932   2.450   9.603
28221WAT     H184905   7.944   2.358   9.640
28221WAT     H284906   7.848   2.491   9.640
28222WAT      O84907   5.373   8.188   0.014
28222WAT     H184908   5.417   8.261   0.068
28222WAT     H284909   5.439   8.151  -0.052
28223WAT      O84910   1.886   2.730   9.255
28223WAT     H184911   1.847   2.818   9.277
28223WAT     H284912   1.985   2.740   9.240
28224WAT      O84913   5.437   9.724   2.696
28224WAT     H184914   5.496   9.657   2.650
28224WAT     H284915   5.418   9.693   2.789
28225WAT      O84916   4.495   2.404   9.778
28225WAT     H184917   4.549   2.450   9.849
28225WAT     H284918   4.511   2.449   9.690
28226WAT      O84919   3.565   3.276   4.748
28226WAT     H184920   3.603   3.322   4.829
28226WAT     H284921   3.563   3.177   4.764
28227WAT      O84922   3.843   1.320   4.811
28227WAT     H184923   3.834   1.222   4.825
28227WAT     H284924   3.833   1.341   4.714
28228WAT      O84925   3.274   4.039   6.827
28228WAT     H184926   3.220   4.009   6.748
28228WAT     H284927   3.258   3.977   6.904
28229WAT      O84928   5.963   3.755   9.358
28229WAT     H184929   5.866   3.764   9.380
28229WAT     H284930   5.973   3.707   9.271
28230WAT      O84931   9.686   5.273   3.883
28230WAT     H184932   9.610   5.215   3.855
28230WAT     H284933   9.688   5.355   3.827
28231WAT      O84934   8.923   3.534   2.914
28231WAT     H184935   8.989   3.609   2.917
28231WAT     H284936   8.954   3.465   2.849
28232WAT      O84937   7.392   9.769   6.727
28232WAT     H184938   7.294   9.782   6.742
28232WAT     H284939   7.433   9.728   6.809
28233WAT      O84940   6.745   1.541   1.949
28233WAT     H184941   6.762   1.554   2.047
28233WAT     H284942   6.670   1.601   1.920
28234WAT      O84943   5.446   3.312   7.763
28234WAT     H184944   5.386   3.320   7.683
28234WAT     H284945   5.513   3.386   7.761
28235WAT      O84946   5.686   0.074   6.256
28235WAT     H184947   5.651   0.159   6.297
28235WAT     H284948   5.680   0.079   6.157
28236WAT      O84949   7.948   4.031   8.151
28236WAT     H184950   8.046   4.045   8.165
28236WAT     H284951   7.909   3.988   8.232
28237WAT      O84952   1.772   3.409   4.168
28237WAT     H184953   1.713   3.417   4.249
28237WAT     H284954   1.866   3.392   4.197
28238WAT      O84955   9.248   6.759   2.022
28238WAT     H184956   9.211   6.711   2.103
28238WAT     H284957   9.233   6.857   2.032
28239WAT      O84958   9.202   1.837   8.367
28239WAT     H184959   9.237   1.773   8.436
28239WAT     H284960   9.235   1.810   8.277
28240WAT      O84961   9.244   8.535   5.641
28240WAT     H184962   9.309   8.515   5.713
28240WAT     H284963   9.164   8.475   5.650
28241WAT      O84964   5.663   8.870   5.312
28241WAT     H184965   5.718   8.822   5.244
28241WAT     H284966   5.706   8.958   5.333
28242WAT      O84967   3.335   0.057   6.935
28242WAT     H184968   3.334   0.102   6.846
28242WAT     H284969   3.246   0.070   6.980
28243WAT      O84970   7.980   8.224   3.830
28243WAT     H184971   7.954   8.231   3.734
28243WAT     H284972   7.955   8.309   3.877
28244WAT      O84973   3.339   6.654   8.274
28244WAT     H184974   3.416   6.616   8.222
28244WAT     H284975   3.350   6.753   8.281
28245WAT      O84976   6.282   8.996   1.715
28245WAT     H184977   6.204   8.942   1.685
28245WAT     H284978   6.319   9.049   1.639
28246WAT      O84979   9.428   4.951   6.059
28246WAT     H184980   9.379   5.036   6.074
28246WAT     H284981   9.377   4.875   6.100
28247WAT      O84982   4.667   8.912   3.747
28247WAT     H184983   4.676   8.830   3.803
28247WAT     H284984   4.733   8.909   3.672
28248WAT      O84985   7.682   6.114   1.806
28248WAT     H184986   7.656   6.148   1.896
28248WAT     H284987   7.779   6.130   1.791
28249WAT      O84988   9.088   0.830   1.729
28249WAT     H184989   9.103   0.926   1.752
28249WAT     H284990   8.990   0.811   1.723
28250WAT      O84991   3.096   9.809   9.315
28250WAT     H184992   3.110   9.712   9.333
28250WAT     H284993   3.006   9.837   9.347
28251WAT      O84994   7.829   7.845   3.343
28251WAT     H184995   7.822   7.901   3.261
28251WAT     H284996   7.924   7.818   3.357
28252WAT      O84997   1.829   1.414   5.562
28252WAT     H184998   1.770   1.458   5.495
28252WAT     H284999   1.866   1.483   5.625
28253WAT      O85000   0.191   2.643   7.973
28253WAT     H185001   0.247   2.669   7.894
28253WAT     H285002   0.248   2.597   8.041
28254WAT      O85003   6.947   8.873   8.159
28254WAT     H185004   6.853   8.907   8.155
28254WAT     H285005   6.988   8.898   8.246
28255WAT      O85006   5.248   4.784   4.546
28255WAT     H185007   5.315   4.813   4.613
28255WAT     H285008   5.292   4.774   4.457
28256WAT      O85009   3.345   7.250   4.755
28256WAT     H185010   3.445   7.253   4.760
28256WAT     H285011   3.315   7.298   4.673
28257WAT      O85012   4.403   8.563   3.071
28257WAT     H185013   4.430   8.642   3.016
28257WAT     H285014   4.463   8.555   3.150
28258WAT      O85015   9.033   3.593   8.484
28258WAT     H185016   9.016   3.527   8.410
28258WAT     H285017   9.132   3.610   8.491
28259WAT      O85018   8.571   8.433   2.706
28259WAT     H185019   8.560   8.366   2.633
28259WAT     H285020   8.481   8.464   2.737
28260WAT      O85021   0.557   6.400   7.923
28260WAT     H185022   0.481   6.338   7.944
28260WAT     H285023   0.596   6.376   7.834
28261WAT      O85024   4.406   4.171   3.091
28261WAT     H185025   4.437   4.090   3.140
28261WAT     H285026   4.344   4.224   3.150
28262WAT      O85027   2.137   9.160   4.314
28262WAT     H185028   2.229   9.149   4.275
28262WAT     H285029   2.076   9.093   4.272
28263WAT      O85030   8.468   6.815   7.829
28263WAT     H185031   8.467   6.780   7.735
28263WAT     H285032   8.560   6.806   7.867
28264WAT      O85033   6.108   4.762   3.310
28264WAT     H185034   6.068   4.738   3.398
28264WAT     H285035   6.204   4.788   3.322
28265WAT      O85036   9.627   4.822   6.296
28265WAT     H185037   9.596   4.841   6.203
28265WAT     H285038   9.598   4.730   6.323
28266WAT      O85039   4.313   1.368   5.527
28266WAT     H185040   4.216   1.346   5.516
28266WAT     H285041   4.368   1.308   5.468
28267WAT      O85042   6.817   8.251   8.290
28267WAT     H185043   6.799   8.325   8.354
28267WAT     H285044   6.800   8.282   8.196
28268WAT      O85045   6.753   7.269   7.036
28268WAT     H185046   6.656   7.243   7.028
28268WAT     H285047   6.801   7.202   7.093
28269WAT      O85048   6.899   5.079   2.673
28269WAT     H185049   6.844   5.134   2.610
28269WAT     H285050   6.975   5.038   2.623
28270WAT      O85051   2.114   2.174   5.847
28270WAT     H185052   2.201   2.188   5.800
28270WAT     H285053   2.042   2.225   5.799
28271WAT      O85054   2.284   6.771   3.050
28271WAT     H185055   2.341   6.777   3.131
28271WAT     H285056   2.337   6.732   2.975
28272WAT      O85057   3.740   2.897   2.515
28272WAT     H185058   3.688   2.849   2.445
28272WAT     H285059   3.836   2.904   2.486
28273WAT      O85060   6.700   2.593   6.624
28273WAT     H185061   6.758   2.513   6.607
28273WAT     H285062   6.692   2.647   6.540
28274WAT      O85063   8.517   3.747   4.637
28274WAT     H185064   8.479   3.805   4.564
28274WAT     H285065   8.616   3.741   4.627
28275WAT      O85066   8.009   6.314   5.487
28275WAT     H185067   7.910   6.329   5.481
28275WAT     H285068   8.028   6.253   5.564
28276WAT      O85069   6.342   8.896   7.402
28276WAT     H185070   6.335   8.845   7.488
28276WAT     H285071   6.266   8.871   7.342
28277WAT      O85072   0.556   0.693   4.882
28277WAT     H185073   0.574   0.788   4.859
28277WAT     H285074   0.481   0.687   4.948
28278WAT      O85075   3.490   0.533   1.101
28278WAT     H185076   3.407   0.587   1.116
28278WAT     H285077   3.481   0.444   1.145
28279WAT      O85078   7.323   1.897   6.830
28279WAT     H185079   7.354   1.823   6.890
28279WAT     H285080   7.311   1.980   6.885
28280WAT      O85081   8.134   3.297   3.699
28280WAT     H185082   8.147   3.245   3.783
28280WAT     H285083   8.055   3.359   3.710
28281WAT      O85084   6.139   0.108   9.728
28281WAT     H185085   6.180   0.066   9.809
28281WAT     H285086   6.211   0.146   9.670
28282WAT      O85087   8.061   6.053   2.061
28282WAT     H185088   8.002   6.068   1.982
28282WAT     H285089   8.144   6.108   2.052
28283WAT      O85090   3.060   4.533   5.471
28283WAT     H185091   3.005   4.483   5.404
28283WAT     H285092   3.154   4.540   5.438
28284WAT      O85093   5.908   2.644   3.409
28284WAT     H185094   5.860   2.710   3.351
28284WAT     H285095   5.899   2.552   3.370
28285WAT      O85096   3.968   6.329   3.098
28285WAT     H185097   3.910   6.395   3.049
28285WAT     H285098   4.061   6.365   3.104
28286WAT      O85099   3.663   6.642   8.954
28286WAT     H185100   3.688   6.660   9.049
28286WAT     H285101   3.745   6.641   8.897
28287WAT      O85102   6.313   7.232   6.450
28287WAT     H185103   6.221   7.259   6.477
28287WAT     H285104   6.312   7.196   6.357
28288WAT      O85105   1.063   7.698   3.426
28288WAT     H185106   1.099   7.654   3.508
28288WAT     H285107   1.108   7.786   3.414
28289WAT      O85108   3.015   3.249   0.343
28289WAT     H185109   3.106   3.282   0.317
28289WAT     H285110   3.019   3.151   0.361
28290WAT      O85111   1.398   6.062   7.910
28290WAT     H185112   1.417   6.126   7.836
28290WAT     H285113   1.308   6.083   7.950
28291WAT      O85114   4.639   5.866   9.639
28291WAT     H185115   4.649   5.804   9.717
28291WAT     H285116   4.621   5.959   9.671
28292WAT      O85117   2.810   8.278   0.199
28292WAT     H185118   2.735   8.279   0.133
28292WAT     H285119   2.775   8.248   0.288
28293WAT      O85120   6.030   0.418   7.702
28293WAT     H185121   5.936   0.387   7.689
28293WAT     H285122   6.031   0.516   7.717
28294WAT      O85123   4.298   2.840   2.347
28294WAT     H185124   4.319   2.820   2.251
28294WAT     H285125   4.213   2.891   2.353
28295WAT      O85126   6.559   0.875   5.848
28295WAT     H185127   6.515   0.921   5.771
28295WAT     H285128   6.613   0.941   5.900
28296WAT      O85129   5.720   6.302   8.113
28296WAT     H185130   5.699   6.323   8.018
28296WAT     H285131   5.748   6.385   8.161
28297WAT      O85132   3.359   5.163   7.411
28297WAT     H185133   3.399   5.221   7.482
28297WAT     H285134   3.411   5.174   7.326
28298WAT      O85135   8.057   0.094   2.472
28298WAT     H185136   8.053   0.012   2.415
28298WAT     H285137   8.113   0.163   2.427
28299WAT      O85138   7.845   3.327   5.524
28299WAT     H185139   7.785   3.257   5.488
28299WAT     H285140   7.886   3.379   5.449
28300WAT      O85141   8.432   6.405   5.301
28300WAT     H185142   8.433   6.316   5.254
28300WAT     H285143   8.379   6.398   5.385
28301WAT      O85144   7.638   1.094   9.465
28301WAT     H185145   7.723   1.047   9.486
28301WAT     H285146   7.659   1.180   9.418
28302WAT      O85147   0.219   1.332   0.742
28302WAT     H185148   0.129   1.374   0.727
28302WAT     H285149   0.207   1.237   0.772
28303WAT      O85150   3.868   5.599   6.643
28303WAT     H185151   3.833   5.685   6.679
28303WAT     H285152   3.791   5.537   6.624
28304WAT      O85153   2.557   7.155   7.180
28304WAT     H185154   2.629   7.161   7.111
28304WAT     H285155   2.566   7.231   7.244
28305WAT      O85156   6.458   3.189   0.430
28305WAT     H185157   6.369   3.151   0.456
28305WAT     H285158   6.462   3.198   0.330
28306WAT      O85159   3.545   5.208   6.090
28306WAT     H185160   3.628   5.249   6.052
28306WAT     H285161   3.563   5.112   6.113
28307WAT      O85162   7.672   3.088   3.550
28307WAT     H185163   7.746   3.021   3.554
28307WAT     H285164   7.673   3.134   3.461
28308WAT      O85165   2.952   3.064   5.143
28308WAT     H185166   2.853   3.075   5.144
28308WAT     H285167   2.989   3.106   5.060
28309WAT      O85168   3.520   3.868   5.375
28309WAT     H185169   3.515   3.967   5.365
28309WAT     H285170   3.522   3.845   5.473
28310WAT      O85171   8.803   4.166   3.154
28310WAT     H185172   8.866   4.141   3.228
28310WAT     H285173   8.732   4.096   3.145
28311WAT      O85174   2.024   1.716   9.063
28311WAT     H185175   1.946   1.769   9.095
28311WAT     H285176   2.058   1.755   8.977
28312WAT      O85177   8.807   5.285   2.595
28312WAT     H185178   8.820   5.377   2.632
28312WAT     H285179   8.834   5.285   2.498
28313WAT      O85180   0.274   5.621   5.411
28313WAT     H185181   0.267   5.521   5.406
28313WAT     H285182   0.370   5.648   5.407
28314WAT      O85183   5.513   8.338   8.197
28314WAT     H185184   5.553   8.420   8.237
28314WAT     H285185   5.438   8.306   8.254
28315WAT      O85186   6.047   8.405   8.476
28315WAT     H185187   5.954   8.434   8.450
28315WAT     H285188   6.045   8.366   8.568
28316WAT      O85189   8.886   2.534   3.461
28316WAT     H185190   8.973   2.535   3.410
28316WAT     H285191   8.820   2.476   3.412
28317WAT      O85192   7.841   4.123   1.024
28317WAT     H185193   7.836   4.170   0.937
28317WAT     H285194   7.756   4.137   1.075
28318WAT      O85195   5.357   3.247   4.113
28318WAT     H185196   5.356   3.276   4.018
28318WAT     H285197   5.452   3.239   4.144
28319WAT      O85198   9.005   7.051   7.234
28319WAT     H185199   8.941   7.049   7.311
28319WAT     H285200   9.094   7.084   7.266
28320WAT      O85201   7.666   5.305   1.909
28320WAT     H185202   7.638   5.380   1.969
28320WAT     H285203   7.646   5.331   1.814
28321WAT      O85204   7.091   5.796   7.697
28321WAT     H185205   7.184   5.761   7.690
28321WAT     H285206   7.085   5.856   7.777
28322WAT      O85207   2.478   6.174   3.022
28322WAT     H185208   2.560   6.132   3.060
28322WAT     H285209   2.484   6.175   2.922
28323WAT      O85210   3.375   3.787   1.891
28323WAT     H185211   3.421   3.746   1.812
28323WAT     H285212   3.414   3.751   1.975
28324WAT      O85213   0.480   5.585   9.272
28324WAT     H185214   0.462   5.487   9.266
28324WAT     H285215   0.569   5.605   9.230
28325WAT      O85216   7.025   4.796   1.930
28325WAT     H185217   7.037   4.842   2.018
28325WAT     H285218   6.933   4.756   1.925
28326WAT      O85219   3.052   1.994   6.179
28326WAT     H185220   3.114   2.042   6.241
28326WAT     H285221   3.069   1.896   6.184
28327WAT      O85222   3.284   8.859   2.799
28327WAT     H185223   3.329   8.799   2.733
28327WAT     H285224   3.221   8.804   2.855
28328WAT      O85225   1.156   8.670   9.495
28328WAT     H185226   1.211   8.725   9.558
28328WAT     H285227   1.148   8.717   9.407
28329WAT      O85228   2.043   1.609   4.071
28329WAT     H185229   2.026   1.582   4.165
28329WAT     H285230   2.135   1.648   4.063
28330WAT      O85231   8.259   9.327   1.811
28330WAT     H185232   8.166   9.357   1.789
28330WAT     H285233   8.280   9.352   1.906
28331WAT      O85234   3.948   2.500   5.952
28331WAT     H185235   3.894   2.560   5.893
28331WAT     H285236   3.981   2.552   6.031
28332WAT      O85237   4.984   6.327   9.231
28332WAT     H185238   5.022   6.309   9.321
28332WAT     H285239   4.951   6.422   9.227
28333WAT      O85240   8.934   8.496   0.505
28333WAT     H185241   9.013   8.550   0.478
28333WAT     H285242   8.949   8.457   0.596
28334WAT      O85243   9.628   5.875   0.511
28334WAT     H185244   9.675   5.790   0.490
28334WAT     H285245   9.535   5.855   0.542
28335WAT      O85246   4.137   3.839   1.633
28335WAT     H185247   4.136   3.929   1.590
28335WAT     H285248   4.047   3.821   1.674
28336WAT      O85249   4.601   7.372   9.889
28336WAT     H185250   4.549   7.451   9.856
28336WAT     H285251   4.546   7.321   9.955
28337WAT      O85252   2.095   1.273   1.320
28337WAT     H185253   2.012   1.325   1.296
28337WAT     H285254   2.071   1.177   1.334
28338WAT      O85255   2.353   3.135   1.590
28338WAT     H185256   2.407   3.194   1.532
28338WAT     H285257   2.256   3.156   1.578
28339WAT      O85258   6.196   1.793   2.422
28339WAT     H185259   6.279   1.819   2.471
28339WAT     H285260   6.125   1.861   2.440
28340WAT      O85261   7.946   6.998   7.084
28340WAT     H185262   8.006   7.005   7.004
28340WAT     H285263   8.002   6.997   7.167
28341WAT      O85264   0.755   0.613   7.580
28341WAT     H185265   0.807   0.635   7.662
28341WAT     H285266   0.737   0.696   7.528
28342WAT      O85267   1.536   9.582   7.642
28342WAT     H185268   1.600   9.569   7.567
28342WAT     H285269   1.561   9.521   7.718
28343WAT      O85270   2.183   4.784   6.910
28343WAT     H185271   2.104   4.834   6.947
28343WAT     H285272   2.259   4.791   6.975
28344WAT      O85273   0.529   2.554   9.769
28344WAT     H185274   0.481   2.640   9.751
28344WAT     H285275   0.628   2.569   9.765
28345WAT      O85276   4.356   3.740   3.412
28345WAT     H185277   4.404   3.711   3.496
28345WAT     H285278   4.297   3.818   3.433
28346WAT      O85279   2.681   4.540   4.953
28346WAT     H185280   2.716   4.633   4.945
28346WAT     H285281   2.722   4.482   4.883
28347WAT      O85282   0.425   0.110   8.105
28347WAT     H185283   0.472   0.137   8.021
28347WAT     H285284   0.341   0.163   8.114
28348WAT      O85285   7.367   1.453   1.222
28348WAT     H185286   7.458   1.460   1.262
28348WAT     H285287   7.298   1.482   1.289
28349WAT      O85288   8.596   4.635   3.198
28349WAT     H185289   8.628   4.543   3.176
28349WAT     H285290   8.672   4.700   3.187
28350WAT      O85291   2.978   2.649   3.224
28350WAT     H185292   3.029   2.563   3.219
28350WAT     H285293   3.042   2.726   3.217
28351WAT      O85294   0.030   5.595   7.431
28351WAT     H185295  -0.047   5.656   7.452
28351WAT     H285296   0.113   5.633   7.470
28352WAT      O85297   8.714   4.371   2.702
28352WAT     H185298   8.813   4.382   2.689
28352WAT     H285299   8.693   4.275   2.720
28353WAT      O85300   3.680   0.096   1.426
28353WAT     H185301   3.604   0.095   1.362
28353WAT     H285302   3.662   0.162   1.499
28354WAT      O85303   7.996   9.189   0.705
28354WAT     H185304   8.040   9.253   0.643
28354WAT     H285305   7.900   9.215   0.716
28355WAT      O85306   8.678   8.339   4.122
28355WAT     H185307   8.627   8.258   4.152
28355WAT     H285308   8.776   8.318   4.118
28356WAT      O85309   6.366   7.132   4.225
28356WAT     H185310   6.306   7.150   4.147
28356WAT     H285311   6.455   7.174   4.209
28357WAT      O85312   1.028   7.919   6.952
28357WAT     H185313   1.073   7.880   7.032
28357WAT     H285314   1.088   7.986   6.909
28358WAT      O85315   4.320   6.379   4.495
28358WAT     H185316   4.226   6.345   4.506
28358WAT     H285317   4.382   6.320   4.546
28359WAT      O85318   5.724   3.433   4.176
28359WAT     H185319   5.693   3.371   4.104
28359WAT     H285320   5.694   3.526   4.155
28360WAT      O85321   2.401   3.645   0.746
28360WAT     H185322   2.471   3.710   0.778
28360WAT     H285323   2.445   3.559   0.720
28361WAT      O85324   3.296   5.193   4.623
28361WAT     H185325   3.205   5.155   4.643
28361WAT     H285326   3.321   5.171   4.529
28362WAT      O85327   7.631   6.403   6.222
28362WAT     H185328   7.668   6.449   6.302
28362WAT     H285329   7.601   6.471   6.154
28363WAT      O85330   5.771   6.615   6.392
28363WAT     H185331   5.717   6.561   6.457
28363WAT     H285332   5.711   6.654   6.322
28364WAT      O85333   8.987   0.406   9.763
28364WAT     H185334   8.942   0.328   9.806
28364WAT     H285335   8.924   0.451   9.701
28365WAT      O85336   5.378   2.508   4.686
28365WAT     H185337   5.438   2.458   4.623
28365WAT     H285338   5.300   2.451   4.710
28366WAT      O85339   9.843   4.626   5.136
28366WAT     H185340   9.937   4.620   5.169
28366WAT     H285341   9.831   4.710   5.085
28367WAT      O85342   6.302   2.796   4.831
28367WAT     H185343   6.328   2.765   4.922
28367WAT     H285344   6.238   2.730   4.791
28368WAT      O85345   1.897   0.418   3.930
28368WAT     H185346   1.986   0.454   3.904
28368WAT     H285347   1.859   0.365   3.854
28369WAT      O85348   2.364   7.315   6.610
28369WAT     H185349   2.420   7.363   6.542
28369WAT     H285350   2.268   7.322   6.584
28370WAT      O85351   1.786   4.183   8.273
28370WAT     H185352   1.720   4.232   8.331
28370WAT     H285353   1.862   4.244   8.251
28371WAT      O85354   9.622   0.686   7.677
28371WAT     H185355   9.586   0.625   7.606
28371WAT     H285356   9.584   0.659   7.766
28372WAT      O85357   9.790   2.761   6.251
28372WAT     H185358   9.853   2.832   6.283
28372WAT     H285359   9.710   2.757   6.312
28373WAT      O85360   7.488   4.212   4.081
28373WAT     H185361   7.479   4.118   4.048
28373WAT     H285362   7.581   4.225   4.117
28374WAT      O85363   8.606   2.593   7.114
28374WAT     H185364   8.550   2.537   7.052
28374WAT     H285365   8.560   2.681   7.129
28375WAT      O85366   7.685   4.764   0.535
28375WAT     H185367   7.669   4.683   0.478
28375WAT     H285368   7.697   4.735   0.630
28376WAT      O85369   9.760   6.096   7.166
28376WAT     H185370   9.798   6.115   7.076
28376WAT     H285371   9.825   6.126   7.236
28377WAT      O85372   1.589   7.007   9.128
28377WAT     H185373   1.653   7.082   9.143
28377WAT     H285374   1.630   6.921   9.161
28378WAT      O85375   5.542   9.059   9.550
28378WAT     H185376   5.465   9.121   9.559
28378WAT     H285377   5.619   9.092   9.605
28379WAT      O85378   6.483   0.519   4.268
28379WAT     H185379   6.531   0.448   4.216
28379WAT     H285380   6.542   0.553   4.341
28380WAT      O85381   2.828   5.820   3.034
28380WAT     H185382   2.878   5.764   3.100
28380WAT     H285383   2.817   5.912   3.070
28381WAT      O85384   2.288   6.130   2.733
28381WAT     H185385   2.388   6.131   2.742
28381WAT     H285386   2.254   6.038   2.751
28382WAT      O85387   2.828   3.258   1.451
28382WAT     H185388   2.850   3.171   1.406
28382WAT     H285389   2.766   3.310   1.392
28383WAT      O85390   6.011   7.796   5.105
28383WAT     H185391   6.061   7.873   5.144
28383WAT     H285392   6.060   7.711   5.124
28384WAT      O85393   8.500   8.364   6.827
28384WAT     H185394   8.463   8.272   6.835
28384WAT     H285395   8.544   8.375   6.738
28385WAT      O85396   1.715   5.989   5.723
28385WAT     H185397   1.736   6.051   5.799
28385WAT     H285398   1.796   5.935   5.701
28386WAT      O85399   5.322   1.364   3.330
28386WAT     H185400   5.397   1.326   3.276
28386WAT     H285401   5.258   1.411   3.269
28387WAT      O85402   1.304   8.887   1.834
28387WAT     H185403   1.317   8.804   1.780
28387WAT     H285404   1.224   8.876   1.894
28388WAT      O85405   4.151   8.050   8.637
28388WAT     H185406   4.173   7.953   8.627
28388WAT     H285407   4.172   8.098   8.551
28389WAT      O85408   4.427   0.489   6.237
28389WAT     H185409   4.413   0.434   6.319
28389WAT     H285410   4.447   0.429   6.159
28390WAT      O85411   3.270   5.042   8.266
28390WAT     H185412   3.170   5.043   8.255
28390WAT     H285413   3.304   5.136   8.265
28391WAT      O85414   2.241   6.888   6.082
28391WAT     H185415   2.228   6.885   6.181
28391WAT     H285416   2.180   6.956   6.042
28392WAT      O85417   4.368   4.834   2.136
28392WAT     H185418   4.379   4.790   2.225
28392WAT     H285419   4.431   4.794   2.070
28393WAT      O85420   0.959   2.337   5.588
28393WAT     H185421   1.047   2.369   5.621
28393WAT     H285422   0.886   2.390   5.631
28394WAT      O85423   7.732   6.204   3.262
28394WAT     H185424   7.648   6.174   3.217
28394WAT     H285425   7.786   6.123   3.288
28395WAT      O85426   1.693   1.812   6.817
28395WAT     H185427   1.718   1.849   6.727
28395WAT     H285428   1.673   1.887   6.879
28396WAT      O85429   0.766   1.823   9.587
28396WAT     H185430   0.708   1.836   9.506
28396WAT     H285431   0.857   1.795   9.558
28397WAT      O85432   4.767   8.983   6.378
28397WAT     H185433   4.683   8.962   6.428
28397WAT     H285434   4.750   8.978   6.280
28398WAT      O85435   3.293   4.893   0.347
28398WAT     H185436   3.198   4.906   0.316
28398WAT     H285437   3.346   4.976   0.328
28399WAT      O85438   9.052   7.973   2.571
28399WAT     H185439   9.074   7.907   2.643
28399WAT     H285440   9.071   7.932   2.481
28400WAT      O85441   4.202   4.381   4.822
28400WAT     H185442   4.289   4.364   4.775
28400WAT     H285443   4.219   4.436   4.903
28401WAT      O85444   7.953   3.866   1.034
28401WAT     H185445   7.915   3.958   1.026
28401WAT     H285446   7.882   3.798   1.016
28402WAT      O85447   0.193   2.220   4.496
28402WAT     H185448   0.111   2.274   4.510
28402WAT     H285449   0.273   2.271   4.529
28403WAT      O85450   1.343   8.544   6.451
28403WAT     H185451   1.259   8.581   6.490
28403WAT     H285452   1.353   8.448   6.477
28404WAT      O85453   7.584   3.853   0.675
28404WAT     H185454   7.525   3.875   0.753
28404WAT     H285455   7.645   3.930   0.657
28405WAT      O85456   6.585   0.864   2.657
28405WAT     H185457   6.668   0.919   2.650
28405WAT     H285458   6.534   0.891   2.739
28406WAT      O85459   7.092   7.584   0.895
28406WAT     H185460   7.050   7.510   0.842
28406WAT     H285461   7.187   7.560   0.917
28407WAT      O85462   3.506   7.020   9.327
28407WAT     H185463   3.573   6.948   9.311
28407WAT     H285464   3.542   7.085   9.394
28408WAT      O85465   3.264   0.489   7.014
28408WAT     H185466   3.336   0.472   6.947
28408WAT     H285467   3.210   0.568   6.984
28409WAT      O85468   9.411   6.827   5.984
28409WAT     H185469   9.359   6.814   5.899
28409WAT     H285470   9.462   6.913   5.979
28410WAT      O85471   3.527   9.410   9.349
28410WAT     H185472   3.498   9.333   9.293
28410WAT     H285473   3.624   9.431   9.331
28411WAT      O85474   5.339   7.404   2.327
28411WAT     H185475   5.306   7.324   2.276
28411WAT     H285476   5.433   7.424   2.299
28412WAT      O85477   6.044   9.589   6.369
28412WAT     H185478   5.955   9.619   6.335
28412WAT     H285479   6.031   9.515   6.435
28413WAT      O85480   4.535   3.404   9.071
28413WAT     H185481   4.467   3.471   9.101
28413WAT     H285482   4.493   3.313   9.065
28414WAT      O85483   1.303   0.227   7.968
28414WAT     H185484   1.210   0.196   7.953
28414WAT     H285485   1.318   0.312   7.919
28415WAT      O85486   7.463   3.125   6.782
28415WAT     H185487   7.372   3.122   6.741
28415WAT     H285488   7.477   3.213   6.827
28416WAT      O85489   9.419   0.351   6.256
28416WAT     H185490   9.425   0.435   6.202
28416WAT     H285491   9.490   0.351   6.326
28417WAT      O85492   6.658   8.030   4.625
28417WAT     H185493   6.651   8.064   4.719
28417WAT     H285494   6.676   8.106   4.563
28418WAT      O85495   8.126   2.749   8.309
28418WAT     H185496   8.191   2.673   8.316
28418WAT     H285497   8.176   2.833   8.287
28419WAT      O85498   1.709   9.223   4.474
28419WAT     H185499   1.762   9.271   4.544
28419WAT     H285500   1.613   9.218   4.503
28420WAT      O85501   4.313   9.294   9.589
28420WAT     H185502   4.256   9.268   9.667
28420WAT     H285503   4.260   9.351   9.526
28421WAT      O85504   8.553   8.780   8.016
28421WAT     H185505   8.631   8.717   8.023
28421WAT     H285506   8.581   8.871   8.047
28422WAT      O85507   2.439   6.700   9.282
28422WAT     H185508   2.348   6.672   9.311
28422WAT     H285509   2.438   6.727   9.186
28423WAT      O85510   3.834   8.352   9.215
28423WAT     H185511   3.840   8.252   9.217
28423WAT     H285512   3.773   8.383   9.288
28424WAT      O85513   1.519   6.485   9.141
28424WAT     H185514   1.459   6.416   9.182
28424WAT     H285515   1.603   6.493   9.195
28425WAT      O85516   6.348   4.056   1.442
28425WAT     H185517   6.301   4.066   1.355
28425WAT     H285518   6.305   3.982   1.495
28426WAT      O85519   0.437   7.967   3.955
28426WAT     H185520   0.348   7.943   3.995
28426WAT     H285521   0.440   7.938   3.859
28427WAT      O85522   8.431   1.138   8.652
28427WAT     H185523   8.527   1.168   8.654
28427WAT     H285524   8.418   1.067   8.721
28428WAT      O85525   5.727   3.349   6.886
28428WAT     H185526   5.767   3.301   6.964
28428WAT     H285527   5.773   3.436   6.874
28429WAT      O85528   2.367   3.331   0.973
28429WAT     H185529   2.299   3.405   0.975
28429WAT     H285530   2.430   3.346   0.897
28430WAT      O85531   7.292   4.585   0.573
28430WAT     H185532   7.285   4.683   0.558
28430WAT     H285533   7.383   4.563   0.611
28431WAT      O85534   7.070   2.307   2.256
28431WAT     H185535   7.104   2.229   2.203
28431WAT     H285536   7.064   2.281   2.352
28432WAT      O85537   0.660   8.800   3.687
28432WAT     H185538   0.640   8.736   3.613
28432WAT     H285539   0.577   8.850   3.711
28433WAT      O85540   8.365   8.884   4.138
28433WAT     H185541   8.307   8.842   4.068
28433WAT     H285542   8.400   8.813   4.199
28434WAT      O85543   1.461   0.561   2.140
28434WAT     H185544   1.496   0.613   2.218
28434WAT     H285545   1.410   0.622   2.080
28435WAT      O85546   4.924   9.084   0.075
28435WAT     H185547   4.963   9.174   0.057
28435WAT     H285548   4.981   9.014   0.032
28436WAT      O85549   9.552   0.830   9.751
28436WAT     H185550   9.636   0.777   9.738
28436WAT     H285551   9.554   0.871   9.842
28437WAT      O85552   3.276   9.035   5.082
28437WAT     H185553   3.217   8.988   5.149
28437WAT     H285554   3.222   9.104   5.033
28438WAT      O85555   1.641   6.921   5.559
28438WAT     H185556   1.731   6.963   5.548
28438WAT     H285557   1.584   6.978   5.618
28439WAT      O85558   0.013   5.186   9.402
28439WAT     H185559   0.056   5.269   9.438
28439WAT     H285560  -0.025   5.133   9.478
28440WAT      O85561   0.986   3.677   9.015
28440WAT     H185562   0.914   3.674   8.945
28440WAT     H285563   0.967   3.608   9.085
28441WAT      O85564   9.253   6.376   9.741
28441WAT     H185565   9.283   6.417   9.827
28441WAT     H285566   9.261   6.442   9.667
28442WAT      O85567   6.403   2.198   2.834
28442WAT     H185568   6.419   2.150   2.920
28442WAT     H285569   6.391   2.296   2.851
28443WAT      O85570   0.879   3.931   4.139
28443WAT     H185571   0.884   3.924   4.238
28443WAT     H285572   0.970   3.915   4.100
28444WAT      O85573   8.056   6.124   1.502
28444WAT     H185574   8.150   6.158   1.500
28444WAT     H285575   7.995   6.190   1.457
28445WAT      O85576   1.043   2.491   5.927
28445WAT     H185577   1.081   2.574   5.886
28445WAT     H285578   0.975   2.516   5.996
28446WAT      O85579   6.950   6.446   8.444
28446WAT     H185580   6.999   6.514   8.498
28446WAT     H285581   6.871   6.488   8.399
28447WAT      O85582   5.846   1.412   1.088
28447WAT     H185583   5.761   1.360   1.080
28447WAT     H285584   5.920   1.351   1.115
28448WAT      O85585   1.293   0.314   0.241
28448WAT     H185586   1.388   0.289   0.225
28448WAT     H285587   1.237   0.232   0.246
28449WAT      O85588   8.155   2.228   3.909
28449WAT     H185589   8.179   2.245   4.005
28449WAT     H285590   8.230   2.256   3.850
28450WAT      O85591   5.582   9.266   0.566
28450WAT     H185592   5.553   9.202   0.495
28450WAT     H285593   5.601   9.216   0.650
28451WAT      O85594   0.539   7.698   4.282
28451WAT     H185595   0.576   7.774   4.335
28451WAT     H285596   0.462   7.657   4.331
28452WAT      O85597   0.597   2.915   7.012
28452WAT     H185598   0.622   2.818   7.016
28452WAT     H285599   0.589   2.942   6.916
28453WAT      O85600   9.135   8.155   2.146
28453WAT     H185601   9.198   8.224   2.182
28453WAT     H285602   9.176   8.109   2.068
28454WAT      O85603   1.765   4.255   7.553
28454WAT     H185604   1.816   4.172   7.533
28454WAT     H285605   1.815   4.309   7.621
28455WAT      O85606   0.236   3.711   6.261
28455WAT     H185607   0.175   3.769   6.207
28455WAT     H285608   0.293   3.769   6.320
28456WAT      O85609   0.532   7.419   7.361
28456WAT     H185610   0.436   7.393   7.370
28456WAT     H285611   0.542   7.487   7.288
28457WAT      O85612   3.242   4.672   3.066
28457WAT     H185613   3.221   4.749   3.125
28457WAT     H285614   3.341   4.664   3.054
28458WAT      O85615   2.732   1.783   5.685
28458WAT     H185616   2.723   1.685   5.701
28458WAT     H285617   2.825   1.812   5.705
28459WAT      O85618   7.526   1.833   8.894
28459WAT     H185619   7.569   1.757   8.942
28459WAT     H285620   7.508   1.807   8.799
28460WAT      O85621   7.433   0.825   0.407
28460WAT     H185622   7.505   0.823   0.337
28460WAT     H285623   7.362   0.890   0.379
28461WAT      O85624   9.862   4.235   8.811
28461WAT     H185625   9.945   4.280   8.843
28461WAT     H285626   9.842   4.265   8.718
28462WAT      O85627   8.166   7.635   5.477
28462WAT     H185628   8.161   7.643   5.377
28462WAT     H285629   8.257   7.661   5.508
28463WAT      O85630   5.943   4.594   7.684
28463WAT     H185631   5.984   4.516   7.731
28463WAT     H285632   5.868   4.562   7.626
28464WAT      O85633   2.954   4.063   8.750
28464WAT     H185634   2.995   3.975   8.727
28464WAT     H285635   2.966   4.127   8.674
28465WAT      O85636   0.945   6.905   1.215
28465WAT     H185637   0.930   6.933   1.120
28465WAT     H285638   0.941   6.986   1.274
28466WAT      O85639   9.071   7.706   7.182
28466WAT     H185640   9.131   7.627   7.177
28466WAT     H285641   9.077   7.759   7.097
28467WAT      O85642   5.927   7.884   5.773
28467WAT     H185643   6.003   7.881   5.708
28467WAT     H285644   5.884   7.794   5.778
28468WAT      O85645   7.451   8.750   6.165
28468WAT     H185646   7.416   8.709   6.249
28468WAT     H285647   7.376   8.763   6.100
28469WAT      O85648   4.013   9.425   5.259
28469WAT     H185649   3.988   9.521   5.268
28469WAT     H285650   4.047   9.391   5.347
28470WAT      O85651   1.838   3.357   6.539
28470WAT     H185652   1.865   3.448   6.569
28470WAT     H285653   1.751   3.331   6.583
28471WAT      O85654   3.134   2.355   4.803
28471WAT     H185655   3.170   2.430   4.857
28471WAT     H285656   3.035   2.367   4.791
28472WAT      O85657   1.880   4.491   6.429
28472WAT     H185658   1.955   4.448   6.478
28472WAT     H285659   1.811   4.524   6.494
28473WAT      O85660   7.567   7.203   7.495
28473WAT     H185661   7.618   7.173   7.575
28473WAT     H285662   7.629   7.246   7.430
28474WAT      O85663   5.884   7.619   4.863
28474WAT     H185664   5.885   7.540   4.924
28474WAT     H285665   5.796   7.666   4.870
28475WAT      O85666   4.237   6.895   5.088
28475WAT     H185667   4.281   6.807   5.068
28475WAT     H285668   4.280   6.936   5.169
28476WAT      O85669   6.772   1.261   3.787
28476WAT     H185670   6.827   1.178   3.777
28476WAT     H285671   6.677   1.241   3.761
28477WAT      O85672   1.676   8.002   4.479
28477WAT     H185673   1.677   7.937   4.403
28477WAT     H285674   1.758   7.989   4.535
28478WAT      O85675   7.867   3.156   8.010
28478WAT     H185676   7.830   3.144   8.102
28478WAT     H285677   7.792   3.172   7.946
28479WAT      O85678   6.253   2.446   5.125
28479WAT     H185679   6.191   2.383   5.078
28479WAT     H285680   6.320   2.393   5.178
28480WAT      O85681   7.767   7.638   7.331
28480WAT     H185682   7.727   7.729   7.336
28480WAT     H285683   7.752   7.600   7.239
28481WAT      O85684   9.712   0.864   8.609
28481WAT     H185685   9.697   0.948   8.661
28481WAT     H285686   9.625   0.815   8.599
28482WAT      O85687   4.973   0.723   0.840
28482WAT     H185688   5.020   0.661   0.903
28482WAT     H285689   4.915   0.670   0.778
28483WAT      O85690   1.949   4.276   8.952
28483WAT     H185691   1.884   4.247   8.881
28483WAT     H285692   2.031   4.218   8.948
28484WAT      O85693   8.901   6.708   7.064
28484WAT     H185694   8.907   6.808   7.056
28484WAT     H285695   8.980   6.674   7.115
28485WAT      O85696   5.894   9.638   8.388
28485WAT     H185697   5.982   9.675   8.358
28485WAT     H285698   5.822   9.706   8.373
28486WAT      O85699   6.395   4.031   7.816
28486WAT     H185700   6.426   4.040   7.722
28486WAT     H285701   6.384   4.122   7.856
28487WAT      O85702   5.165   9.356   6.880
28487WAT     H185703   5.129   9.354   6.787
28487WAT     H285704   5.175   9.263   6.915
28488WAT      O85705   9.417   3.074   0.127
28488WAT     H185706   9.474   3.059   0.047
28488WAT     H285707   9.383   2.986   0.160
28489WAT      O85708   0.313   8.603   6.246
28489WAT     H185709   0.401   8.567   6.214
28489WAT     H285710   0.239   8.555   6.200
28490WAT      O85711   8.864   9.059   6.566
28490WAT     H185712   8.813   8.975   6.545
28490WAT     H285713   8.802   9.129   6.600
28491WAT      O85714   8.594   9.455   2.916
28491WAT     H185715   8.603   9.399   2.833
28491WAT     H285716   8.663   9.527   2.916
28492WAT      O85717   0.627   0.230   3.992
28492WAT     H185718   0.673   0.153   4.037
28492WAT     H285719   0.630   0.216   3.893
28493WAT      O85720   9.857   2.760   7.860
28493WAT     H185721   9.952   2.729   7.864
28493WAT     H285722   9.849   2.834   7.793
28494WAT      O85723   6.311   0.007   1.436
28494WAT     H185724   6.349   0.044   1.352
28494WAT     H285725   6.375   0.021   1.511
28495WAT      O85726   0.907   0.726   2.009
28495WAT     H185727   0.928   0.702   1.914
28495WAT     H285728   0.973   0.682   2.070
28496WAT      O85729   0.894   4.189   8.398
28496WAT     H185730   0.852   4.209   8.486
28496WAT     H285731   0.830   4.135   8.342
28497WAT      O85732   5.651   7.828   1.001
28497WAT     H185733   5.652   7.846   0.902
28497WAT     H285734   5.744   7.820   1.035
28498WAT      O85735   4.066   4.909   2.391
28498WAT     H185736   4.011   4.846   2.336
28498WAT     H285737   4.007   4.977   2.434
28499WAT      O85738   5.290   4.101   7.391
28499WAT     H185739   5.382   4.140   7.382
28499WAT     H285740   5.242   4.146   7.466
28500WAT      O85741   8.641   4.853   2.385
28500WAT     H185742   8.644   4.754   2.369
28500WAT     H285743   8.546   4.885   2.383
28501WAT      O85744   6.930   1.115   6.577
28501WAT     H185745   7.016   1.126   6.626
28501WAT     H285746   6.856   1.158   6.630
28502WAT      O85747   4.317   6.517   5.277
28502WAT     H185748   4.324   6.450   5.350
28502WAT     H285749   4.325   6.609   5.316
28503WAT      O85750   8.349   3.831   8.126
28503WAT     H185751   8.396   3.768   8.064
28503WAT     H285752   8.252   3.835   8.103
28504WAT      O85753   8.107   5.832   9.755
28504WAT     H185754   8.151   5.759   9.808
28504WAT     H285755   8.175   5.877   9.697
28505WAT      O85756   0.445   1.877   5.421
28505WAT     H185757   0.355   1.899   5.384
28505WAT     H285758   0.436   1.852   5.518
28506WAT      O85759   0.571   5.549   8.179
28506WAT     H185760   0.578   5.521   8.275
28506WAT     H285761   0.484   5.594   8.164
28507WAT      O85762   1.689   8.307   9.399
28507WAT     H185763   1.627   8.281   9.473
28507WAT     H285764   1.699   8.406   9.398
28508WAT      O85765   6.417   0.250   7.744
28508WAT     H185766   6.336   0.191   7.738
28508WAT     H285767   6.393   0.342   7.715
28509WAT      O85768   2.991   6.631   6.809
28509WAT     H185769   2.916   6.565   6.804
28509WAT     H285770   3.078   6.584   6.800
28510WAT      O85771   8.311   6.627   5.919
28510WAT     H185772   8.214   6.622   5.944
28510WAT     H285773   8.356   6.541   5.946
28511WAT      O85774   9.241   1.152   8.070
28511WAT     H185775   9.169   1.191   8.011
28511WAT     H285776   9.293   1.084   8.018
28512WAT      O85777   8.207   8.783   9.719
28512WAT     H185778   8.272   8.859   9.716
28512WAT     H285779   8.117   8.816   9.746
28513WAT      O85780   1.261   2.941   3.089
28513WAT     H185781   1.268   3.040   3.076
28513WAT     H285782   1.169   2.918   3.120
28514WAT      O85783   4.867   6.290   8.662
28514WAT     H185784   4.965   6.295   8.678
28514WAT     H285785   4.839   6.194   8.655
28515WAT      O85786   4.817   9.296   1.360
28515WAT     H185787   4.789   9.377   1.412
28515WAT     H285788   4.816   9.317   1.263
28516WAT      O85789   8.399   1.419   9.884
28516WAT     H185790   8.394   1.319   9.883
28516WAT     H285791   8.363   1.454   9.970
28517WAT      O85792   0.133   9.130   8.060
28517WAT     H185793   0.161   9.222   8.088
28517WAT     H285794   0.035   9.120   8.075
28518WAT      O85795   6.175   8.168   2.053
28518WAT     H185796   6.270   8.173   2.083
28518WAT     H285797   6.128   8.095   2.104
28519WAT      O85798   1.678   7.672   1.911
28519WAT     H185799   1.663   7.605   1.839
28519WAT     H285800   1.617   7.653   1.988
28520WAT      O85801   8.848   2.261   0.013
28520WAT     H185802   8.817   2.273  -0.081
28520WAT     H285803   8.809   2.176   0.050
28521WAT      O85804   9.347   2.640   0.854
28521WAT     H185805   9.422   2.573   0.848
28521WAT     H285806   9.382   2.731   0.835
28522WAT      O85807   4.672   0.244   1.836
28522WAT     H185808   4.692   0.157   1.881
28522WAT     H285809   4.574   0.249   1.817
28523WAT      O85810   9.020   7.830   5.857
28523WAT     H185811   9.013   7.801   5.953
28523WAT     H285812   9.100   7.888   5.845
28524WAT      O85813   8.112   1.584   5.094
28524WAT     H185814   8.131   1.636   5.177
28524WAT     H285815   8.071   1.645   5.026
28525WAT      O85816   5.746   6.268   2.938
28525WAT     H185817   5.786   6.360   2.930
28525WAT     H285818   5.711   6.239   2.850
28526WAT      O85819   7.193   0.699   7.517
28526WAT     H185820   7.289   0.720   7.539
28526WAT     H285821   7.171   0.607   7.549
28527WAT      O85822   3.190   6.008   7.511
28527WAT     H185823   3.158   5.956   7.590
28527WAT     H285824   3.138   5.981   7.430
28528WAT      O85825   9.660   9.154   9.574
28528WAT     H185826   9.752   9.133   9.540
28528WAT     H285827   9.665   9.171   9.673
28529WAT      O85828   5.755   3.366   5.541
28529WAT     H185829   5.788   3.352   5.634
28529WAT     H285830   5.723   3.279   5.504
28530WAT      O85831   0.020   3.509   7.693
28530WAT     H185832   0.098   3.462   7.734
28530WAT     H285833   0.005   3.475   7.600
28531WAT      O85834   6.655   1.888   1.060
28531WAT     H185835   6.628   1.804   1.014
28531WAT     H285836   6.755   1.892   1.066
28532WAT      O85837   9.790   4.458   6.574
28532WAT     H185838   9.732   4.535   6.599
28532WAT     H285839   9.781   4.439   6.477
28533WAT      O85840   9.752   7.430   0.288
28533WAT     H185841   9.728   7.527   0.295
28533WAT     H285842   9.779   7.409   0.194
28534WAT      O85843   2.324   6.684   1.203
28534WAT     H185844   2.356   6.698   1.109
28534WAT     H285845   2.352   6.762   1.259
28535WAT      O85846   5.608   3.404   8.288
28535WAT     H185847   5.635   3.359   8.373
28535WAT     H285848   5.551   3.484   8.310
28536WAT      O85849   6.496   2.458   0.116
28536WAT     H185850   6.498   2.453   0.016
28536WAT     H285851   6.402   2.474   0.146
28537WAT      O85852   2.804   5.376   2.555
28537WAT     H185853   2.891   5.330   2.535
28537WAT     H285854   2.735   5.308   2.578
28538WAT      O85855   7.520   4.149   7.038
28538WAT     H185856   7.586   4.160   6.963
28538WAT     H285857   7.504   4.237   7.081
28539WAT      O85858   9.074   4.510   3.061
28539WAT     H185859   9.139   4.439   3.033
28539WAT     H285860   9.123   4.597   3.071
28540WAT      O85861   7.892   6.312   4.181
28540WAT     H185862   7.985   6.295   4.213
28540WAT     H285863   7.866   6.242   4.114
28541WAT      O85864   3.223   1.108   8.211
28541WAT     H185865   3.160   1.051   8.264
28541WAT     H285866   3.201   1.101   8.114
28542WAT      O85867   2.382   8.892   7.832
28542WAT     H185868   2.352   8.978   7.790
28542WAT     H285869   2.437   8.912   7.913
28543WAT      O85870   0.631   8.060   5.616
28543WAT     H185871   0.576   8.131   5.659
28543WAT     H285872   0.578   7.976   5.611
28544WAT      O85873   4.917   0.511   3.406
28544WAT     H185874   4.930   0.593   3.350
28544WAT     H285875   4.883   0.537   3.496
28545WAT      O85876   1.094   9.589   9.489
28545WAT     H185877   1.076   9.496   9.519
28545WAT     H285878   1.185   9.617   9.521
28546WAT      O85879   2.261   6.937   6.379
28546WAT     H185880   2.256   6.844   6.416
28546WAT     H285881   2.216   7.000   6.441
28547WAT      O85882   5.819   9.338   9.590
28547WAT     H185883   5.791   9.351   9.685
28547WAT     H285884   5.749   9.376   9.529
28548WAT      O85885   0.239   9.509   2.518
28548WAT     H185886   0.173   9.577   2.484
28548WAT     H285887   0.221   9.490   2.614
28549WAT      O85888   7.492   0.861   4.536
28549WAT     H185889   7.559   0.935   4.529
28549WAT     H285890   7.447   0.866   4.625
28550WAT      O85891   0.536   5.917   1.755
28550WAT     H185892   0.604   5.943   1.686
28550WAT     H285893   0.570   5.839   1.807
28551WAT      O85894   3.225   0.954   4.020
28551WAT     H185895   3.247   0.858   4.038
28551WAT     H285896   3.247   1.010   4.100
28552WAT      O85897   3.428   7.592   9.138
28552WAT     H185898   3.351   7.527   9.146
28552WAT     H285899   3.417   7.645   9.054
28553WAT      O85900   6.186   3.912   9.417
28553WAT     H185901   6.113   3.852   9.384
28553WAT     H285902   6.183   3.998   9.367
28554WAT      O85903   8.007   2.600   7.167
28554WAT     H185904   7.974   2.550   7.086
28554WAT     H285905   7.986   2.547   7.249
28555WAT      O85906   4.880   8.595   6.851
28555WAT     H185907   4.801   8.578   6.792
28555WAT     H285908   4.849   8.632   6.938
28556WAT      O85909   8.290   4.937   0.183
28556WAT     H185910   8.384   4.922   0.212
28556WAT     H285911   8.284   5.023   0.132
28557WAT      O85912   7.302   6.264   6.966
28557WAT     H185913   7.226   6.280   6.904
28557WAT     H285914   7.389   6.277   6.917
28558WAT      O85915   0.361   5.366   9.744
28558WAT     H185916   0.264   5.341   9.744
28558WAT     H285917   0.377   5.437   9.813
28559WAT      O85918   2.366   9.786   8.866
28559WAT     H185919   2.305   9.862   8.889
28559WAT     H285920   2.418   9.759   8.948
28560WAT      O85921   9.029   5.796   0.355
28560WAT     H185922   9.052   5.811   0.451
28560WAT     H285923   8.967   5.868   0.323
28561WAT      O85924   9.032   2.817   3.121
28561WAT     H185925   8.958   2.756   3.149
28561WAT     H285926   9.042   2.813   3.021
28562WAT      O85927   9.215   6.849   4.560
28562WAT     H185928   9.159   6.893   4.490
28562WAT     H285929   9.295   6.807   4.518
28563WAT      O85930   4.517   9.211   4.836
28563WAT     H185931   4.559   9.146   4.901
28563WAT     H285932   4.567   9.297   4.839
28564WAT      O85933   2.785   9.140   1.301
28564WAT     H185934   2.772   9.239   1.293
28564WAT     H285935   2.857   9.122   1.368
28565WAT      O85936   9.313   7.691   9.050
28565WAT     H185937   9.263   7.654   8.971
28565WAT     H285938   9.337   7.786   9.033
28566WAT      O85939   5.754   0.391   8.287
28566WAT     H185940   5.825   0.379   8.217
28566WAT     H285941   5.694   0.467   8.261
28567WAT      O85942   3.395   7.692   8.229
28567WAT     H185943   3.363   7.786   8.240
28567WAT     H285944   3.348   7.649   8.152
28568WAT      O85945   9.036   5.611   2.847
28568WAT     H185946   9.063   5.625   2.942
28568WAT     H285947   9.118   5.611   2.789
28569WAT      O85948   0.873   3.605   6.757
28569WAT     H185949   0.817   3.554   6.691
28569WAT     H285950   0.957   3.554   6.776
28570WAT      O85951   3.103   3.032   7.891
28570WAT     H185952   3.079   3.087   7.971
28570WAT     H285953   3.121   3.092   7.813
28571WAT      O85954   2.474   2.062   0.852
28571WAT     H185955   2.433   2.134   0.795
28571WAT     H285956   2.523   2.105   0.928
28572WAT      O85957   4.449   8.353   4.415
28572WAT     H185958   4.526   8.412   4.389
28572WAT     H285959   4.383   8.406   4.467
28573WAT      O85960   4.089   2.203   2.135
28573WAT     H185961   4.106   2.297   2.104
28573WAT     H285962   4.026   2.158   2.072
28574WAT      O85963   0.327   8.169   9.094
28574WAT     H185964   0.308   8.102   9.167
28574WAT     H285965   0.258   8.241   9.096
28575WAT      O85966   0.863   1.668   6.464
28575WAT     H185967   0.820   1.752   6.429
28575WAT     H285968   0.906   1.687   6.552
28576WAT      O85969   5.445   2.529   2.958
28576WAT     H185970   5.382   2.555   3.031
28576WAT     H285971   5.404   2.456   2.903
28577WAT      O85972   8.488   3.472   5.916
28577WAT     H185973   8.444   3.429   5.994
28577WAT     H285974   8.503   3.404   5.844
28578WAT      O85975   4.084   6.779   2.665
28578WAT     H185976   4.037   6.782   2.577
28578WAT     H285977   4.037   6.715   2.726
28579WAT      O85978   9.870   2.306   5.312
28579WAT     H185979   9.968   2.320   5.297
28579WAT     H285980   9.857   2.233   5.379
28580WAT      O85981   9.040   5.803   0.643
28580WAT     H185982   9.037   5.823   0.741
28580WAT     H285983   8.949   5.776   0.612
28581WAT      O85984   9.167   4.325   0.297
28581WAT     H185985   9.080   4.280   0.277
28581WAT     H285986   9.185   4.319   0.395
28582WAT      O85987   1.474   4.245   8.757
28582WAT     H185988   1.415   4.319   8.790
28582WAT     H285989   1.419   4.177   8.708
28583WAT      O85990   9.433   0.325   1.851
28583WAT     H185991   9.385   0.276   1.778
28583WAT     H285992   9.484   0.260   1.907
28584WAT      O85993   5.573   4.984   2.703
28584WAT     H185994   5.520   4.905   2.733
28584WAT     H285995   5.512   5.054   2.668
28585WAT      O85996   1.998   3.236   5.382
28585WAT     H185997   1.968   3.189   5.465
28585WAT     H285998   1.923   3.289   5.344
28586WAT      O85999   3.708   7.954   7.797
28586WAT     H186000   3.622   8.002   7.779
28586WAT     H286001   3.712   7.930   7.894
28587WAT      O86002   1.381   1.852   4.532
28587WAT     H186003   1.467   1.877   4.488
28587WAT     H286004   1.330   1.789   4.474
28588WAT      O86005   0.088   8.533   4.316
28588WAT     H186006   0.060   8.492   4.402
28588WAT     H286007   0.151   8.472   4.269
28589WAT      O86008   8.403   7.698   7.375
28589WAT     H186009   8.380   7.649   7.291
28589WAT     H286010   8.499   7.728   7.371
28590WAT      O86011   6.836   2.031   8.161
28590WAT     H186012   6.810   1.946   8.205
28590WAT     H286013   6.761   2.062   8.101
28591WAT      O86014   4.956   5.516   6.171
28591WAT     H186015   4.873   5.471   6.204
28591WAT     H286016   4.933   5.608   6.138
28592WAT      O86017   4.681   0.612   9.114
28592WAT     H186018   4.705   0.565   9.029
28592WAT     H286019   4.727   0.701   9.116
28593WAT      O86020   6.722   6.091   0.572
28593WAT     H186021   6.709   6.157   0.499
28593WAT     H286022   6.808   6.041   0.558
28594WAT      O86023   1.594   8.621   8.246
28594WAT     H186024   1.673   8.675   8.217
28594WAT     H286025   1.625   8.530   8.272
28595WAT      O86026   7.416   4.915   2.103
28595WAT     H186027   7.395   4.840   2.041
28595WAT     H286028   7.492   4.968   2.067
28596WAT      O86029   7.754   6.582   5.865
28596WAT     H186030   7.658   6.560   5.852
28596WAT     H286031   7.785   6.640   5.790
28597WAT      O86032   4.185   4.180   8.371
28597WAT     H186033   4.228   4.265   8.403
28597WAT     H286034   4.092   4.199   8.341
28598WAT      O86035   8.627   7.517   8.356
28598WAT     H186036   8.572   7.538   8.275
28598WAT     H286037   8.720   7.493   8.328
28599WAT      O86038   8.418   0.040   0.355
28599WAT     H186039   8.403  -0.037   0.418
28599WAT     H286040   8.335   0.094   0.348
28600WAT      O86041   2.656   0.154   3.537
28600WAT     H186042   2.745   0.120   3.506
28600WAT     H286043   2.668   0.206   3.621
28601WAT      O86044   0.584   1.292   4.629
28601WAT     H186045   0.673   1.270   4.590
28601WAT     H286046   0.540   1.209   4.662
28602WAT      O86047   9.741   2.076   6.532
28602WAT     H186048   9.751   2.019   6.451
28602WAT     H286049   9.807   2.151   6.528
28603WAT      O86050   2.280   6.430   6.620
28603WAT     H186051   2.356   6.488   6.650
28603WAT     H286052   2.249   6.374   6.697
28604WAT      O86053   6.168   6.367   6.056
28604WAT     H186054   6.159   6.465   6.075
28604WAT     H286055   6.259   6.349   6.020
28605WAT      O86056   7.221   5.228   0.078
28605WAT     H186057   7.211   5.221  -0.021
28605WAT     H286058   7.141   5.274   0.116
28606WAT      O86059   6.195   6.942   2.970
28606WAT     H186060   6.161   7.035   2.956
28606WAT     H286061   6.136   6.895   3.035
28607WAT      O86062   7.347   5.689   7.708
28607WAT     H186063   7.334   5.637   7.792
28607WAT     H286064   7.434   5.665   7.666
28608WAT      O86065   5.099   0.623   2.447
28608WAT     H186066   5.033   0.616   2.521
28608WAT     H286067   5.099   0.715   2.410
28609WAT      O86068   0.032   0.120   6.159
28609WAT     H186069   0.043   0.090   6.065
28609WAT     H286070   0.115   0.165   6.190
28610WAT      O86071   0.815   7.812   0.413
28610WAT     H186072   0.873   7.887   0.446
28610WAT     H286073   0.856   7.771   0.332
28611WAT      O86074   6.025   4.960   4.584
28611WAT     H186075   6.072   4.872   4.588
28611WAT     H286076   5.970   4.965   4.500
28612WAT      O86077   1.453   3.045   4.639
28612WAT     H186078   1.386   3.093   4.582
28612WAT     H286079   1.506   3.112   4.691
28613WAT      O86080   0.746   6.432   1.413
28613WAT     H186081   0.720   6.481   1.330
28613WAT     H286082   0.834   6.387   1.400
28614WAT      O86083   8.911   0.501   3.182
28614WAT     H186084   8.991   0.555   3.212
28614WAT     H286085   8.828   0.554   3.199
28615WAT      O86086   2.882   5.666   3.744
28615WAT     H186087   2.874   5.596   3.815
28615WAT     H286088   2.814   5.648   3.673
28616WAT      O86089   5.617   2.248   9.369
28616WAT     H186090   5.582   2.155   9.379
28616WAT     H286091   5.625   2.271   9.272
28617WAT      O86092   4.029   8.240   0.325
28617WAT     H186093   4.094   8.168   0.350
28617WAT     H286094   3.944   8.227   0.375
28618WAT      O86095   7.866   9.293   6.315
28618WAT     H186096   7.841   9.347   6.234
28618WAT     H286097   7.889   9.200   6.286
28619WAT      O86098   2.395   2.722   8.646
28619WAT     H186099   2.362   2.779   8.721
28619WAT     H286100   2.472   2.666   8.677
28620WAT      O86101   2.995   8.992   5.936
28620WAT     H186102   2.923   8.950   5.991
28620WAT     H286103   3.014   8.934   5.856
28621WAT      O86104   1.297   0.059   6.539
28621WAT     H186105   1.352   0.003   6.477
28621WAT     H286106   1.273   0.145   6.493
28622WAT      O86107   1.971   6.033   0.287
28622WAT     H186108   2.049   6.053   0.347
28622WAT     H286109   2.004   6.000   0.199
28623WAT      O86110   4.795   5.887   2.600
28623WAT     H186111   4.723   5.903   2.667
28623WAT     H286112   4.810   5.971   2.546
28624WAT      O86113   9.218   6.583   4.192
28624WAT     H186114   9.304   6.543   4.224
28624WAT     H286115   9.173   6.629   4.269
28625WAT      O86116   6.935   6.106   4.751
28625WAT     H186117   6.980   6.024   4.785
28625WAT     H286118   6.930   6.102   4.651
28626WAT      O86119   1.206   2.306   0.571
28626WAT     H186120   1.234   2.363   0.648
28626WAT     H286121   1.160   2.224   0.605
28627WAT      O86122   4.101   8.493   2.894
28627WAT     H186123   4.106   8.545   2.979
28627WAT     H286124   4.127   8.398   2.911
28628WAT      O86125   5.351   6.277   2.674
28628WAT     H186126   5.264   6.266   2.723
28628WAT     H286127   5.374   6.374   2.669
28629WAT      O86128   2.289   5.369   0.608
28629WAT     H186129   2.251   5.289   0.561
28629WAT     H286130   2.338   5.426   0.542
28630WAT      O86131   9.810   5.679   2.124
28630WAT     H186132   9.899   5.721   2.103
28630WAT     H286133   9.772   5.638   2.041
28631WAT      O86134   7.115   3.419   9.058
28631WAT     H186135   7.080   3.434   8.965
28631WAT     H286136   7.137   3.322   9.070
28632WAT      O86137   3.956   6.552   4.691
28632WAT     H186138   3.903   6.599   4.761
28632WAT     H286139   4.053   6.558   4.713
28633WAT      O86140   1.184   2.440   7.571
28633WAT     H186141   1.133   2.504   7.628
28633WAT     H286142   1.240   2.491   7.505
28634WAT      O86143   8.453   7.873   3.470
28634WAT     H186144   8.449   7.968   3.502
28634WAT     H286145   8.435   7.811   3.546
28635WAT      O86146   9.257   4.055   6.821
28635WAT     H186147   9.300   4.003   6.747
28635WAT     H286148   9.193   4.121   6.782
28636WAT      O86149   8.318   4.664   5.312
28636WAT     H186150   8.407   4.696   5.342
28636WAT     H286151   8.298   4.700   5.220
28637WAT      O86152   1.870   1.783   9.489
28637WAT     H186153   1.796   1.814   9.549
28637WAT     H286154   1.949   1.756   9.544
28638WAT      O86155   7.281   8.027   8.207
28638WAT     H186156   7.187   8.038   8.237
28638WAT     H286157   7.285   8.033   8.107
28639WAT      O86158   7.910   2.984   2.181
28639WAT     H186159   7.891   2.999   2.084
28639WAT     H286160   7.865   2.900   2.211
28640WAT      O86161   9.736   8.214   5.741
28640WAT     H186162   9.654   8.158   5.756
28640WAT     H286163   9.715   8.285   5.673
28641WAT      O86164   6.646   2.150   1.619
28641WAT     H186165   6.601   2.218   1.561
28641WAT     H286166   6.604   2.060   1.604
28642WAT      O86167   6.232   2.536   7.171
28642WAT     H186168   6.176   2.578   7.100
28642WAT     H286169   6.321   2.510   7.133
28643WAT      O86170   2.062   8.557   8.902
28643WAT     H186171   2.008   8.500   8.841
28643WAT     H286172   2.084   8.506   8.986
28644WAT      O86173   4.217   3.866   1.022
28644WAT     H186174   4.219   3.965   1.015
28644WAT     H286175   4.307   3.833   1.050
28645WAT      O86176   7.161   3.362   6.596
28645WAT     H186177   7.195   3.268   6.608
28645WAT     H286178   7.238   3.423   6.578
28646WAT      O86179   7.855   0.965   3.182
28646WAT     H186180   7.895   0.969   3.273
28646WAT     H286181   7.793   1.043   3.169
28647WAT      O86182   6.700   7.141   8.619
28647WAT     H186183   6.604   7.165   8.627
28647WAT     H286184   6.708   7.042   8.606
28648WAT      O86185   2.615   5.054   3.603
28648WAT     H186186   2.568   5.053   3.515
28648WAT     H286187   2.672   4.973   3.611
28649WAT      O86188   2.922   3.563   5.479
28649WAT     H186189   2.916   3.659   5.503
28649WAT     H286190   2.947   3.553   5.383
28650WAT      O86191   7.558   0.855   2.150
28650WAT     H186192   7.478   0.846   2.209
28650WAT     H286193   7.556   0.942   2.102
28651WAT      O86194   4.021   7.470   6.487
28651WAT     H186195   3.981   7.488   6.397
28651WAT     H286196   3.947   7.456   6.553
28652WAT      O86197   9.551   0.749   3.463
28652WAT     H186198   9.465   0.785   3.501
28652WAT     H286199   9.621   0.750   3.535
28653WAT      O86200   8.007   9.288   9.255
28653WAT     H186201   7.947   9.211   9.237
28653WAT     H286202   7.986   9.363   9.191
28654WAT      O86203   5.035   7.039   3.941
28654WAT     H186204   5.057   7.127   3.984
28654WAT     H286205   5.118   6.997   3.905
28655WAT      O86206   0.272   3.237   1.718
28655WAT     H186207   0.307   3.256   1.626
28655WAT     H286208   0.346   3.204   1.776
28656WAT      O86209   4.999   1.173   6.704
28656WAT     H186210   5.002   1.189   6.803
28656WAT     H286211   4.968   1.080   6.686
28657WAT      O86212   1.449   6.349   5.045
28657WAT     H186213   1.445   6.307   4.954
28657WAT     H286214   1.357   6.360   5.081
28658WAT      O86215   8.019   1.760   5.950
28658WAT     H186216   8.108   1.799   5.975
28658WAT     H286217   8.005   1.769   5.851
28659WAT      O86218   8.142   5.882   1.371
28659WAT     H186219   8.171   5.969   1.412
28659WAT     H286220   8.127   5.895   1.272
28660WAT      O86221   8.823   6.763   5.936
28660WAT     H186222   8.795   6.668   5.925
28660WAT     H286223   8.861   6.797   5.850
28661WAT      O86224   7.401   9.219   0.333
28661WAT     H186225   7.435   9.125   0.326
28661WAT     H286226   7.440   9.274   0.259
28662WAT      O86227   2.727   9.825   7.520
28662WAT     H186228   2.693   9.736   7.492
28662WAT     H286229   2.680   9.854   7.604
28663WAT      O86230   7.045   8.175   3.368
28663WAT     H186231   7.028   8.098   3.430
28663WAT     H286232   7.008   8.258   3.408
28664WAT      O86233   0.127   1.327   2.378
28664WAT     H186234   0.137   1.343   2.476
28664WAT     H286235   0.197   1.379   2.329
28665WAT      O86236   9.658   6.779   0.134
28665WAT     H186237   9.669   6.693   0.184
28665WAT     H286238   9.663   6.855   0.198
28666WAT      O86239   1.303   6.971   5.782
28666WAT     H186240   1.403   6.966   5.789
28666WAT     H286241   1.276   6.952   5.688
28667WAT      O86242   4.915   7.470   2.965
28667WAT     H186243   4.926   7.559   2.921
28667WAT     H286244   4.907   7.482   3.064
28668WAT      O86245   8.142   6.150   3.258
28668WAT     H186246   8.065   6.212   3.246
28668WAT     H286247   8.180   6.126   3.168
28669WAT      O86248   6.471   7.208   6.991
28669WAT     H186249   6.415   7.267   7.049
28669WAT     H286250   6.436   7.115   6.993
28670WAT      O86251   6.891   8.805   4.639
28670WAT     H186252   6.854   8.767   4.554
28670WAT     H286253   6.826   8.871   4.677
28671WAT      O86254   1.130   7.281   1.607
28671WAT     H186255   1.144   7.342   1.684
28671WAT     H286256   1.192   7.203   1.614
28672WAT      O86257   4.605   2.804   8.092
28672WAT     H186258   4.532   2.819   8.159
28672WAT     H286259   4.577   2.734   8.026
28673WAT      O86260   0.074   8.617   5.233
28673WAT     H186261   0.063   8.545   5.301
28673WAT     H286262   0.163   8.660   5.244
28674WAT      O86263   3.409   5.791   3.044
28674WAT     H186264   3.326   5.824   2.999
28674WAT     H286265   3.483   5.783   2.977
28675WAT      O86266   4.604   7.268   4.079
28675WAT     H186267   4.655   7.182   4.079
28675WAT     H286268   4.664   7.343   4.051
28676WAT      O86269   6.177   9.464   1.475
28676WAT     H186270   6.162   9.556   1.512
28676WAT     H286271   6.133   9.397   1.534
28677WAT      O86272   2.912   6.266   4.714
28677WAT     H186273   2.848   6.212   4.769
28677WAT     H286274   2.941   6.213   4.635
28678WAT      O86275   0.175   4.406   9.164
28678WAT     H186276   0.111   4.403   9.240
28678WAT     H286277   0.234   4.487   9.174
28679WAT      O86278   7.432   7.360   0.836
28679WAT     H186279   7.517   7.307   0.838
28679WAT     H286280   7.357   7.302   0.804
28680WAT      O86281   9.495   7.061   7.483
28680WAT     H186282   9.502   7.111   7.569
28680WAT     H286283   9.587   7.037   7.452
28681WAT      O86284   5.944   7.376   8.155
28681WAT     H186285   5.874   7.442   8.127
28681WAT     H286286   6.029   7.395   8.106
28682WAT      O86287   0.941   4.548   7.068
28682WAT     H186288   1.019   4.502   7.026
28682WAT     H286289   0.860   4.534   7.012
28683WAT      O86290   2.035   2.919   3.632
28683WAT     H186291   2.032   2.945   3.536
28683WAT     H286292   1.948   2.939   3.676
28684WAT      O86293   6.500   0.870   5.487
28684WAT     H186294   6.487   0.814   5.405
28684WAT     H286295   6.595   0.899   5.493
28685WAT      O86296   0.992   8.752   7.646
28685WAT     H186297   0.919   8.764   7.579
28685WAT     H286298   0.984   8.663   7.689
28686WAT      O86299   8.194   5.116   2.339
28686WAT     H186300   8.105   5.084   2.371
28686WAT     H286301   8.181   5.182   2.265
28687WAT      O86302   9.738   7.558   5.375
28687WAT     H186303   9.697   7.646   5.349
28687WAT     H286304   9.730   7.494   5.298
28688WAT      O86305   4.529   8.599   6.457
28688WAT     H186306   4.443   8.649   6.447
28688WAT     H286307   4.595   8.632   6.390
28689WAT      O86308   0.147   5.403   1.746
28689WAT     H186309   0.126   5.396   1.844
28689WAT     H286310   0.069   5.443   1.698
28690WAT      O86311   5.594   3.390   7.498
28690WAT     H186312   5.562   3.387   7.403
28690WAT     H286313   5.621   3.483   7.521
28691WAT      O86314   4.398   2.236   8.196
28691WAT     H186315   4.350   2.196   8.274
28691WAT     H286316   4.366   2.330   8.182
28692WAT      O86317   7.035   2.420   0.828
28692WAT     H186318   7.005   2.357   0.757
28692WAT     H286319   7.028   2.376   0.917
28693WAT      O86320   8.192   4.401   1.138
28693WAT     H186321   8.165   4.309   1.168
28693WAT     H286322   8.111   4.456   1.123
28694WAT      O86323   4.590   4.526   0.389
28694WAT     H186324   4.584   4.431   0.360
28694WAT     H286325   4.596   4.585   0.309
28695WAT      O86326   9.030   3.947   1.538
28695WAT     H186327   9.017   4.040   1.573
28695WAT     H286328   8.943   3.898   1.540
28696WAT      O86329   5.709   7.659   7.778
28696WAT     H186330   5.651   7.629   7.702
28696WAT     H286331   5.657   7.655   7.863
28697WAT      O86332   9.690   9.409   7.619
28697WAT     H186333   9.610   9.392   7.561
28697WAT     H286334   9.732   9.322   7.644
28698WAT      O86335   3.895   2.396   2.802
28698WAT     H186336   3.940   2.306   2.801
28698WAT     H286337   3.932   2.453   2.729
28699WAT      O86338   1.313   1.968   7.548
28699WAT     H186339   1.278   2.007   7.634
28699WAT     H286340   1.283   2.025   7.471
28700WAT      O86341   1.945   7.363   0.614
28700WAT     H186342   1.901   7.343   0.526
28700WAT     H286343   1.888   7.329   0.689
28701WAT      O86344   6.635   2.818   8.534
28701WAT     H186345   6.690   2.776   8.461
28701WAT     H286346   6.691   2.884   8.584
28702WAT      O86347   2.171   8.074   5.971
28702WAT     H186348   2.200   8.051   6.064
28702WAT     H286349   2.076   8.104   5.972
28703WAT      O86350   4.175   6.090   0.061
28703WAT     H186351   4.206   6.166   0.118
28703WAT     H286352   4.253   6.031   0.038
28704WAT      O86353   2.606   1.206   7.152
28704WAT     H186354   2.697   1.231   7.120
28704WAT     H286355   2.537   1.264   7.108
28705WAT      O86356   9.741   4.243   9.048
28705WAT     H186357   9.691   4.160   9.073
28705WAT     H286358   9.765   4.239   8.951
28706WAT      O86359   5.144   4.552   0.264
28706WAT     H186360   5.071   4.594   0.318
28706WAT     H286361   5.233   4.581   0.300
28707WAT      O86362   4.521   3.384   8.112
28707WAT     H186363   4.556   3.437   8.035
28707WAT     H286364   4.538   3.433   8.197
28708WAT      O86365   6.240   8.116   4.991
28708WAT     H186366   6.322   8.065   4.965
28708WAT     H286367   6.212   8.090   5.083
28709WAT      O86368   7.223   6.850   8.870
28709WAT     H186369   7.237   6.786   8.794
28709WAT     H286370   7.311   6.885   8.900
28710WAT      O86371   1.159   9.090   7.387
28710WAT     H186372   1.109   9.011   7.353
28710WAT     H286373   1.182   9.151   7.311
28711WAT      O86374   3.288   6.730   9.776
28711WAT     H186375   3.353   6.722   9.700
28711WAT     H286376   3.206   6.677   9.755
28712WAT      O86377   1.025   5.703   9.301
28712WAT     H186378   0.942   5.750   9.272
28712WAT     H286379   1.010   5.604   9.300
28713WAT      O86380   9.268   2.525   0.533
28713WAT     H186381   9.269   2.619   0.502
28713WAT     H286382   9.360   2.486   0.525
28714WAT      O86383   4.193   5.723   1.631
28714WAT     H186384   4.154   5.677   1.550
28714WAT     H286385   4.292   5.711   1.631
28715WAT      O86386   5.503   1.081   4.153
28715WAT     H186387   5.419   1.134   4.158
28715WAT     H286388   5.488   0.990   4.193
28716WAT      O86389   7.171   8.117   6.289
28716WAT     H186390   7.161   8.130   6.388
28716WAT     H286391   7.246   8.054   6.271
28717WAT      O86392   7.535   5.213   7.325
28717WAT     H186393   7.469   5.287   7.315
28717WAT     H286394   7.613   5.230   7.265
28718WAT      O86395   5.967   0.955   6.528
28718WAT     H186396   5.959   1.042   6.480
28718WAT     H286397   6.051   0.909   6.499
28719WAT      O86398   4.191   7.553   0.479
28719WAT     H186399   4.150   7.621   0.539
28719WAT     H286400   4.280   7.526   0.515
28720WAT      O86401   4.052   4.456   1.260
28720WAT     H186402   3.973   4.515   1.274
28720WAT     H286403   4.064   4.438   1.163
28721WAT      O86404   7.126   6.421   4.638
28721WAT     H186405   7.109   6.381   4.728
28721WAT     H286406   7.058   6.492   4.621
28722WAT      O86407   1.420   7.165   5.157
28722WAT     H186408   1.373   7.097   5.101
28722WAT     H286409   1.371   7.252   5.153
28723WAT      O86410   0.312   8.079   0.711
28723WAT     H186411   0.298   8.035   0.622
28723WAT     H286412   0.267   8.025   0.782
28724WAT      O86413   9.165   5.962   2.363
28724WAT     H186414   9.080   5.931   2.320
28724WAT     H286415   9.146   5.989   2.458
28725WAT      O86416   0.008   4.817   8.358
28725WAT     H186417  -0.015   4.877   8.435
28725WAT     H286418  -0.074   4.804   8.302
28726WAT      O86419   0.738   8.193   1.349
28726WAT     H186420   0.716   8.179   1.446
28726WAT     H286421   0.752   8.105   1.305
28727WAT      O86422   7.456   4.990   4.031
28727WAT     H186423   7.492   4.936   4.107
28727WAT     H286424   7.446   5.085   4.059
28728WAT      O86425   1.034   7.297   2.498
28728WAT     H186426   1.033   7.299   2.598
28728WAT     H286427   0.943   7.273   2.465
28729WAT      O86428   5.876   4.224   8.173
28729WAT     H186429   5.896   4.160   8.099
28729WAT     H286430   5.850   4.173   8.255
28730WAT      O86431   3.274   7.452   2.710
28730WAT     H186432   3.256   7.455   2.612
28730WAT     H286433   3.216   7.381   2.752
28731WAT      O86434   3.809   3.574   9.025
28731WAT     H186435   3.728   3.614   9.068
28731WAT     H286436   3.824   3.482   9.061
28732WAT      O86437   7.358   8.564   6.426
28732WAT     H186438   7.262   8.536   6.438
28732WAT     H286439   7.411   8.486   6.392
28733WAT      O86440   0.822   5.884   7.382
28733WAT     H186441   0.764   5.804   7.363
28733WAT     H286442   0.785   5.963   7.332
28734WAT      O86443   6.383   5.450   8.484
28734WAT     H186444   6.358   5.354   8.470
28734WAT     H286445   6.402   5.493   8.396
28735WAT      O86446   3.857   5.329   9.554
28735WAT     H186447   3.825   5.289   9.640
28735WAT     H286448   3.916   5.264   9.507
28736WAT      O86449   0.643   4.013   3.712
28736WAT     H186450   0.725   3.964   3.684
28736WAT     H286451   0.654   4.045   3.806
28737WAT      O86452   3.996   2.022   8.238
28737WAT     H186453   4.079   2.028   8.183
28737WAT     H286454   3.982   2.108   8.287
28738WAT      O86455   4.197   1.874   7.271
28738WAT     H186456   4.288   1.906   7.247
28738WAT     H286457   4.156   1.936   7.337
28739WAT      O86458   8.557   7.637   2.893
28739WAT     H186459   8.622   7.702   2.854
28739WAT     H286460   8.587   7.611   2.984
28740WAT      O86461   7.825   7.418   2.315
28740WAT     H186462   7.751   7.387   2.255
28740WAT     H286463   7.908   7.365   2.296
28741WAT      O86464   2.662   2.609   1.474
28741WAT     H186465   2.671   2.699   1.431
28741WAT     H286466   2.658   2.619   1.573
28742WAT      O86467   3.121   5.612   2.764
28742WAT     H186468   3.200   5.672   2.749
28742WAT     H286469   3.132   5.565   2.852
28743WAT      O86470   4.010   4.906   8.280
28743WAT     H186471   4.110   4.912   8.271
28743WAT     H286472   3.969   4.899   8.189
28744WAT      O86473   0.449   7.764   1.598
28744WAT     H186474   0.475   7.742   1.692
28744WAT     H286475   0.379   7.835   1.599
28745WAT      O86476   3.054   1.654   2.936
28745WAT     H186477   3.129   1.674   2.999
28745WAT     H286478   3.041   1.555   2.929
28746WAT      O86479   5.893   1.569   2.363
28746WAT     H186480   5.850   1.480   2.375
28746WAT     H286481   5.957   1.586   2.438
28747WAT      O86482   0.919   6.687   0.804
28747WAT     H186483   0.893   6.645   0.891
28747WAT     H286484   0.933   6.616   0.735
28748WAT      O86485   7.846   0.103   1.665
28748WAT     H186486   7.944   0.106   1.645
28748WAT     H286487   7.794   0.090   1.580
28749WAT      O86488   9.791   9.497   3.301
28749WAT     H186489   9.876   9.466   3.343
28749WAT     H286490   9.809   9.574   3.241
28750WAT      O86491   9.456   4.604   1.250
28750WAT     H186492   9.520   4.559   1.313
28750WAT     H286493   9.504   4.631   1.167
28751WAT      O86494   4.826   9.363   8.534
28751WAT     H186495   4.843   9.393   8.440
28751WAT     H286496   4.900   9.396   8.593
28752WAT      O86497   5.939   9.208   5.564
28752WAT     H186498   5.973   9.117   5.538
28752WAT     H286499   5.843   9.216   5.537
28753WAT      O86500   2.241   4.535   3.352
28753WAT     H186501   2.195   4.517   3.265
28753WAT     H286502   2.336   4.503   3.347
28754WAT      O86503   2.409   9.136   2.350
28754WAT     H186504   2.318   9.106   2.378
28754WAT     H286505   2.409   9.235   2.336
28755WAT      O86506   1.561   8.695   7.046
28755WAT     H186507   1.595   8.623   6.985
28755WAT     H286508   1.524   8.653   7.129
28756WAT      O86509   3.552   1.019   3.426
28756WAT     H186510   3.643   1.015   3.468
28756WAT     H286511   3.554   1.086   3.351
28757WAT      O86512   7.523   2.167   4.941
28757WAT     H186513   7.568   2.084   4.909
28757WAT     H286514   7.591   2.240   4.952
28758WAT      O86515   3.802   9.432   9.270
28758WAT     H186516   3.848   9.345   9.288
28758WAT     H286517   3.864   9.508   9.290
28759WAT      O86518   4.468   7.786   7.854
28759WAT     H186519   4.379   7.829   7.841
28759WAT     H286520   4.494   7.791   7.950
28760WAT      O86521   5.194   6.013   8.320
28760WAT     H186522   5.226   6.029   8.226
28760WAT     H286523   5.094   6.003   8.319
28761WAT      O86524   8.069   7.606   3.169
28761WAT     H186525   8.107   7.514   3.172
28761WAT     H286526   7.977   7.603   3.131
28762WAT      O86527   2.113   3.953   5.977
28762WAT     H186528   2.140   4.038   5.932
28762WAT     H286529   2.039   3.910   5.926
28763WAT      O86530   0.383   2.316   4.697
28763WAT     H186531   0.447   2.257   4.745
28763WAT     H286532   0.291   2.303   4.734
28764WAT      O86533   1.030   2.377   0.351
28764WAT     H186534   1.086   2.387   0.268
28764WAT     H286535   1.090   2.366   0.430
28765WAT      O86536   6.221   6.378   4.065
28765WAT     H186537   6.201   6.401   4.160
28765WAT     H286538   6.213   6.459   4.007
28766WAT      O86539   6.398   9.603   1.113
28766WAT     H186540   6.397   9.526   1.176
28766WAT     H286541   6.478   9.660   1.131
28767WAT      O86542   9.487   5.631   8.684
28767WAT     H186543   9.423   5.562   8.718
28767WAT     H286544   9.513   5.608   8.590
28768WAT      O86545   0.954   3.913   6.133
28768WAT     H186546   0.916   3.853   6.203
28768WAT     H286547   0.984   3.999   6.175
28769WAT      O86548   3.813   3.080   2.245
28769WAT     H186549   3.789   3.146   2.316
28769WAT     H286550   3.820   3.126   2.157
28770WAT      O86551   7.475   0.813   4.149
28770WAT     H186552   7.566   0.842   4.178
28770WAT     H286553   7.463   0.833   4.052
28771WAT      O86554   0.193   3.634   1.476
28771WAT     H186555   0.150   3.702   1.416
28771WAT     H286556   0.135   3.552   1.479
28772WAT      O86557   0.917   2.121   2.904
28772WAT     H186558   0.868   2.074   2.831
28772WAT     H286559   0.858   2.130   2.984
28773WAT      O86560   0.830   9.493   5.471
28773WAT     H186561   0.919   9.450   5.450
28773WAT     H286562   0.777   9.501   5.387
28774WAT      O86563   1.462   2.152   5.565
28774WAT     H186564   1.406   2.075   5.595
28774WAT     H286565   1.470   2.219   5.639
28775WAT      O86566   5.980   0.380   3.126
28775WAT     H186567   5.969   0.431   3.040
28775WAT     H286568   6.065   0.408   3.170
28776WAT      O86569   7.229   2.717   2.786
28776WAT     H186570   7.188   2.757   2.868
28776WAT     H286571   7.184   2.630   2.765
28777WAT      O86572   0.446   8.452   6.457
28777WAT     H186573   0.540   8.486   6.453
28777WAT     H286574   0.384   8.522   6.421
28778WAT      O86575   5.939   3.136   8.631
28778WAT     H186576   5.975   3.176   8.546
28778WAT     H286577   5.939   3.037   8.623
28779WAT      O86578   1.020   9.740   6.977
28779WAT     H186579   1.029   9.692   7.063
28779WAT     H286580   1.053   9.834   6.987
28780WAT      O86581   3.720   1.976   8.615
28780WAT     H186582   3.691   2.034   8.539
28780WAT     H286583   3.751   1.888   8.579
28781WAT      O86584   6.375   3.680   5.783
28781WAT     H186585   6.426   3.661   5.867
28781WAT     H286586   6.279   3.653   5.795
28782WAT      O86587   8.786   2.087   0.783
28782WAT     H186588   8.877   2.128   0.786
28782WAT     H286589   8.743   2.096   0.873
28783WAT      O86590   8.630   1.981   5.705
28783WAT     H186591   8.564   1.972   5.780
28783WAT     H286592   8.590   2.036   5.632
28784WAT      O86593   9.655   3.173   7.741
28784WAT     H186594   9.575   3.231   7.724
28784WAT     H286595   9.732   3.205   7.687
28785WAT      O86596   9.325   5.665   5.683
28785WAT     H186597   9.358   5.693   5.593
28785WAT     H286598   9.367   5.579   5.709
28786WAT      O86599   5.835   7.711   8.452
28786WAT     H186600   5.777   7.638   8.489
28786WAT     H286601   5.792   7.799   8.470
28787WAT      O86602   3.742   2.508   1.378
28787WAT     H186603   3.668   2.556   1.330
28787WAT     H286604   3.825   2.510   1.321
28788WAT      O86605   2.672   7.606   7.762
28788WAT     H186606   2.663   7.682   7.697
28788WAT     H286607   2.758   7.614   7.811
28789WAT      O86608   4.992   0.926   1.928
28789WAT     H186609   4.954   0.978   1.851
28789WAT     H286610   5.012   0.833   1.897
28790WAT      O86611   9.345   8.085   3.772
28790WAT     H186612   9.269   8.141   3.742
28790WAT     H286613   9.393   8.047   3.692
28791WAT      O86614   6.443   8.765   0.584
28791WAT     H186615   6.394   8.727   0.505
28791WAT     H286616   6.525   8.711   0.600
28792WAT      O86617   4.759   4.745   6.233
28792WAT     H186618   4.734   4.699   6.318
28792WAT     H286619   4.858   4.761   6.233
28793WAT      O86620   1.460   7.218   8.900
28793WAT     H186621   1.484   7.144   8.962
28793WAT     H286622   1.365   7.207   8.871
28794WAT      O86623   8.915   8.628   3.966
28794WAT     H186624   8.918   8.610   4.064
28794WAT     H286625   8.924   8.542   3.916
28795WAT      O86626   2.996   8.686   4.551
28795WAT     H186627   3.064   8.733   4.607
28795WAT     H286628   3.022   8.690   4.455
28796WAT      O86629   8.480   5.587   2.109
28796WAT     H186630   8.429   5.668   2.080
28796WAT     H286631   8.416   5.516   2.136
28797WAT      O86632   8.842   9.597   5.717
28797WAT     H186633   8.871   9.620   5.810
28797WAT     H286634   8.842   9.679   5.661
28798WAT      O86635   9.607   7.010   0.336
28798WAT     H186636   9.519   6.966   0.352
28798WAT     H286637   9.604   7.104   0.370
28799WAT      O86638   1.631   4.389   7.007
28799WAT     H186639   1.671   4.478   7.031
28799WAT     H286640   1.649   4.324   7.081
28800WAT      O86641   5.724   5.364   3.617
28800WAT     H186642   5.688   5.353   3.710
28800WAT     H286643   5.801   5.302   3.604
28801WAT      O86644   8.861   4.123   1.051
28801WAT     H186645   8.856   4.138   0.953
28801WAT     H286646   8.794   4.181   1.098
28802WAT      O86647   6.046   7.610   2.037
28802WAT     H186648   6.128   7.667   2.034
28802WAT     H286649   6.036   7.560   1.951
28803WAT      O86650   5.206   7.985   9.086
28803WAT     H186651   5.136   7.949   9.024
28803WAT     H286652   5.297   7.959   9.054
28804WAT      O86653   2.321   2.939   3.381
28804WAT     H186654   2.407   2.941   3.330
28804WAT     H286655   2.322   2.861   3.443
28805WAT      O86656   9.499   1.485   0.804
28805WAT     H186657   9.571   1.435   0.851
28805WAT     H286658   9.447   1.423   0.746
28806WAT      O86659   5.125   7.153   2.871
28806WAT     H186660   5.117   7.224   2.801
28806WAT     H286661   5.130   7.195   2.961
28807WAT      O86662   3.994   7.749   6.527
28807WAT     H186663   3.995   7.657   6.488
28807WAT     H286664   3.957   7.814   6.460
28808WAT      O86665   0.777   6.283   7.228
28808WAT     H186666   0.804   6.268   7.133
28808WAT     H286667   0.839   6.350   7.270
28809WAT      O86668   7.600   5.853   6.715
28809WAT     H186669   7.513   5.887   6.680
28809WAT     H286670   7.619   5.895   6.804
28810WAT      O86671   9.835   6.392   8.487
28810WAT     H186672   9.822   6.468   8.551
28810WAT     H286673   9.798   6.417   8.397
28811WAT      O86674   1.900   6.685   6.101
28811WAT     H186675   1.931   6.670   6.007
28811WAT     H286676   1.853   6.773   6.108
28812WAT      O86677   5.242   7.304   8.726
28812WAT     H186678   5.304   7.253   8.786
28812WAT     H286679   5.208   7.385   8.776
28813WAT      O86680   6.204   7.470   8.733
28813WAT     H186681   6.293   7.426   8.734
28813WAT     H286682   6.214   7.567   8.709
28814WAT      O86683   2.780   0.283   8.827
28814WAT     H186684   2.843   0.353   8.794
28814WAT     H286685   2.816   0.192   8.803
28815WAT      O86686   3.852   7.800   9.437
28815WAT     H186687   3.759   7.771   9.415
28815WAT     H286688   3.917   7.732   9.404
28816WAT      O86689   7.878   0.009   4.313
28816WAT     H186690   7.906   0.096   4.271
28816WAT     H286691   7.951  -0.024   4.373
28817WAT      O86692   7.802   7.779   5.912
28817WAT     H186693   7.814   7.706   5.981
28817WAT     H286694   7.706   7.784   5.885
28818WAT      O86695   4.407   8.221   0.674
28818WAT     H186696   4.352   8.280   0.732
28818WAT     H286697   4.401   8.127   0.707
28819WAT      O86698   6.347   3.410   8.277
28819WAT     H186699   6.404   3.417   8.195
28819WAT     H286700   6.378   3.333   8.333
28820WAT      O86701   4.802   9.486   3.088
28820WAT     H186702   4.711   9.526   3.085
28820WAT     H286703   4.869   9.552   3.054
28821WAT      O86704   1.821   5.255   6.404
28821WAT     H186705   1.731   5.215   6.420
28821WAT     H286706   1.812   5.333   6.342
28822WAT      O86707   8.350   8.156   0.572
28822WAT     H186708   8.380   8.111   0.488
28822WAT     H286709   8.323   8.086   0.639
28823WAT      O86710   2.341   9.202   5.424
28823WAT     H186711   2.398   9.119   5.428
28823WAT     H286712   2.385   9.274   5.478
28824WAT      O86713   5.410   1.757   9.284
28824WAT     H186714   5.510   1.766   9.278
28824WAT     H286715   5.368   1.842   9.251
28825WAT      O86716   2.309   2.196   1.826
28825WAT     H186717   2.261   2.117   1.788
28825WAT     H286718   2.393   2.212   1.774
28826WAT      O86719   4.366   9.636   6.265
28826WAT     H186720   4.336   9.628   6.170
28826WAT     H286721   4.312   9.575   6.322
28827WAT      O86722   3.446   5.260   9.122
28827WAT     H186723   3.491   5.324   9.060
28827WAT     H286724   3.371   5.214   9.074
28828WAT      O86725   1.012   8.523   1.603
28828WAT     H186726   0.933   8.522   1.663
28828WAT     H286727   0.983   8.508   1.508
28829WAT      O86728   5.389   7.482   8.555
28829WAT     H186729   5.341   7.407   8.600
28829WAT     H286730   5.414   7.455   8.462
28830WAT      O86731   2.674   8.128   2.757
28830WAT     H186732   2.617   8.058   2.714
28830WAT     H286733   2.760   8.088   2.786
28831WAT      O86734   7.890   9.677   8.153
28831WAT     H186735   7.989   9.670   8.141
28831WAT     H286736   7.851   9.585   8.158
28832WAT      O86737   9.149   1.718   8.654
28832WAT     H186738   9.170   1.624   8.682
28832WAT     H286739   9.206   1.781   8.707
28833WAT      O86740   7.267   0.017   8.249
28833WAT     H186741   7.345   0.036   8.189
28833WAT     H286742   7.299   0.015   8.344
28834WAT      O86743   0.971   0.349   3.389
28834WAT     H186744   0.899   0.280   3.393
28834WAT     H286745   1.020   0.340   3.302
28835WAT      O86746   8.698   6.550   3.584
28835WAT     H186747   8.601   6.552   3.559
28835WAT     H286748   8.731   6.643   3.597
28836WAT      O86749   2.680   9.298   4.658
28836WAT     H186750   2.719   9.349   4.581
28836WAT     H286751   2.726   9.209   4.665
28837WAT      O86752   8.497   8.455   1.789
28837WAT     H186753   8.481   8.493   1.698
28837WAT     H286754   8.586   8.408   1.790
28838WAT      O86755   6.497   8.090   3.125
28838WAT     H186756   6.437   8.041   3.062
28838WAT     H286757   6.464   8.077   3.219
28839WAT      O86758   7.508   7.184   8.706
28839WAT     H186759   7.575   7.113   8.682
28839WAT     H286760   7.449   7.202   8.627
28840WAT      O86761   5.927   8.756   5.491
28840WAT     H186762   6.017   8.714   5.478
28840WAT     H286763   5.888   8.777   5.401
28841WAT      O86764   7.418   1.724   4.689
28841WAT     H186765   7.426   1.675   4.775
28841WAT     H286766   7.495   1.701   4.630
28842WAT      O86767   5.660   4.396   3.226
28842WAT     H186768   5.566   4.397   3.192
28842WAT     H286769   5.712   4.468   3.181
28843WAT      O86770   8.714   7.116   1.265
28843WAT     H186771   8.742   7.075   1.352
28843WAT     H286772   8.785   7.179   1.233
28844WAT      O86773   1.622   7.556   3.294
28844WAT     H186774   1.597   7.461   3.315
28844WAT     H286775   1.587   7.580   3.204
28845WAT      O86776   5.956   7.196   7.805
28845WAT     H186777   5.857   7.207   7.805
28845WAT     H286778   6.000   7.286   7.794
28846WAT      O86779   5.687   0.148   3.330
28846WAT     H186780   5.757   0.082   3.306
28846WAT     H286781   5.625   0.108   3.398
28847WAT      O86782   7.420   4.892   8.067
28847WAT     H186783   7.467   4.814   8.024
28847WAT     H286784   7.482   4.935   8.133
28848WAT      O86785   5.162   8.165   0.396
28848WAT     H186786   5.186   8.105   0.320
28848WAT     H286787   5.103   8.115   0.460
28849WAT      O86788   7.096   7.657   3.454
28849WAT     H186789   7.084   7.756   3.458
28849WAT     H286790   7.134   7.624   3.540
28850WAT      O86791   2.527   7.894   3.024
28850WAT     H186792   2.546   7.964   3.093
28850WAT     H286793   2.432   7.864   3.032
28851WAT      O86794   2.906   6.538   4.971
28851WAT     H186795   2.933   6.491   5.055
28851WAT     H286796   2.870   6.629   4.994
28852WAT      O86797   1.055   5.839   8.046
28852WAT     H186798   0.981   5.782   8.081
28852WAT     H286799   1.128   5.844   8.114
28853WAT      O86800   7.716   3.038   1.643
28853WAT     H186801   7.770   2.954   1.653
28853WAT     H286802   7.625   3.015   1.610
28854WAT      O86803   8.842   7.016   5.295
28854WAT     H186804   8.834   6.916   5.305
28854WAT     H286805   8.898   7.053   5.369
28855WAT      O86806   4.258   6.322   0.929
28855WAT     H186807   4.333   6.350   0.989
28855WAT     H286808   4.282   6.237   0.882
28856WAT      O86809   5.329   3.732   2.022
28856WAT     H186810   5.329   3.777   1.933
28856WAT     H286811   5.284   3.643   2.015
28857WAT      O86812   0.242   0.466   7.242
28857WAT     H186813   0.197   0.546   7.203
28857WAT     H286814   0.271   0.486   7.335
28858WAT      O86815   3.562   3.229   4.289
28858WAT     H186816   3.575   3.131   4.303
28858WAT     H286817   3.475   3.246   4.243
28859WAT      O86818   5.518   4.795   8.715
28859WAT     H186819   5.575   4.876   8.724
28859WAT     H286820   5.576   4.714   8.710
28860WAT      O86821   1.573   5.786   0.413
28860WAT     H186822   1.511   5.712   0.439
28860WAT     H286823   1.647   5.749   0.357
28861WAT      O86824   4.821   9.538   3.572
28861WAT     H186825   4.735   9.558   3.527
28861WAT     H286826   4.887   9.611   3.553
28862WAT      O86827   4.935   7.973   8.293
28862WAT     H186828   4.873   7.999   8.219
28862WAT     H286829   5.026   7.957   8.257
28863WAT      O86830   9.050   4.510   8.791
28863WAT     H186831   9.096   4.434   8.838
28863WAT     H286832   8.959   4.481   8.763
28864WAT      O86833   5.439   5.152   6.886
28864WAT     H186834   5.505   5.142   6.812
28864WAT     H286835   5.346   5.153   6.849
28865WAT      O86836   6.789   9.009   3.332
28865WAT     H186837   6.879   9.023   3.291
28865WAT     H286838   6.798   8.998   3.431
28866WAT      O86839   6.529   9.455   0.463
28866WAT     H186840   6.456   9.403   0.419
28866WAT     H286841   6.532   9.434   0.561
28867WAT      O86842   6.152   5.048   1.744
28867WAT     H186843   6.124   5.088   1.657
28867WAT     H286844   6.113   5.101   1.819
28868WAT      O86845   2.611   0.885   6.084
28868WAT     H186846   2.690   0.881   6.145
28868WAT     H286847   2.607   0.975   6.041
28869WAT      O86848   1.102   3.142   1.804
28869WAT     H186849   1.158   3.085   1.743
28869WAT     H286850   1.047   3.205   1.750
28870WAT      O86851   4.875   0.119   8.493
28870WAT     H186852   4.791   0.172   8.502
28870WAT     H286853   4.937   0.141   8.569
28871WAT      O86854   4.470   7.345   5.220
28871WAT     H186855   4.392   7.396   5.256
28871WAT     H286856   4.528   7.407   5.167
28872WAT      O86857   7.478   6.665   1.754
28872WAT     H186858   7.515   6.756   1.774
28872WAT     H286859   7.547   6.611   1.706
28873WAT      O86860   7.695   7.317   0.851
28873WAT     H186861   7.779   7.331   0.800
28873WAT     H286862   7.706   7.352   0.944
28874WAT      O86863   7.255   5.650   9.291
28874WAT     H186864   7.244   5.625   9.194
28874WAT     H286865   7.274   5.567   9.344
28875WAT      O86866   3.135   9.020   0.107
28875WAT     H186867   3.108   8.925   0.121
28875WAT     H286868   3.068   9.066   0.049
28876WAT      O86869   5.099   0.351   7.481
28876WAT     H186870   5.181   0.350   7.424
28876WAT     H286871   5.023   0.389   7.430
28877WAT      O86872   4.711   7.929   3.972
28877WAT     H186873   4.756   7.847   3.936
28877WAT     H286874   4.779   7.988   4.016
28878WAT      O86875   0.609   6.233   1.557
28878WAT     H186876   0.655   6.307   1.508
28878WAT     H286877   0.523   6.267   1.596
28879WAT      O86878   1.061   0.602   9.292
28879WAT     H186879   1.068   0.674   9.224
28879WAT     H286880   1.108   0.520   9.258
28880WAT      O86881   0.121   4.622   2.845
28880WAT     H186882   0.097   4.525   2.837
28880WAT     H286883   0.141   4.658   2.754
28881WAT      O86884   6.253   7.758   5.865
28881WAT     H186885   6.266   7.803   5.777
28881WAT     H286886   6.338   7.713   5.893
28882WAT      O86887   0.074   4.003   8.983
28882WAT     H186888   0.021   4.078   8.942
28882WAT     H286889   0.085   3.930   8.916
28883WAT      O86890   8.875   0.150   7.863
28883WAT     H186891   8.902   0.240   7.829
28883WAT     H286892   8.875   0.085   7.787
28884WAT      O86893   1.152   5.997   6.964
28884WAT     H186894   1.232   6.011   6.906
28884WAT     H286895   1.181   5.961   7.053
28885WAT      O86896   6.886   1.690   4.972
28885WAT     H186897   6.800   1.693   5.023
28885WAT     H286898   6.904   1.781   4.934
28886WAT      O86899   6.149   3.936   8.106
28886WAT     H186900   6.078   3.997   8.071
28886WAT     H286901   6.130   3.912   8.201
28887WAT      O86902   0.275   8.830   4.867
28887WAT     H186903   0.238   8.799   4.779
28887WAT     H286904   0.374   8.824   4.866
28888WAT      O86905   5.828   5.796   6.924
28888WAT     H186906   5.876   5.822   6.840
28888WAT     H286907   5.730   5.802   6.910
28889WAT      O86908   5.141   2.616   6.213
28889WAT     H186909   5.089   2.532   6.199
28889WAT     H286910   5.078   2.693   6.221
28890WAT      O86911   2.207   5.118   8.662
28890WAT     H186912   2.253   5.078   8.741
28890WAT     H286913   2.257   5.095   8.578
28891WAT      O86914   4.373   7.209   2.715
28891WAT     H186915   4.280   7.213   2.751
28891WAT     H286916   4.372   7.176   2.621
28892WAT      O86917   4.769   1.198   2.526
28892WAT     H186918   4.818   1.111   2.517
28892WAT     H286919   4.722   1.219   2.440
28893WAT      O86920   1.195   8.355   4.867
28893WAT     H186921   1.139   8.373   4.948
28893WAT     H286922   1.215   8.442   4.821
28894WAT      O86923   0.994   6.902   8.303
28894WAT     H186924   1.076   6.956   8.319
28894WAT     H286925   0.983   6.833   8.375
28895WAT      O86926   2.028   5.504   5.807
28895WAT     H186927   2.102   5.569   5.823
28895WAT     H286928   1.947   5.554   5.776
28896WAT      O86929   3.398   0.531   9.318
28896WAT     H186930   3.477   0.519   9.379
28896WAT     H286931   3.327   0.465   9.342
28897WAT      O86932   2.551   4.386   4.580
28897WAT     H186933   2.546   4.294   4.542
28897WAT     H286934   2.492   4.392   4.661
28898WAT      O86935   4.941   2.830   6.814
28898WAT     H186936   4.853   2.841   6.860
28898WAT     H286937   5.015   2.848   6.878
28899WAT      O86938   2.237   4.078   6.920
28899WAT     H186939   2.177   4.054   6.996
28899WAT     H286940   2.309   4.009   6.910
28900WAT      O86941   0.196   2.930   4.013
28900WAT     H186942   0.105   2.965   3.993
28900WAT     H286943   0.211   2.844   3.964
28901WAT      O86944   4.607   9.021   4.288
28901WAT     H186945   4.568   8.961   4.218
28901WAT     H286946   4.537   9.086   4.318
28902WAT      O86947   6.112   5.771   8.377
28902WAT     H186948   6.070   5.694   8.331
28902WAT     H286949   6.206   5.783   8.344
28903WAT      O86950   5.055   8.470   7.447
28903WAT     H186951   4.969   8.459   7.497
28903WAT     H286952   5.126   8.500   7.511
28904WAT      O86953   1.109   2.941   1.330
28904WAT     H186954   1.041   2.918   1.261
28904WAT     H286955   1.095   3.035   1.362
28905WAT      O86956   8.443   4.404   4.255
28905WAT     H186957   8.427   4.430   4.160
28905WAT     H286958   8.395   4.318   4.274
28906WAT      O86959   6.150   9.792   9.482
28906WAT     H186960   6.064   9.811   9.434
28906WAT     H286961   6.140   9.816   9.578
28907WAT      O86962   7.389   7.471   6.533
28907WAT     H186963   7.458   7.447   6.602
28907WAT     H286964   7.428   7.458   6.442
28908WAT      O86965   2.210   8.050   6.451
28908WAT     H186966   2.216   8.125   6.386
28908WAT     H286967   2.294   7.995   6.447
28909WAT      O86968   7.827   9.088   1.965
28909WAT     H186969   7.906   9.045   1.921
28909WAT     H286970   7.746   9.029   1.952
28910WAT      O86971   2.165   6.046   1.022
28910WAT     H186972   2.096   6.053   0.950
28910WAT     H286973   2.226   5.969   1.002
28911WAT      O86974   5.276   8.247   2.957
28911WAT     H186975   5.290   8.324   2.895
28911WAT     H286976   5.364   8.215   2.991
28912WAT      O86977   4.106   6.026   1.756
28912WAT     H186978   4.135   6.036   1.661
28912WAT     H286979   4.185   6.001   1.812
28913WAT      O86980   5.530   1.378   2.370
28913WAT     H186981   5.478   1.328   2.301
28913WAT     H286982   5.476   1.455   2.404
28914WAT      O86983   4.923   2.199   8.934
28914WAT     H186984   4.836   2.241   8.958
28914WAT     H286985   4.911   2.143   8.852
28915WAT      O86986   8.994   2.186   2.153
28915WAT     H186987   9.077   2.131   2.158
28915WAT     H286988   8.985   2.225   2.061
28916WAT      O86989   5.967   2.464   1.474
28916WAT     H186990   6.035   2.392   1.466
28916WAT     H286991   5.911   2.449   1.556
28917WAT      O86992   7.898   6.229   2.791
28917WAT     H186993   7.932   6.306   2.738
28917WAT     H286994   7.803   6.245   2.816
28918WAT      O86995   8.226   5.702   9.064
28918WAT     H186996   8.306   5.759   9.042
28918WAT     H286997   8.176   5.680   8.980
28919WAT      O86998   5.059   0.300   0.223
28919WAT     H186999   5.103   0.301   0.313
28919WAT     H287000   4.982   0.363   0.223
28920WAT      O87001   1.707   2.234   3.382
28920WAT     H187002   1.617   2.211   3.345
28920WAT     H287003   1.747   2.308   3.328
28921WAT      O87004   3.760   6.220   3.314
28921WAT     H187005   3.780   6.250   3.221
28921WAT     H287006   3.778   6.122   3.322
28922WAT      O87007   9.270   7.786   4.911
28922WAT     H187008   9.350   7.842   4.890
28922WAT     H287009   9.194   7.813   4.852
28923WAT      O87010   0.421   5.952   8.520
28923WAT     H187011   0.483   5.906   8.584
28923WAT     H287012   0.400   6.044   8.554
28924WAT      O87013   7.498   1.686   0.256
28924WAT     H187014   7.493   1.690   0.156
28924WAT     H287015   7.530   1.595   0.284
28925WAT      O87016   2.430   5.027   1.030
28925WAT     H187017   2.407   5.110   1.080
28925WAT     H287018   2.482   5.050   0.948
28926WAT      O87019   1.053   7.276   2.753
28926WAT     H187020   1.008   7.347   2.806
28926WAT     H287021   1.147   7.265   2.785
28927WAT      O87022   4.709   4.485   3.848
28927WAT     H187023   4.683   4.524   3.937
28927WAT     H287024   4.799   4.442   3.856
28928WAT      O87025   7.207   9.618   6.243
28928WAT     H187026   7.265   9.636   6.322
28928WAT     H287027   7.247   9.661   6.162
28929WAT      O87028   5.494   2.252   0.958
28929WAT     H187029   5.545   2.166   0.964
28929WAT     H287030   5.479   2.289   1.050
28930WAT      O87031   3.212   2.691   7.279
28930WAT     H187032   3.286   2.748   7.317
28930WAT     H287033   3.171   2.637   7.353
28931WAT      O87034   7.221   3.305   6.169
28931WAT     H187035   7.223   3.357   6.083
28931WAT     H287036   7.138   3.330   6.220
28932WAT      O87037   9.265   6.838   8.716
28932WAT     H187038   9.188   6.786   8.752
28932WAT     H287039   9.282   6.917   8.774
28933WAT      O87040   4.329   6.704   1.338
28933WAT     H187041   4.373   6.712   1.428
28933WAT     H287042   4.317   6.608   1.315
28934WAT      O87043   1.388   4.694   1.049
28934WAT     H187044   1.478   4.717   1.087
28934WAT     H287045   1.398   4.617   0.986
28935WAT      O87046   5.242   1.074   8.406
28935WAT     H187047   5.180   1.041   8.334
28935WAT     H287048   5.324   1.017   8.408
28936WAT      O87049   4.100   9.468   5.662
28936WAT     H187050   4.105   9.567   5.652
28936WAT     H287051   4.078   9.445   5.757
28937WAT      O87052   5.806   9.050   1.187
28937WAT     H187053   5.877   9.054   1.257
28937WAT     H287054   5.748   9.131   1.193
28938WAT      O87055   2.038   7.259   9.620
28938WAT     H187056   2.032   7.242   9.521
28938WAT     H287057   2.075   7.179   9.666
28939WAT      O87058   1.515   1.519   3.277
28939WAT     H187059   1.561   1.579   3.212
28939WAT     H287060   1.450   1.461   3.227
28940WAT      O87061   3.238   3.529   1.735
28940WAT     H187062   3.288   3.580   1.665
28940WAT     H287063   3.143   3.516   1.705
28941WAT      O87064   3.269   5.296   3.445
28941WAT     H187065   3.327   5.254   3.376
28941WAT     H287066   3.298   5.391   3.460
28942WAT      O87067   1.278   3.883   3.897
28942WAT     H187068   1.377   3.882   3.909
28942WAT     H287069   1.234   3.874   3.987
28943WAT      O87070   9.248   3.238   8.983
28943WAT     H187071   9.161   3.240   8.933
28943WAT     H287072   9.317   3.194   8.926
28944WAT      O87073   2.810   9.046   4.705
28944WAT     H187074   2.782   8.966   4.652
28944WAT     H287075   2.892   9.023   4.759
28945WAT      O87076   4.107   1.511   7.457
28945WAT     H187077   4.139   1.467   7.540
28945WAT     H287078   4.007   1.519   7.459
28946WAT      O87079   9.618   6.054   8.132
28946WAT     H187080   9.593   6.131   8.190
28946WAT     H287081   9.704   6.073   8.087
28947WAT      O87082   5.561   6.931   4.434
28947WAT     H187083   5.657   6.928   4.406
28947WAT     H287084   5.550   6.882   4.521
28948WAT      O87085   9.526   1.759   0.684
28948WAT     H187086   9.539   1.828   0.755
28948WAT     H287087   9.507   1.671   0.726
28949WAT      O87088   2.058   1.282   8.146
28949WAT     H187089   2.073   1.183   8.139
28949WAT     H287090   2.145   1.330   8.143
28950WAT      O87091   1.906   9.797   7.747
28950WAT     H187092   1.917   9.718   7.687
28950WAT     H287093   1.809   9.817   7.758
28951WAT      O87094   1.687   2.004   1.571
28951WAT     H187095   1.779   1.997   1.531
28951WAT     H287096   1.635   2.074   1.521
28952WAT      O87097   5.819   9.542   4.518
28952WAT     H187098   5.885   9.592   4.462
28952WAT     H287099   5.727   9.560   4.484
28953WAT      O87100   4.951   1.060   7.762
28953WAT     H187101   4.967   1.023   7.853
28953WAT     H287102   4.865   1.024   7.726
28954WAT      O87103   7.212   4.447   7.571
28954WAT     H187104   7.139   4.422   7.507
28954WAT     H287105   7.300   4.418   7.536
28955WAT      O87106   9.329   0.815   1.062
28955WAT     H187107   9.286   0.727   1.084
28955WAT     H287108   9.316   0.836   0.965
28956WAT      O87109   8.456   2.483   0.447
28956WAT     H187110   8.433   2.497   0.544
28956WAT     H287111   8.385   2.429   0.403
28957WAT      O87112   2.663   0.050   7.177
28957WAT     H187113   2.668   0.097   7.089
28957WAT     H287114   2.639   0.116   7.249
28958WAT      O87115   8.965   8.789   4.824
28958WAT     H187116   8.923   8.869   4.781
28958WAT     H287117   9.055   8.774   4.785
28959WAT      O87118   5.053   1.223   8.849
28959WAT     H187119   5.089   1.141   8.894
28959WAT     H287120   5.114   1.300   8.867
28960WAT      O87121   1.515   6.287   3.014
28960WAT     H187122   1.527   6.228   3.094
28960WAT     H287123   1.586   6.357   3.012
28961WAT      O87124   2.935   6.029   0.704
28961WAT     H187125   3.012   6.010   0.643
28961WAT     H287126   2.854   6.052   0.650
28962WAT      O87127   6.509   9.136   6.587
28962WAT     H187128   6.505   9.175   6.495
28962WAT     H287129   6.601   9.148   6.624
28963WAT      O87130   6.748   4.786   1.902
28963WAT     H187131   6.747   4.855   1.830
28963WAT     H287132   6.695   4.819   1.980
28964WAT      O87133   5.665   8.171   1.551
28964WAT     H187134   5.727   8.136   1.622
28964WAT     H287135   5.597   8.101   1.529
28965WAT      O87136   5.764   4.959   1.753
28965WAT     H187137   5.818   5.043   1.750
28965WAT     H287138   5.825   4.880   1.743
28966WAT      O87139   2.511   6.296   3.698
28966WAT     H187140   2.544   6.282   3.605
28966WAT     H287141   2.495   6.207   3.741
28967WAT      O87142   9.735   9.576   7.804
28967WAT     H187143   9.720   9.504   7.737
28967WAT     H287144   9.684   9.658   7.778
28968WAT      O87145   7.434   5.080   4.456
28968WAT     H187146   7.451   5.136   4.537
28968WAT     H287147   7.364   5.124   4.399
28969WAT      O87148   9.608   7.894   9.121
28969WAT     H187149   9.684   7.872   9.060
28969WAT     H287150   9.576   7.987   9.102
28970WAT      O87151   1.784   8.461   7.896
28970WAT     H187152   1.700   8.426   7.936
28970WAT     H287153   1.765   8.545   7.845
28971WAT      O87154   1.812   6.724   0.822
28971WAT     H187155   1.889   6.676   0.781
28971WAT     H287156   1.845   6.788   0.891
28972WAT      O87157   7.863   5.288   5.827
28972WAT     H187158   7.769   5.305   5.796
28972WAT     H287159   7.925   5.291   5.749
28973WAT      O87160   8.245   2.184   5.190
28973WAT     H187161   8.238   2.267   5.245
28973WAT     H287162   8.169   2.122   5.213
28974WAT      O87163   1.428   1.919   6.024
28974WAT     H187164   1.508   1.861   6.036
28974WAT     H287165   1.366   1.878   5.957
28975WAT      O87166   1.737   7.318   4.788
28975WAT     H187167   1.771   7.409   4.812
28975WAT     H287168   1.701   7.273   4.870
28976WAT      O87169   9.336   5.458   0.719
28976WAT     H187170   9.402   5.396   0.762
28976WAT     H287171   9.329   5.437   0.622
28977WAT      O87172   1.025   1.571   7.334
28977WAT     H187173   1.034   1.531   7.243
28977WAT     H287174   1.104   1.545   7.390
28978WAT      O87175   4.882   6.888   1.346
28978WAT     H187176   4.873   6.973   1.397
28978WAT     H287177   4.846   6.901   1.253
28979WAT      O87178   0.995   6.335   1.399
28979WAT     H187179   1.017   6.258   1.340
28979WAT     H287180   1.043   6.326   1.486
28980WAT      O87181   6.294   0.395   4.870
28980WAT     H187182   6.375   0.398   4.928
28980WAT     H287183   6.285   0.303   4.831
28981WAT      O87184   2.856   5.553   2.763
28981WAT     H187185   2.955   5.568   2.771
28981WAT     H287186   2.837   5.503   2.679
28982WAT      O87187   8.309   1.306   0.527
28982WAT     H187188   8.364   1.389   0.519
28982WAT     H287189   8.355   1.241   0.587
28983WAT      O87190   0.914   4.390   6.706
28983WAT     H187191   0.961   4.477   6.722
28983WAT     H287192   0.970   4.315   6.743
28984WAT      O87193   0.758   7.215   5.746
28984WAT     H187194   0.815   7.159   5.687
28984WAT     H287195   0.662   7.204   5.720
28985WAT      O87196   3.563   8.722   9.831
28985WAT     H187197   3.485   8.785   9.834
28985WAT     H287198   3.596   8.714   9.737
28986WAT      O87199   2.789   3.548   7.929
28986WAT     H187200   2.773   3.590   7.840
28986WAT     H287201   2.836   3.613   7.989
28987WAT      O87202   9.308   3.094   9.502
28987WAT     H187203   9.404   3.093   9.529
28987WAT     H287204   9.302   3.107   9.403
28988WAT      O87205   3.693   4.551   5.328
28988WAT     H187206   3.733   4.483   5.390
28988WAT     H287207   3.654   4.504   5.248
28989WAT      O87208   8.596   5.204   0.301
28989WAT     H187209   8.611   5.227   0.205
28989WAT     H287210   8.565   5.109   0.308
28990WAT      O87211   9.392   1.218   0.246
28990WAT     H187212   9.404   1.231   0.147
28990WAT     H287213   9.295   1.227   0.268
28991WAT      O87214   4.120   8.428   9.281
28991WAT     H187215   4.046   8.371   9.245
28991WAT     H287216   4.089   8.522   9.290
28992WAT      O87217   8.349   2.615   1.307
28992WAT     H187218   8.341   2.576   1.216
28992WAT     H287219   8.400   2.701   1.302
28993WAT      O87220   3.835   4.664   0.905
28993WAT     H187221   3.830   4.688   1.002
28993WAT     H287222   3.897   4.728   0.858
28994WAT      O87223   6.517   4.329   4.127
28994WAT     H187224   6.422   4.301   4.112
28994WAT     H287225   6.521   4.429   4.132
28995WAT      O87226   6.017   9.696   4.363
28995WAT     H187227   6.019   9.628   4.290
28995WAT     H287228   5.975   9.780   4.329
28996WAT      O87229   3.842   0.873   5.565
28996WAT     H187230   3.921   0.813   5.575
28996WAT     H287231   3.848   0.947   5.632
28997WAT      O87232   4.609   9.018   8.395
28997WAT     H187233   4.562   8.990   8.478
28997WAT     H287234   4.562   9.097   8.355
28998WAT      O87235   2.305   5.331   3.629
28998WAT     H187236   2.266   5.390   3.558
28998WAT     H287237   2.400   5.358   3.645
28999WAT      O87238   2.574   7.196   8.759
28999WAT     H187239   2.600   7.113   8.710
28999WAT     H287240   2.604   7.276   8.707
29000WAT      O87241   2.660   8.808   4.020
29000WAT     H187242   2.676   8.884   4.083
29000WAT     H287243   2.669   8.840   3.926
29001WAT      O87244   7.075   0.641   6.823
29001WAT     H187245   7.021   0.617   6.742
29001WAT     H287246   7.166   0.670   6.793
29002WAT      O87247   0.786   1.757   1.382
29002WAT     H187248   0.878   1.727   1.407
29002WAT     H287249   0.740   1.793   1.463
29003WAT      O87250   1.059   1.454   4.222
29003WAT     H187251   1.045   1.472   4.124
29003WAT     H287252   1.011   1.524   4.275
29004WAT      O87253   1.223   3.135   3.669
29004WAT     H187254   1.125   3.142   3.650
29004WAT     H287255   1.258   3.049   3.632
29005WAT      O87256   6.785   2.741   1.824
29005WAT     H187257   6.719   2.723   1.897
29005WAT     H287258   6.832   2.656   1.800
29006WAT      O87259   4.731   1.308   9.504
29006WAT     H187260   4.640   1.276   9.479
29006WAT     H287261   4.794   1.292   9.428
29007WAT      O87262   8.429   8.955   0.727
29007WAT     H187263   8.458   9.034   0.673
29007WAT     H287264   8.494   8.939   0.801
29008WAT      O87265   4.597   0.559   4.180
29008WAT     H187266   4.695   0.568   4.198
29008WAT     H287267   4.582   0.485   4.115
29009WAT      O87268   2.186   6.678   8.685
29009WAT     H187269   2.142   6.671   8.775
29009WAT     H287270   2.265   6.739   8.692
29010WAT      O87271   0.923   4.960   5.071
29010WAT     H187272   0.992   4.895   5.103
29010WAT     H287273   0.876   5.000   5.149
29011WAT      O87274   5.892   8.925   5.701
29011WAT     H187275   5.916   8.871   5.620
29011WAT     H287276   5.951   8.898   5.777
29012WAT      O87277   1.653   1.889   3.875
29012WAT     H187278   1.630   1.851   3.965
29012WAT     H287279   1.604   1.975   3.862
29013WAT      O87280   0.477   4.484   5.336
29013WAT     H187281   0.543   4.473   5.410
29013WAT     H287282   0.526   4.505   5.251
29014WAT      O87283   4.662   1.045   4.908
29014WAT     H187284   4.718   1.025   4.828
29014WAT     H287285   4.663   1.143   4.926
29015WAT      O87286   8.162   4.261   4.749
29015WAT     H187287   8.127   4.335   4.692
29015WAT     H287288   8.242   4.221   4.706
29016WAT      O87289   1.707   3.121   9.626
29016WAT     H187290   1.794   3.170   9.632
29016WAT     H287291   1.706   3.063   9.545
29017WAT      O87292   8.009   8.774   7.225
29017WAT     H187293   8.066   8.749   7.304
29017WAT     H287294   8.068   8.812   7.153
29018WAT      O87295   5.243   8.818   9.292
29018WAT     H187296   5.337   8.830   9.322
29018WAT     H287297   5.228   8.724   9.264
29019WAT      O87298   8.346   1.963   6.664
29019WAT     H187299   8.294   1.910   6.730
29019WAT     H287300   8.297   1.964   6.576
29020WAT      O87301   9.761   3.406   5.844
29020WAT     H187302   9.836   3.415   5.910
29020WAT     H287303   9.745   3.495   5.801
29021WAT      O87304   8.003   6.061   2.997
29021WAT     H187305   8.103   6.060   2.998
29021WAT     H287306   7.971   6.116   2.920
29022WAT      O87307   1.918   7.133   5.065
29022WAT     H187308   1.821   7.153   5.051
29022WAT     H287309   1.941   7.045   5.023
29023WAT      O87310   6.592   1.770   8.686
29023WAT     H187311   6.557   1.681   8.657
29023WAT     H287312   6.627   1.820   8.607
29024WAT      O87313   7.300   0.221   3.214
29024WAT     H187314   7.219   0.209   3.156
29024WAT     H287315   7.273   0.223   3.310
29025WAT      O87316   8.266   9.766   3.159
29025WAT     H187317   8.308   9.705   3.091
29025WAT     H287318   8.200   9.826   3.113
29026WAT      O87319   8.727   2.460   2.495
29026WAT     H187320   8.751   2.447   2.591
29026WAT     H287321   8.783   2.535   2.457
29027WAT      O87322   8.852   4.212   9.441
29027WAT     H187323   8.901   4.299   9.434
29027WAT     H287324   8.756   4.226   9.417
29028WAT      O87325   5.376   7.961   4.842
29028WAT     H187326   5.336   7.970   4.934
29028WAT     H287327   5.468   7.998   4.842
29029WAT      O87328   0.682   1.120   9.708
29029WAT     H187329   0.774   1.091   9.681
29029WAT     H287330   0.648   1.188   9.643
29030WAT      O87331   8.277   7.451   9.518
29030WAT     H187332   8.262   7.523   9.450
29030WAT     H287333   8.224   7.370   9.493
29031WAT      O87334   3.251   5.390   2.390
29031WAT     H187335   3.337   5.422   2.428
29031WAT     H287336   3.217   5.458   2.324
29032WAT      O87337   7.193   7.956   0.326
29032WAT     H187338   7.157   8.029   0.383
29032WAT     H287339   7.206   7.989   0.233
29033WAT      O87340   0.223   2.696   9.597
29033WAT     H187341   0.126   2.708   9.617
29033WAT     H287342   0.247   2.599   9.606
29034WAT      O87343   3.890   0.120   2.497
29034WAT     H187344   3.932   0.057   2.562
29034WAT     H287345   3.815   0.169   2.542
29035WAT      O87346   6.288   0.408   7.351
29035WAT     H187347   6.315   0.495   7.393
29035WAT     H287348   6.225   0.425   7.276
29036WAT      O87349   8.594   6.762   8.256
29036WAT     H187350   8.645   6.701   8.316
29036WAT     H287351   8.517   6.802   8.307
29037WAT      O87352   0.676   7.154   1.951
29037WAT     H187353   0.697   7.166   1.854
29037WAT     H287354   0.754   7.112   1.997
29038WAT      O87355   0.659   7.632   6.545
29038WAT     H187356   0.751   7.668   6.562
29038WAT     H287357   0.630   7.658   6.453
29039WAT      O87358   8.446   8.759   2.532
29039WAT     H187359   8.483   8.810   2.610
29039WAT     H287360   8.347   8.746   2.544
29040WAT      O87361   6.570   1.981   9.235
29040WAT     H187362   6.624   1.904   9.201
29040WAT     H287363   6.531   2.032   9.158
29041WAT      O87364   1.926   5.375   0.517
29041WAT     H187365   1.969   5.443   0.457
29041WAT     H287366   1.904   5.293   0.464
29042WAT      O87367   1.494   4.678   5.347
29042WAT     H187368   1.476   4.770   5.314
29042WAT     H287369   1.592   4.666   5.361
29043WAT      O87370   7.283   6.500   8.958
29043WAT     H187371   7.190   6.535   8.944
29043WAT     H287372   7.304   6.431   8.888
29044WAT      O87373   6.161   1.372   2.177
29044WAT     H187374   6.080   1.320   2.205
29044WAT     H287375   6.235   1.309   2.155
29045WAT      O87376   2.672   7.794   7.569
29045WAT     H187377   2.607   7.858   7.528
29045WAT     H287378   2.709   7.734   7.498
29046WAT      O87379   0.420   4.830   2.430
29046WAT     H187380   0.382   4.767   2.362
29046WAT     H287381   0.503   4.791   2.469
29047WAT      O87382   7.392   8.370   5.946
29047WAT     H187383   7.334   8.351   6.025
29047WAT     H287384   7.414   8.285   5.899
29048WAT      O87385   9.138   7.663   0.024
29048WAT     H187386   9.136   7.603  -0.056
29048WAT     H287387   9.163   7.756  -0.005
29049WAT      O87388   1.802   5.398   6.720
29049WAT     H187389   1.748   5.381   6.803
29049WAT     H287390   1.741   5.427   6.647
29050WAT      O87391   7.898   1.779   7.152
29050WAT     H187392   7.876   1.719   7.229
29050WAT     H287393   7.997   1.795   7.150
29051WAT      O87394   2.773   9.623   2.114
29051WAT     H187395   2.717   9.576   2.182
29051WAT     H287396   2.844   9.561   2.081
29052WAT      O87397   6.298   4.408   0.456
29052WAT     H187398   6.387   4.399   0.412
29052WAT     H287399   6.262   4.501   0.442
29053WAT      O87400   6.164   9.778   2.084
29053WAT     H187401   6.193   9.865   2.045
29053WAT     H287402   6.064   9.775   2.088
29054WAT      O87403   8.692   1.431   7.596
29054WAT     H187404   8.755   1.386   7.533
29054WAT     H287405   8.646   1.362   7.652
29055WAT      O87406   7.497   0.578   0.164
29055WAT     H187407   7.563   0.599   0.236
29055WAT     H287408   7.488   0.479   0.154
29056WAT      O87409   4.084   5.465   6.634
29056WAT     H187410   4.000   5.515   6.656
29056WAT     H287411   4.151   5.481   6.707
29057WAT      O87412   8.664   1.116   5.686
29057WAT     H187413   8.712   1.097   5.772
29057WAT     H287414   8.566   1.107   5.700
29058WAT      O87415   7.849   4.027   7.894
29058WAT     H187416   7.918   4.014   7.823
29058WAT     H287417   7.893   4.031   7.984
29059WAT      O87418   3.010   9.266   2.864
29059WAT     H187419   3.068   9.197   2.821
29059WAT     H287420   2.914   9.244   2.847
29060WAT      O87421   5.691   0.225   8.793
29060WAT     H187422   5.672   0.250   8.699
29060WAT     H287423   5.688   0.126   8.803
29061WAT      O87424   2.018   0.918   2.757
29061WAT     H187425   2.001   0.961   2.668
29061WAT     H287426   2.005   0.985   2.830
29062WAT      O87427   9.611   2.370   4.689
29062WAT     H187428   9.525   2.326   4.668
29062WAT     H287429   9.676   2.355   4.615
29063WAT      O87430   0.310   9.335   9.516
29063WAT     H187431   0.375   9.383   9.456
29063WAT     H287432   0.225   9.318   9.466
29064WAT      O87433   8.908   1.054   9.090
29064WAT     H187434   8.829   1.017   9.140
29064WAT     H287435   8.992   1.023   9.134
29065WAT      O87436   0.971   3.177   5.611
29065WAT     H187437   0.919   3.175   5.525
29065WAT     H287438   0.909   3.158   5.688
29066WAT      O87439   8.955   8.717   2.770
29066WAT     H187440   8.997   8.698   2.859
29066WAT     H287441   8.943   8.632   2.720
29067WAT      O87442   9.744   5.612   1.441
29067WAT     H187443   9.766   5.673   1.517
29067WAT     H287444   9.672   5.653   1.385
29068WAT      O87445   4.939   9.415   4.644
29068WAT     H187446   4.934   9.513   4.664
29068WAT     H287447   4.956   9.364   4.728
29069WAT      O87448   7.553   9.328   2.722
29069WAT     H187449   7.599   9.363   2.804
29069WAT     H287450   7.610   9.345   2.642
29070WAT      O87451   3.461   4.805   7.825
29070WAT     H187452   3.442   4.841   7.916
29070WAT     H287453   3.465   4.705   7.829
29071WAT      O87454   7.842   3.877   6.892
29071WAT     H187455   7.904   3.800   6.907
29071WAT     H287456   7.847   3.906   6.796
29072WAT      O87457   3.990   7.905   1.637
29072WAT     H187458   4.079   7.860   1.635
29072WAT     H287459   3.957   7.911   1.731
29073WAT      O87460   7.815   2.469   7.015
29073WAT     H187461   7.774   2.461   7.106
29073WAT     H287462   7.743   2.476   6.947
29074WAT      O87463   9.354   1.904   4.438
29074WAT     H187464   9.446   1.891   4.399
29074WAT     H287465   9.302   1.966   4.380
29075WAT      O87466   9.400   3.157   1.057
29075WAT     H187467   9.390   3.116   1.147
29075WAT     H287468   9.496   3.153   1.029
29076WAT      O87469   8.913   8.985   2.006
29076WAT     H187470   8.927   8.887   1.989
29076WAT     H287471   8.856   9.023   1.933
29077WAT      O87472   3.000   8.977   8.095
29077WAT     H187473   3.098   8.962   8.084
29077WAT     H287474   2.985   9.060   8.149
29078WAT      O87475   3.247   9.496   7.209
29078WAT     H187476   3.333   9.535   7.177
29078WAT     H287477   3.194   9.465   7.130
29079WAT      O87478   2.408   2.640   0.201
29079WAT     H187479   2.485   2.676   0.148
29079WAT     H287480   2.393   2.544   0.177
29080WAT      O87481   0.691   7.320   2.520
29080WAT     H187482   0.678   7.233   2.472
29080WAT     H287483   0.637   7.320   2.604
29081WAT      O87484   9.054   0.776   0.359
29081WAT     H187485   9.122   0.828   0.308
29081WAT     H287486   9.038   0.688   0.314
29082WAT      O87487   5.288   9.077   8.988
29082WAT     H187488   5.370   9.028   9.020
29082WAT     H287489   5.316   9.162   8.943
29083WAT      O87490   8.432   6.024   5.518
29083WAT     H187491   8.527   5.992   5.512
29083WAT     H287492   8.430   6.117   5.552
29084WAT      O87493   5.967   6.807   4.802
29084WAT     H187494   6.063   6.783   4.812
29084WAT     H287495   5.930   6.832   4.892
29085WAT      O87496   4.077   0.102   2.054
29085WAT     H187497   4.039   0.168   1.989
29085WAT     H287498   4.004   0.069   2.115
29086WAT      O87499   6.927   2.495   3.999
29086WAT     H187500   6.895   2.409   3.958
29086WAT     H287501   6.849   2.558   4.007
29087WAT      O87502   2.981   7.704   5.376
29087WAT     H187503   2.916   7.666   5.441
29087WAT     H287504   3.052   7.636   5.355
29088WAT      O87505   4.021   1.358   1.080
29088WAT     H187506   3.926   1.328   1.073
29088WAT     H287507   4.070   1.297   1.141
29089WAT      O87508   9.873   4.616   1.378
29089WAT     H187509   9.973   4.623   1.384
29089WAT     H287510   9.832   4.657   1.460
29090WAT      O87511   1.414   7.255   0.124
29090WAT     H187512   1.395   7.250   0.222
29090WAT     H287513   1.342   7.207   0.074
29091WAT      O87514   6.622   6.991   9.661
29091WAT     H187515   6.596   7.068   9.718
29091WAT     H287516   6.555   6.979   9.587
29092WAT      O87517   7.287   1.669   0.051
29092WAT     H187518   7.241   1.590   0.090
29092WAT     H287519   7.367   1.639  -0.001
29093WAT      O87520   6.039   1.921   2.841
29093WAT     H187521   6.098   1.981   2.787
29093WAT     H287522   6.089   1.839   2.868
29094WAT      O87523   6.477   5.401   3.901
29094WAT     H187524   6.426   5.349   3.969
29094WAT     H287525   6.539   5.465   3.947
29095WAT      O87526   1.575   3.552   6.709
29095WAT     H187527   1.480   3.581   6.703
29095WAT     H287528   1.631   3.627   6.743
29096WAT      O87529   4.683   3.211   3.050
29096WAT     H187530   4.723   3.290   3.003
29096WAT     H287531   4.632   3.243   3.130
29097WAT      O87532   1.594   1.703   8.548
29097WAT     H187533   1.647   1.637   8.601
29097WAT     H287534   1.591   1.790   8.596
29098WAT      O87535   9.836   3.199   4.730
29098WAT     H187536   9.736   3.193   4.721
29098WAT     H287537   9.878   3.129   4.673
29099WAT      O87538   5.087   9.194   5.809
29099WAT     H187539   5.032   9.216   5.890
29099WAT     H287540   5.065   9.102   5.778
29100WAT      O87541   1.653   9.445   5.596
29100WAT     H187542   1.678   9.533   5.557
29100WAT     H287543   1.554   9.436   5.599
29101WAT      O87544   1.729   6.192   4.922
29101WAT     H187545   1.765   6.197   4.830
29101WAT     H287546   1.635   6.157   4.919
29102WAT      O87547   8.035   9.332   9.881
29102WAT     H187548   8.068   9.239   9.862
29102WAT     H287549   8.017   9.341   9.979
29103WAT      O87550   4.503   4.159   1.981
29103WAT     H187551   4.512   4.249   2.023
29103WAT     H287552   4.408   4.143   1.954
29104WAT      O87553   9.515   2.907   4.677
29104WAT     H187554   9.464   2.895   4.762
29104WAT     H287555   9.452   2.938   4.605
29105WAT      O87556   7.085   4.371   1.804
29105WAT     H187557   7.166   4.321   1.834
29105WAT     H287558   7.111   4.459   1.766
29106WAT      O87559   7.679   8.985   9.359
29106WAT     H187560   7.648   9.064   9.412
29106WAT     H287561   7.770   8.958   9.390
29107WAT      O87562   3.881   1.139   6.287
29107WAT     H187563   3.790   1.099   6.297
29107WAT     H287564   3.917   1.162   6.377
29108WAT      O87565   8.873   1.747   1.849
29108WAT     H187566   8.872   1.809   1.927
29108WAT     H287567   8.924   1.789   1.774
29109WAT      O87568   7.547   0.126   3.866
29109WAT     H187569   7.621   0.180   3.908
29109WAT     H287570   7.473   0.187   3.839
29110WAT      O87571   3.921   2.757   0.515
29110WAT     H187572   3.957   2.679   0.462
29110WAT     H287573   3.836   2.790   0.472
29111WAT      O87574   8.646   3.949   5.861
29111WAT     H187575   8.701   3.866   5.848
29111WAT     H287576   8.695   4.012   5.920
29112WAT      O87577   3.959   8.388   8.837
29112WAT     H187578   3.979   8.431   8.749
29112WAT     H287579   4.041   8.389   8.894
29113WAT      O87580   7.083   8.402   5.687
29113WAT     H187581   7.084   8.389   5.786
29113WAT     H287582   7.142   8.334   5.644
29114WAT      O87583   8.460   5.829   8.938
29114WAT     H187584   8.447   5.775   8.855
29114WAT     H287585   8.548   5.806   8.980
29115WAT      O87586   4.077   2.541   0.429
29115WAT     H187587   4.103   2.497   0.343
29115WAT     H287588   4.159   2.560   0.483
29116WAT      O87589   8.158   7.752   2.281
29116WAT     H187590   8.179   7.850   2.289
29116WAT     H287591   8.064   7.736   2.312
29117WAT      O87592   7.576   8.213   9.667
29117WAT     H187593   7.638   8.191   9.592
29117WAT     H287594   7.538   8.305   9.653
29118WAT      O87595   6.230   2.301   8.281
29118WAT     H187596   6.140   2.302   8.324
29118WAT     H287597   6.221   2.273   8.185
29119WAT      O87598   5.185   2.412   1.376
29119WAT     H187599   5.273   2.446   1.408
29119WAT     H287600   5.124   2.397   1.454
29120WAT      O87601   1.040   6.003   4.288
29120WAT     H187602   0.980   5.933   4.327
29120WAT     H287603   0.985   6.082   4.261
29121WAT      O87604   2.512   0.113   2.543
29121WAT     H187605   2.606   0.101   2.578
29121WAT     H287606   2.511   0.186   2.475
29122WAT      O87607   7.721   8.786   3.951
29122WAT     H187608   7.767   8.735   3.878
29122WAT     H287609   7.624   8.761   3.953
29123WAT      O87610   0.159   3.991   5.782
29123WAT     H187611   0.255   3.965   5.789
29123WAT     H287612   0.139   4.063   5.848
29124WAT      O87613   1.609   9.721   9.463
29124WAT     H187614   1.530   9.687   9.514
29124WAT     H287615   1.676   9.760   9.527
29125WAT      O87616   2.834   9.203   5.973
29125WAT     H187617   2.815   9.202   6.072
29125WAT     H287618   2.883   9.120   5.948
29126WAT      O87619   4.350   3.092   9.327
29126WAT     H187620   4.290   3.075   9.249
29126WAT     H287621   4.425   3.026   9.327
29127WAT      O87622   8.528   8.273   2.492
29127WAT     H187623   8.564   8.251   2.401
29127WAT     H287624   8.428   8.266   2.491
29128WAT      O87625   5.426   7.224   6.646
29128WAT     H187626   5.438   7.184   6.737
29128WAT     H287627   5.369   7.163   6.591
29129WAT      O87628   9.444   0.923   6.453
29129WAT     H187629   9.459   1.015   6.490
29129WAT     H287630   9.523   0.896   6.399
29130WAT      O87631   5.018   3.154   5.742
29130WAT     H187632   5.110   3.147   5.782
29130WAT     H287633   4.963   3.076   5.773
29131WAT      O87634   9.071   1.549   0.181
29131WAT     H187635   9.152   1.520   0.130
29131WAT     H287636   9.054   1.646   0.165
29132WAT      O87637   9.614   5.842   0.008
29132WAT     H187638   9.546   5.909  -0.023
29132WAT     H287639   9.601   5.756  -0.041
29133WAT      O87640   2.361   2.349   3.849
29133WAT     H187641   2.304   2.416   3.897
29133WAT     H287642   2.393   2.388   3.762
29134WAT      O87643   5.512   6.459   3.752
29134WAT     H187644   5.523   6.366   3.716
29134WAT     H287645   5.516   6.524   3.677
29135WAT      O87646   7.960   8.299   8.680
29135WAT     H187647   7.889   8.235   8.653
29135WAT     H287648   7.936   8.341   8.768
29136WAT      O87649   6.745   7.685   2.751
29136WAT     H187650   6.720   7.744   2.828
29136WAT     H287651   6.772   7.595   2.785
29137WAT      O87652   7.803   9.353   5.877
29137WAT     H187653   7.893   9.311   5.873
29137WAT     H287654   7.763   9.355   5.785
29138WAT      O87655   5.245   0.724   8.487
29138WAT     H187656   5.200   0.787   8.551
29138WAT     H287657   5.192   0.639   8.482
29139WAT      O87658   0.315   2.525   6.995
29139WAT     H187659   0.318   2.486   6.903
29139WAT     H287660   0.228   2.501   7.038
29140WAT      O87661   6.969   1.942   4.881
29140WAT     H187662   7.008   1.996   4.807
29140WAT     H287663   7.042   1.905   4.938
29141WAT      O87664   3.395   7.506   9.646
29141WAT     H187665   3.400   7.510   9.745
29141WAT     H287666   3.347   7.423   9.617
29142WAT      O87667   3.728   9.431   9.760
29142WAT     H187668   3.759   9.448   9.853
29142WAT     H287669   3.630   9.447   9.754
29143WAT      O87670   8.987   4.345   8.120
29143WAT     H187671   8.908   4.406   8.116
29143WAT     H287672   9.029   4.338   8.029
29144WAT      O87673   1.351   3.643   6.643
29144WAT     H187674   1.292   3.661   6.722
29144WAT     H287675   1.397   3.727   6.615
29145WAT      O87676   2.079   1.617   5.767
29145WAT     H187677   2.129   1.538   5.731
29145WAT     H287678   2.025   1.659   5.694
29146WAT      O87679   1.782   7.720   2.278
29146WAT     H187680   1.692   7.680   2.294
29146WAT     H287681   1.781   7.817   2.304
29147WAT      O87682   3.250   3.345   5.083
29147WAT     H187683   3.157   3.380   5.085
29147WAT     H287684   3.313   3.417   5.052
29148WAT      O87685   7.364   9.623   0.892
29148WAT     H187686   7.355   9.656   0.986
29148WAT     H287687   7.303   9.675   0.833
29149WAT      O87688   3.750   9.413   6.229
29149WAT     H187689   3.728   9.338   6.167
29149WAT     H287690   3.748   9.380   6.323
29150WAT      O87691   3.050   5.264   2.519
29150WAT     H187692   3.079   5.248   2.613
29150WAT     H287693   3.128   5.297   2.466
29151WAT      O87694   5.683   1.461   3.234
29151WAT     H187695   5.679   1.365   3.261
29151WAT     H287696   5.692   1.518   3.315
29152WAT      O87697   5.708   9.089   9.236
29152WAT     H187698   5.742   8.997   9.253
29152WAT     H287699   5.783   9.155   9.246
29153WAT      O87700   0.331   0.641   1.476
29153WAT     H187701   0.372   0.724   1.515
29153WAT     H287702   0.232   0.646   1.484
29154WAT      O87703   8.673   0.804   8.595
29154WAT     H187704   8.741   0.815   8.522
29154WAT     H287705   8.683   0.878   8.661
29155WAT      O87706   5.098   3.953   5.147
29155WAT     H187707   5.098   4.053   5.133
29155WAT     H287708   5.130   3.909   5.063
29156WAT      O87709   5.527   8.978   9.042
29156WAT     H187710   5.583   8.982   8.960
29156WAT     H287711   5.574   9.023   9.117
29157WAT      O87712   7.534   1.653   6.149
29157WAT     H187713   7.508   1.731   6.091
29157WAT     H287714   7.567   1.687   6.237
29158WAT      O87715   0.344   4.756   7.056
29158WAT     H187716   0.409   4.831   7.042
29158WAT     H287717   0.252   4.786   7.032
29159WAT      O87718   2.061   5.340   1.867
29159WAT     H187719   2.148   5.386   1.885
29159WAT     H287720   2.046   5.268   1.935
29160WAT      O87721   6.129   6.944   6.315
29160WAT     H187722   6.073   6.985   6.387
29160WAT     H287723   6.167   6.857   6.347
29161WAT      O87724   7.198   3.192   5.020
29161WAT     H187725   7.118   3.156   5.068
29161WAT     H287726   7.279   3.178   5.076
29162WAT      O87727   3.832   1.246   1.862
29162WAT     H187728   3.879   1.326   1.900
29162WAT     H287729   3.742   1.237   1.905
29163WAT      O87730   4.631   3.575   7.864
29163WAT     H187731   4.693   3.630   7.920
29163WAT     H287732   4.597   3.631   7.788
29164WAT      O87733   7.460   6.998   4.754
29164WAT     H187734   7.490   6.903   4.749
29164WAT     H287735   7.476   7.043   4.666
29165WAT      O87736   3.476   7.270   3.255
29165WAT     H187737   3.440   7.361   3.235
29165WAT     H287738   3.401   7.205   3.262
29166WAT      O87739   1.282   7.667   6.845
29166WAT     H187740   1.229   7.592   6.805
29166WAT     H287741   1.254   7.753   6.802
29167WAT      O87742   5.838   3.927   0.114
29167WAT     H187743   5.866   3.855   0.050
29167WAT     H287744   5.773   3.889   0.180
29168WAT      O87745   4.723   0.736   6.013
29168WAT     H187746   4.746   0.710   6.107
29168WAT     H287747   4.798   0.711   5.952
29169WAT      O87748   4.308   6.481   9.052
29169WAT     H187749   4.245   6.551   9.019
29169WAT     H287750   4.259   6.395   9.065
29170WAT      O87751   1.536   0.224   8.670
29170WAT     H187752   1.625   0.234   8.714
29170WAT     H287753   1.509   0.311   8.628
29171WAT      O87754   4.428   7.504   3.390
29171WAT     H187755   4.354   7.562   3.423
29171WAT     H287756   4.396   7.410   3.381
29172WAT      O87757   9.415   6.596   3.936
29172WAT     H187758   9.362   6.628   4.015
29172WAT     H287759   9.512   6.603   3.956
29173WAT      O87760   9.347   2.757   2.385
29173WAT     H187761   9.323   2.831   2.448
29173WAT     H287762   9.368   2.674   2.437
29174WAT      O87763   1.529   1.304   8.643
29174WAT     H187764   1.603   1.238   8.636
29174WAT     H287765   1.499   1.331   8.552
29175WAT      O87766   1.361   5.441   6.365
29175WAT     H187767   1.313   5.386   6.432
29175WAT     H287768   1.333   5.414   6.273
29176WAT      O87769   7.247   3.861   9.003
29176WAT     H187770   7.301   3.938   9.037
29176WAT     H287771   7.309   3.787   8.976
29177WAT      O87772   3.833   5.356   2.291
29177WAT     H187773   3.817   5.303   2.208
29177WAT     H287774   3.765   5.430   2.297
29178WAT      O87775   8.719   8.474   8.873
29178WAT     H187776   8.795   8.457   8.810
29178WAT     H287777   8.637   8.427   8.840
29179WAT      O87778   3.029   6.640   8.421
29179WAT     H187779   2.949   6.586   8.448
29179WAT     H287780   3.033   6.646   8.321
29180WAT      O87781   4.210   4.738   2.852
29180WAT     H187782   4.215   4.827   2.807
29180WAT     H287783   4.272   4.674   2.806
29181WAT      O87784   9.599   6.478   4.784
29181WAT     H187785   9.690   6.491   4.744
29181WAT     H287786   9.602   6.408   4.855
29182WAT      O87787   3.923   1.191   2.514
29182WAT     H187788   3.907   1.287   2.535
29182WAT     H287789   3.887   1.133   2.587
29183WAT      O87790   3.417   2.174   2.925
29183WAT     H187791   3.458   2.227   2.850
29183WAT     H287792   3.427   2.077   2.906
29184WAT      O87793   9.432   2.010   5.311
29184WAT     H187794   9.393   2.096   5.342
29184WAT     H287795   9.525   2.001   5.347
29185WAT      O87796   1.166   5.898   6.605
29185WAT     H187797   1.233   5.830   6.576
29185WAT     H287798   1.142   5.956   6.527
29186WAT      O87799   8.013   5.983   6.387
29186WAT     H187800   7.999   6.052   6.458
29186WAT     H287801   7.934   5.922   6.384
29187WAT      O87802   1.004   6.986   1.517
29187WAT     H187803   1.020   7.019   1.610
29187WAT     H287804   0.925   7.033   1.478
29188WAT      O87805   6.898   0.646   6.608
29188WAT     H187806   6.844   0.692   6.678
29188WAT     H287807   6.837   0.597   6.545
29189WAT      O87808   2.707   4.213   5.388
29189WAT     H187809   2.640   4.267   5.337
29189WAT     H287810   2.708   4.242   5.484
29190WAT      O87811   1.426   7.163   2.221
29190WAT     H187812   1.384   7.197   2.306
29190WAT     H287813   1.494   7.228   2.188
29191WAT      O87814   1.906   2.351   7.947
29191WAT     H187815   1.917   2.253   7.962
29191WAT     H287816   1.831   2.385   8.004
29192WAT      O87817   8.783   2.100   8.078
29192WAT     H187818   8.697   2.076   8.123
29192WAT     H287819   8.860   2.070   8.134
29193WAT      O87820   2.546   8.833   0.773
29193WAT     H187821   2.459   8.799   0.737
29193WAT     H287822   2.564   8.925   0.737
29194WAT      O87823   0.846   8.479   1.831
29194WAT     H187824   0.788   8.557   1.853
29194WAT     H287825   0.901   8.455   1.910
29195WAT      O87826   5.993   3.050   3.455
29195WAT     H187827   6.075   3.019   3.502
29195WAT     H287828   5.988   3.150   3.458
29196WAT      O87829   8.199   2.440   0.287
29196WAT     H187830   8.148   2.512   0.333
29196WAT     H287831   8.158   2.351   0.308
29197WAT      O87832   4.067   1.581   0.969
29197WAT     H187833   4.073   1.496   1.021
29197WAT     H287834   4.080   1.659   1.031
29198WAT      O87835   8.683   8.602   0.513
29198WAT     H187836   8.706   8.699   0.512
29198WAT     H287837   8.767   8.548   0.506
29199WAT      O87838   4.199   8.275   7.382
29199WAT     H187839   4.249   8.245   7.300
29199WAT     H287840   4.163   8.195   7.430
29200WAT      O87841   8.586   6.697   4.718
29200WAT     H187842   8.592   6.698   4.618
29200WAT     H287843   8.673   6.667   4.756
29201WAT      O87844   2.995   3.208   9.113
29201WAT     H187845   3.073   3.152   9.141
29201WAT     H287846   2.943   3.160   9.043
29202WAT      O87847   4.822   8.184   3.369
29202WAT     H187848   4.850   8.106   3.313
29202WAT     H287849   4.846   8.168   3.464
29203WAT      O87850   8.544   0.531   4.009
29203WAT     H187851   8.563   0.575   4.096
29203WAT     H287852   8.471   0.463   4.020
29204WAT      O87853   7.653   5.779   0.131
29204WAT     H187854   7.722   5.781   0.203
29204WAT     H287855   7.672   5.704   0.068
29205WAT      O87856   2.356   7.692   8.191
29205WAT     H187857   2.358   7.746   8.107
29205WAT     H287858   2.264   7.658   8.208
29206WAT      O87859   0.129   9.480   8.333
29206WAT     H187860   0.076   9.559   8.302
29206WAT     H287861   0.142   9.416   8.257
29207WAT      O87862   4.364   4.055   6.485
29207WAT     H187863   4.341   3.986   6.553
29207WAT     H287864   4.298   4.051   6.409
29208WAT      O87865   6.061   2.202   9.521
29208WAT     H187866   6.108   2.175   9.605
29208WAT     H287867   6.128   2.214   9.447
29209WAT      O87868   6.547   0.240   0.794
29209WAT     H187869   6.539   0.318   0.732
29209WAT     H287870   6.475   0.244   0.863
29210WAT      O87871   1.785   6.662   8.973
29210WAT     H187872   1.818   6.588   8.915
29210WAT     H287873   1.757   6.739   8.916
29211WAT      O87874   0.960   5.435   8.017
29211WAT     H187875   1.054   5.462   7.997
29211WAT     H287876   0.916   5.404   7.933
29212WAT      O87877   8.516   1.875   9.460
29212WAT     H187878   8.462   1.925   9.528
29212WAT     H287879   8.546   1.789   9.499
29213WAT      O87880   2.593   6.473   0.696
29213WAT     H187881   2.681   6.484   0.742
29213WAT     H287882   2.519   6.499   0.758
29214WAT      O87883   9.647   6.323   8.718
29214WAT     H187884   9.688   6.404   8.676
29214WAT     H287885   9.686   6.309   8.809
29215WAT      O87886   6.634   9.025   6.213
29215WAT     H187887   6.596   8.934   6.203
29215WAT     H287888   6.560   9.092   6.220
29216WAT      O87889   7.670   7.525   8.256
29216WAT     H187890   7.602   7.591   8.288
29216WAT     H287891   7.731   7.501   8.332
29217WAT      O87892   1.304   9.498   2.173
29217WAT     H187893   1.228   9.435   2.190
29217WAT     H287894   1.389   9.457   2.205
29218WAT      O87895   6.809   5.369   0.395
29218WAT     H187896   6.826   5.291   0.455
29218WAT     H287897   6.730   5.420   0.428
29219WAT      O87898   8.733   0.694   7.743
29219WAT     H187899   8.664   0.702   7.672
29219WAT     H287900   8.731   0.776   7.801
29220WAT      O87901   5.000   2.941   3.136
29220WAT     H187902   5.043   2.858   3.100
29220WAT     H287903   4.908   2.951   3.098
29221WAT      O87904   6.559   6.402   2.824
29221WAT     H187905   6.599   6.414   2.915
29221WAT     H287906   6.626   6.431   2.755
29222WAT      O87907   0.664   3.881   2.966
29222WAT     H187908   0.618   3.905   3.051
29222WAT     H287909   0.705   3.963   2.926
29223WAT      O87910   1.268   2.434   9.413
29223WAT     H187911   1.273   2.336   9.393
29223WAT     H287912   1.180   2.469   9.381
29224WAT      O87913   1.987   2.062   3.582
29224WAT     H187914   1.923   2.013   3.523
29224WAT     H287915   1.973   2.034   3.677
29225WAT      O87916   5.160   5.898   3.872
29225WAT     H187917   5.205   5.841   3.803
29225WAT     H287918   5.229   5.941   3.930
29226WAT      O87919   7.720   8.493   6.393
29226WAT     H187920   7.736   8.586   6.359
29226WAT     H287921   7.779   8.476   6.472
29227WAT      O87922   1.078   3.040   8.513
29227WAT     H187923   1.019   3.114   8.546
29227WAT     H287924   1.023   2.975   8.460
29228WAT      O87925   4.513   4.309   9.580
29228WAT     H187926   4.600   4.313   9.532
29228WAT     H287927   4.528   4.324   9.678
29229WAT      O87928   4.133   9.518   0.267
29229WAT     H187929   4.199   9.516   0.192
29229WAT     H287930   4.107   9.424   0.291
29230WAT      O87931   3.800   0.279   8.543
29230WAT     H187932   3.794   0.323   8.453
29230WAT     H287933   3.890   0.238   8.554
29231WAT      O87934   0.442   6.261   0.183
29231WAT     H187935   0.397   6.201   0.117
29231WAT     H287936   0.382   6.276   0.261
29232WAT      O87937   4.823   1.940   7.623
29232WAT     H187938   4.835   2.039   7.623
29232WAT     H287939   4.911   1.895   7.638
29233WAT      O87940   7.729   0.816   7.572
29233WAT     H187941   7.660   0.752   7.537
29233WAT     H287942   7.691   0.908   7.571
29234WAT      O87943   3.146   1.089   4.456
29234WAT     H187944   3.137   1.153   4.532
29234WAT     H287945   3.057   1.075   4.413
29235WAT      O87946   2.519   7.635   9.875
29235WAT     H187947   2.422   7.654   9.891
29235WAT     H287948   2.528   7.569   9.800
29236WAT      O87949   3.348   5.576   1.303
29236WAT     H187950   3.432   5.571   1.250
29236WAT     H287951   3.368   5.555   1.399
29237WAT      O87952   0.738   3.539   0.267
29237WAT     H187953   0.759   3.546   0.170
29237WAT     H287954   0.682   3.458   0.283
29238WAT      O87955   1.029   4.118   6.330
29238WAT     H187956   1.009   4.216   6.322
29238WAT     H287957   1.125   4.105   6.352
29239WAT      O87958   8.777   7.860   1.014
29239WAT     H187959   8.707   7.929   0.994
29239WAT     H287960   8.807   7.870   1.109
29240WAT      O87961   1.638   1.712   5.179
29240WAT     H187962   1.703   1.769   5.129
29240WAT     H287963   1.597   1.645   5.116
29241WAT      O87964   9.204   8.622   6.238
29241WAT     H187965   9.203   8.683   6.317
29241WAT     H287966   9.114   8.622   6.195
29242WAT      O87967   2.945   0.451   3.786
29242WAT     H187968   2.869   0.445   3.721
29242WAT     H287969   3.011   0.519   3.754
29243WAT      O87970   7.380   4.646   1.379
29243WAT     H187971   7.324   4.613   1.454
29243WAT     H287972   7.473   4.664   1.411
29244WAT      O87973   5.051   5.619   2.743
29244WAT     H187974   5.056   5.538   2.802
29244WAT     H287975   5.025   5.699   2.798
29245WAT      O87976   9.488   3.852   4.130
29245WAT     H187977   9.550   3.929   4.143
29245WAT     H287978   9.539   3.771   4.101
29246WAT      O87979   4.921   6.908   8.581
29246WAT     H187980   4.867   6.861   8.651
29246WAT     H287981   4.928   7.005   8.604
29247WAT      O87982   4.088   8.021   3.844
29247WAT     H187983   4.088   7.968   3.929
29247WAT     H287984   4.149   7.978   3.778
29248WAT      O87985   0.083   1.890   1.955
29248WAT     H187986   0.071   1.989   1.966
29248WAT     H287987   0.145   1.873   1.878
29249WAT      O87988   0.687   1.485   1.991
29249WAT     H187989   0.748   1.458   1.917
29249WAT     H287990   0.739   1.533   2.062
29250WAT      O87991   5.852   0.599   1.877
29250WAT     H187992   5.815   0.506   1.879
29250WAT     H287993   5.777   0.665   1.868
29251WAT      O87994   5.688   3.435   5.204
29251WAT     H187995   5.784   3.411   5.216
29251WAT     H287996   5.680   3.531   5.176
29252WAT      O87997   5.364   5.385   7.624
29252WAT     H187998   5.427   5.437   7.566
29252WAT     H287999   5.410   5.358   7.708
29253WAT      O88000   7.623   1.133   6.784
29253WAT     H188001   7.571   1.218   6.786
29253WAT     H288002   7.706   1.144   6.839
29254WAT      O88003   6.442   2.461   4.733
29254WAT     H188004   6.351   2.418   4.731
29254WAT     H288005   6.493   2.428   4.812
29255WAT      O88006   1.145   2.228   9.658
29255WAT     H188007   1.219   2.295   9.658
29255WAT     H288008   1.135   2.188   9.749
29256WAT      O88009   8.176   0.877   1.830
29256WAT     H188010   8.254   0.941   1.832
29256WAT     H288011   8.150   0.860   1.735
29257WAT      O88012   4.859   5.077   5.249
29257WAT     H188013   4.873   5.034   5.338
29257WAT     H288014   4.931   5.144   5.232
29258WAT      O88015   0.392   5.775   0.158
29258WAT     H188016   0.304   5.821   0.171
29258WAT     H288017   0.440   5.768   0.245
29259WAT      O88018   5.167   8.269   5.941
29259WAT     H188019   5.245   8.230   5.893
29259WAT     H288020   5.198   8.315   6.024
29260WAT      O88021   6.122   5.452   6.017
29260WAT     H188022   6.193   5.389   6.049
29260WAT     H288023   6.164   5.536   5.983
29261WAT      O88024   6.794   2.993   0.771
29261WAT     H188025   6.730   3.016   0.698
29261WAT     H288026   6.746   2.938   0.840
29262WAT      O88027   2.695   2.774   8.899
29262WAT     H188028   2.709   2.864   8.859
29262WAT     H288029   2.699   2.704   8.827
29263WAT      O88030   3.526   2.300   4.228
29263WAT     H188031   3.515   2.365   4.153
29263WAT     H288032   3.437   2.279   4.268
29264WAT      O88033   7.884   6.797   4.603
29264WAT     H188034   7.910   6.701   4.613
29264WAT     H288035   7.877   6.840   4.693
29265WAT      O88036   9.826   9.391   3.831
29265WAT     H188037   9.914   9.378   3.786
29265WAT     H288038   9.771   9.457   3.780
29266WAT      O88039   6.125   2.262   1.498
29266WAT     H188040   6.109   2.215   1.585
29266WAT     H288041   6.088   2.208   1.423
29267WAT      O88042   9.857   8.756   2.677
29267WAT     H188043   9.782   8.799   2.726
29267WAT     H288044   9.897   8.683   2.733
29268WAT      O88045   2.985   1.825   0.446
29268WAT     H188046   2.921   1.887   0.492
29268WAT     H288047   3.035   1.772   0.515
29269WAT      O88048   6.368   2.202   5.012
29269WAT     H188049   6.281   2.250   4.997
29269WAT     H288050   6.395   2.156   4.927
29270WAT      O88051   0.908   2.545   2.467
29270WAT     H188052   0.844   2.617   2.495
29270WAT     H288053   0.863   2.456   2.472
29271WAT      O88054   1.997   4.665   1.062
29271WAT     H188055   2.028   4.754   1.029
29271WAT     H288056   1.938   4.679   1.142
29272WAT      O88057   1.699   1.319   4.191
29272WAT     H188058   1.751   1.396   4.154
29272WAT     H288059   1.606   1.321   4.155
29273WAT      O88060   4.022   3.338   5.516
29273WAT     H188061   3.990   3.416   5.461
29273WAT     H288062   3.987   3.253   5.476
29274WAT      O88063   2.407   1.477   2.431
29274WAT     H188064   2.348   1.556   2.410
29274WAT     H288065   2.353   1.406   2.476
29275WAT      O88066   5.024   9.049   8.993
29275WAT     H188067   5.123   9.060   8.988
29275WAT     H288068   4.992   9.073   9.084
29276WAT      O88069   8.308   1.385   1.373
29276WAT     H188070   8.319   1.446   1.451
29276WAT     H288071   8.266   1.435   1.297
29277WAT      O88072   5.831   2.199   2.428
29277WAT     H188073   5.781   2.148   2.357
29277WAT     H288074   5.886   2.270   2.385
29278WAT      O88075   4.716   6.568   8.201
29278WAT     H188076   4.760   6.656   8.223
29278WAT     H288077   4.676   6.529   8.284
29279WAT      O88078   2.771   2.976   6.590
29279WAT     H188079   2.848   2.955   6.651
29279WAT     H288080   2.750   2.896   6.534
29280WAT      O88081   6.230   1.937   0.919
29280WAT     H188082   6.179   1.863   0.961
29280WAT     H288083   6.306   1.965   0.978
29281WAT      O88084   5.797   3.846   3.587
29281WAT     H188085   5.780   3.944   3.575
29281WAT     H288086   5.787   3.822   3.684
29282WAT      O88087   2.577   7.420   9.714
29282WAT     H188088   2.677   7.433   9.718
29282WAT     H288089   2.556   7.323   9.706
29283WAT      O88090   5.175   5.665   6.345
29283WAT     H188091   5.155   5.570   6.368
29283WAT     H288092   5.194   5.672   6.247
29284WAT      O88093   6.719   1.626   2.494
29284WAT     H188094   6.712   1.623   2.594
29284WAT     H288095   6.790   1.690   2.468
29285WAT      O88096   2.911   4.887   9.525
29285WAT     H188097   2.941   4.819   9.459
29285WAT     H288098   2.904   4.977   9.481
29286WAT      O88099   5.327   1.938   2.666
29286WAT     H188100   5.246   1.976   2.712
29286WAT     H288101   5.399   2.007   2.663
29287WAT      O88102   8.573   0.401   2.913
29287WAT     H188103   8.647   0.336   2.924
29287WAT     H288104   8.606   0.493   2.935
29288WAT      O88105   4.784   6.407   5.557
29288WAT     H188106   4.869   6.433   5.512
29288WAT     H288107   4.804   6.366   5.646
29289WAT      O88108   2.051   6.531   4.335
29289WAT     H188109   2.122   6.596   4.308
29289WAT     H288110   2.029   6.471   4.259
29290WAT      O88111   3.331   4.824   1.578
29290WAT     H188112   3.375   4.812   1.666
29290WAT     H288113   3.393   4.794   1.505
29291WAT      O88114   6.535   9.827   5.320
29291WAT     H188115   6.447   9.865   5.293
29291WAT     H288116   6.522   9.732   5.351
29292WAT      O88117   6.985   7.842   2.565
29292WAT     H188118   6.916   7.783   2.607
29292WAT     H288119   6.944   7.929   2.538
29293WAT      O88120   8.207   7.385   3.238
29293WAT     H188121   8.172   7.364   3.329
29293WAT     H288122   8.281   7.452   3.245
29294WAT      O88123   2.905   4.300   0.007
29294WAT     H188124   2.973   4.368   0.032
29294WAT     H288125   2.947   4.232  -0.054
29295WAT      O88126   5.819   4.051   2.700
29295WAT     H188127   5.844   4.139   2.739
29295WAT     H288128   5.879   4.031   2.623
29296WAT      O88129   9.228   0.158   7.925
29296WAT     H188130   9.176   0.097   7.985
29296WAT     H288131   9.309   0.192   7.974
29297WAT      O88132   2.240   0.464   5.431
29297WAT     H188133   2.242   0.370   5.397
29297WAT     H288134   2.157   0.509   5.397
29298WAT      O88135   5.475   5.659   2.054
29298WAT     H188136   5.533   5.578   2.066
29298WAT     H288137   5.417   5.647   1.974
29299WAT      O88138   4.129   1.815   1.127
29299WAT     H188139   4.071   1.844   1.203
29299WAT     H288140   4.162   1.896   1.078
29300WAT      O88141   1.568   3.783   3.651
29300WAT     H188142   1.529   3.875   3.654
29300WAT     H288143   1.522   3.725   3.719
29301WAT      O88144   6.026   3.354   7.326
29301WAT     H188145   6.068   3.440   7.356
29301WAT     H288146   6.092   3.280   7.334
29302WAT      O88147   6.803   3.360   2.156
29302WAT     H188148   6.896   3.388   2.132
29302WAT     H288149   6.791   3.263   2.138
29303WAT      O88150   8.094   6.099   9.502
29303WAT     H188151   8.169   6.085   9.437
29303WAT     H288152   8.010   6.062   9.463
29304WAT      O88153   4.367   2.661   3.084
29304WAT     H188154   4.345   2.618   2.996
29304WAT     H288155   4.324   2.751   3.089
29305WAT      O88156   7.067   5.884   2.371
29305WAT     H188157   6.997   5.871   2.301
29305WAT     H288158   7.025   5.926   2.452
29306WAT      O88159   0.936   7.507   2.840
29306WAT     H188160   0.847   7.546   2.818
29306WAT     H288161   1.008   7.565   2.801
29307WAT      O88162   0.018   4.537   2.163
29307WAT     H188163   0.030   4.524   2.261
29307WAT     H288164   0.073   4.614   2.132
29308WAT      O88165   5.845   8.743   8.411
29308WAT     H188166   5.846   8.730   8.312
29308WAT     H288167   5.853   8.654   8.456
29309WAT      O88168   8.931   6.274   1.761
29309WAT     H188169   8.951   6.295   1.665
29309WAT     H288170   9.015   6.283   1.814
29310WAT      O88171   3.716   9.463   4.156
29310WAT     H188172   3.803   9.454   4.106
29310WAT     H288173   3.680   9.555   4.143
29311WAT      O88174   7.258   6.884   7.554
29311WAT     H188175   7.313   6.889   7.470
29311WAT     H288176   7.165   6.915   7.534
29312WAT      O88177   6.908   3.877   3.398
29312WAT     H188178   6.934   3.944   3.328
29312WAT     H288179   6.926   3.785   3.365
29313WAT      O88180   7.094   5.890   6.584
29313WAT     H188181   7.192   5.887   6.605
29313WAT     H288182   7.080   5.860   6.489
29314WAT      O88183   7.750   8.291   8.030
29314WAT     H188184   7.849   8.297   8.040
29314WAT     H288185   7.709   8.381   8.043
29315WAT      O88186   0.781   8.673   3.115
29315WAT     H188187   0.686   8.644   3.102
29315WAT     H288188   0.809   8.653   3.209
29316WAT      O88189   2.863   9.008   9.657
29316WAT     H188190   2.791   8.948   9.621
29316WAT     H288191   2.845   9.102   9.629
29317WAT      O88192   7.376   3.073   1.530
29317WAT     H188193   7.375   2.985   1.577
29317WAT     H288194   7.315   3.069   1.451
29318WAT      O88195   5.152   0.324   9.393
29318WAT     H188196   5.218   0.388   9.431
29318WAT     H288197   5.185   0.230   9.407
29319WAT      O88198   0.397   7.330   6.190
29319WAT     H188199   0.373   7.323   6.093
29319WAT     H288200   0.497   7.331   6.200
29320WAT      O88201   4.830   1.932   4.741
29320WAT     H188202   4.927   1.908   4.752
29320WAT     H288203   4.798   1.980   4.823
29321WAT      O88204   5.961   0.841   9.773
29321WAT     H188205   6.054   0.874   9.759
29321WAT     H288206   5.897   0.900   9.725
29322WAT      O88207   6.607   4.913   2.109
29322WAT     H188208   6.585   4.949   2.200
29322WAT     H288209   6.553   4.830   2.092
29323WAT      O88210   8.172   1.842   7.167
29323WAT     H188211   8.237   1.769   7.145
29323WAT     H288212   8.221   1.919   7.207
29324WAT      O88213   2.903   2.328   7.081
29324WAT     H188214   2.888   2.390   7.158
29324WAT     H288215   2.874   2.236   7.106
29325WAT      O88216   5.338   9.682   5.446
29325WAT     H188217   5.391   9.644   5.370
29325WAT     H288218   5.376   9.771   5.472
29326WAT      O88219   8.300   5.556   7.585
29326WAT     H188220   8.256   5.560   7.495
29326WAT     H288221   8.346   5.643   7.603
29327WAT      O88222   3.644   2.461   5.842
29327WAT     H188223   3.651   2.440   5.745
29327WAT     H288224   3.682   2.552   5.860
29328WAT      O88225   7.981   1.875   9.615
29328WAT     H188226   7.908   1.812   9.589
29328WAT     H288227   8.026   1.843   9.698
29329WAT      O88228   1.229   2.368   5.634
29329WAT     H188229   1.280   2.455   5.632
29329WAT     H288230   1.240   2.325   5.724
29330WAT      O88231   1.889   6.415   5.008
29330WAT     H188232   1.972   6.366   5.037
29330WAT     H288233   1.818   6.349   4.984
29331WAT      O88234   2.781   2.636   4.690
29331WAT     H188235   2.874   2.656   4.658
29331WAT     H288236   2.715   2.677   4.628
29332WAT      O88237   4.551   0.038   7.477
29332WAT     H188238   4.538  -0.055   7.442
29332WAT     H288239   4.516   0.044   7.571
29333WAT      O88240   2.751   2.885   3.881
29333WAT     H188241   2.716   2.906   3.789
29333WAT     H288242   2.747   2.786   3.896
29334WAT      O88243   8.497   9.696   7.838
29334WAT     H188244   8.561   9.688   7.914
29334WAT     H288245   8.477   9.792   7.821
29335WAT      O88246   1.137   7.482   6.702
29335WAT     H188247   1.216   7.420   6.701
29335WAT     H288248   1.112   7.506   6.608
29336WAT      O88249   7.164   1.124   2.346
29336WAT     H188250   7.112   1.098   2.427
29336WAT     H288251   7.215   1.209   2.365
29337WAT      O88252   6.841   0.700   0.990
29337WAT     H188253   6.906   0.693   1.066
29337WAT     H288254   6.769   0.632   1.001
29338WAT      O88255   9.145   3.570   1.482
29338WAT     H188256   9.200   3.496   1.520
29338WAT     H288257   9.055   3.536   1.456
29339WAT      O88258   0.439   9.421   2.839
29339WAT     H188259   0.489   9.468   2.912
29339WAT     H288260   0.443   9.322   2.854
29340WAT      O88261   3.482   6.433   8.958
29340WAT     H188262   3.546   6.413   9.032
29340WAT     H288263   3.459   6.530   8.959
29341WAT      O88264   6.299   1.919   7.027
29341WAT     H188265   6.292   1.870   6.940
29341WAT     H288266   6.353   2.002   7.015
29342WAT      O88267   4.562   6.284   5.429
29342WAT     H188268   4.470   6.320   5.445
29342WAT     H288269   4.630   6.347   5.469
29343WAT      O88270   5.262   1.153   1.318
29343WAT     H188271   5.200   1.230   1.312
29343WAT     H288272   5.356   1.185   1.307
29344WAT      O88273   8.592   0.794   8.981
29344WAT     H188274   8.645   0.855   9.040
29344WAT     H288275   8.549   0.848   8.908
29345WAT      O88276   2.719   4.153   2.088
29345WAT     H188277   2.813   4.142   2.121
29345WAT     H288278   2.663   4.193   2.161
29346WAT      O88279   8.950   1.767   5.051
29346WAT     H188280   8.997   1.680   5.062
29346WAT     H288281   8.868   1.768   5.108
29347WAT      O88282   8.514   2.171   5.206
29347WAT     H188283   8.415   2.176   5.192
29347WAT     H288284   8.559   2.238   5.147
29348WAT      O88285   6.267   1.368   7.307
29348WAT     H188286   6.187   1.414   7.270
29348WAT     H288287   6.239   1.296   7.370
29349WAT      O88288   7.473   4.648   3.527
29349WAT     H188289   7.407   4.710   3.484
29349WAT     H288290   7.456   4.644   3.626
29350WAT      O88291   6.327   3.470   1.060
29350WAT     H188292   6.373   3.394   1.107
29350WAT     H288293   6.371   3.556   1.086
29351WAT      O88294   1.519   2.345   4.040
29351WAT     H188295   1.576   2.277   3.995
29351WAT     H288296   1.448   2.299   4.094
29352WAT      O88297   0.602   1.530   8.210
29352WAT     H188298   0.586   1.587   8.130
29352WAT     H288299   0.677   1.569   8.264
29353WAT      O88300   3.931   2.430   5.591
29353WAT     H188301   3.836   2.447   5.562
29353WAT     H288302   3.993   2.462   5.519
29354WAT      O88303   8.487   4.848   0.551
29354WAT     H188304   8.392   4.840   0.581
29354WAT     H288305   8.548   4.821   0.626
29355WAT      O88306   1.863   8.975   7.967
29355WAT     H188307   1.961   8.964   7.955
29355WAT     H288308   1.829   9.047   7.906
29356WAT      O88309   7.310   4.025   9.452
29356WAT     H188310   7.403   4.018   9.416
29356WAT     H288311   7.306   3.978   9.541
29357WAT      O88312   0.781   5.235   8.684
29357WAT     H188313   0.818   5.261   8.773
29357WAT     H288314   0.845   5.173   8.638
29358WAT      O88315   6.298   9.278   5.973
29358WAT     H188316   6.249   9.212   5.916
29358WAT     H288317   6.288   9.370   5.934
29359WAT      O88318   9.627   5.957   2.464
29359WAT     H188319   9.651   5.990   2.555
29359WAT     H288320   9.601   6.035   2.406
29360WAT      O88321   6.223   2.555   4.548
29360WAT     H188322   6.221   2.651   4.520
29360WAT     H288323   6.298   2.542   4.613
29361WAT      O88324   2.399   7.406   0.110
29361WAT     H188325   2.449   7.491   0.123
29361WAT     H288326   2.454   7.342   0.056
29362WAT      O88327   5.659   1.726   9.385
29362WAT     H188328   5.666   1.642   9.331
29362WAT     H288329   5.748   1.772   9.388
29363WAT      O88330   6.642   5.802   6.068
29363WAT     H188331   6.651   5.703   6.068
29363WAT     H288332   6.588   5.831   5.988
29364WAT      O88333   4.762   4.513   9.264
29364WAT     H188334   4.800   4.550   9.178
29364WAT     H288335   4.686   4.571   9.294
29365WAT      O88336   8.695   3.096   4.642
29365WAT     H188337   8.628   3.083   4.715
29365WAT     H288338   8.745   3.181   4.658
29366WAT      O88339   5.261   6.711   6.030
29366WAT     H188340   5.337   6.657   5.993
29366WAT     H288341   5.252   6.796   5.978
29367WAT      O88342   6.699   7.825   1.754
29367WAT     H188343   6.720   7.747   1.696
29367WAT     H288344   6.735   7.810   1.846
29368WAT      O88345   3.684   6.556   5.115
29368WAT     H188346   3.712   6.519   5.027
29368WAT     H288347   3.584   6.555   5.122
29369WAT      O88348   6.217   4.409   9.101
29369WAT     H188349   6.219   4.437   9.005
29369WAT     H288350   6.158   4.471   9.153
29370WAT      O88351   8.518   9.548   6.611
29370WAT     H188352   8.512   9.577   6.707
29370WAT     H288353   8.547   9.452   6.607
29371WAT      O88354   4.489   5.396   1.663
29371WAT     H188355   4.402   5.434   1.634
29371WAT     H288356   4.474   5.308   1.708
29372WAT      O88357   2.851   2.387   3.795
29372WAT     H188358   2.771   2.362   3.742
29372WAT     H288359   2.921   2.316   3.785
29373WAT      O88360   9.747   9.037   3.210
29373WAT     H188361   9.744   9.056   3.308
29373WAT     H288362   9.756   9.123   3.160
29374WAT      O88363   3.444   2.719   4.269
29374WAT     H188364   3.352   2.713   4.306
29374WAT     H288365   3.449   2.665   4.185
29375WAT      O88366   4.019   1.540   9.556
29375WAT     H188367   4.016   1.620   9.616
29375WAT     H288368   4.072   1.561   9.474
29376WAT      O88369   1.249   9.018   5.480
29376WAT     H188370   1.293   8.987   5.564
29376WAT     H288371   1.238   8.941   5.417
29377WAT      O88372   9.861   7.015   2.064
29377WAT     H188373   9.961   7.010   2.071
29377WAT     H288374   9.832   7.109   2.079
29378WAT      O88375   4.541   7.565   5.084
29378WAT     H188376   4.450   7.604   5.067
29378WAT     H288377   4.597   7.631   5.134
29379WAT      O88378   8.487   7.432   5.145
29379WAT     H188379   8.565   7.396   5.196
29379WAT     H288380   8.428   7.356   5.116
29380WAT      O88381   6.110   2.807   2.832
29380WAT     H188382   6.051   2.824   2.911
29380WAT     H288383   6.152   2.716   2.841
29381WAT      O88384   5.997   8.996   4.367
29381WAT     H188385   6.015   8.982   4.270
29381WAT     H288386   5.953   8.914   4.405
29382WAT      O88387   3.783   0.616   6.415
29382WAT     H188388   3.866   0.614   6.359
29382WAT     H288389   3.743   0.708   6.412
29383WAT      O88390   7.518   8.382   6.275
29383WAT     H188391   7.519   8.391   6.176
29383WAT     H288392   7.594   8.435   6.314
29384WAT      O88393   0.514   8.196   2.078
29384WAT     H188394   0.521   8.245   2.164
29384WAT     H288395   0.468   8.254   2.010
29385WAT      O88396   6.503   7.587   5.957
29385WAT     H188397   6.533   7.510   6.014
29385WAT     H288398   6.506   7.559   5.861
29386WAT      O88399   9.250   3.996   8.439
29386WAT     H188400   9.313   4.070   8.415
29386WAT     H288401   9.275   3.959   8.528
29387WAT      O88402   3.004   0.967   6.925
29387WAT     H188403   3.034   1.063   6.927
29387WAT     H288404   2.970   0.945   6.834
29388WAT      O88405   3.068   7.852   4.832
29388WAT     H188406   3.018   7.938   4.819
29388WAT     H288407   3.004   7.781   4.863
29389WAT      O88408   8.345   4.008   2.532
29389WAT     H188409   8.269   4.067   2.505
29389WAT     H288410   8.425   4.064   2.550
29390WAT      O88411   8.711   6.845   3.634
29390WAT     H188412   8.613   6.865   3.634
29390WAT     H288413   8.759   6.915   3.581
29391WAT      O88414   5.141   1.426   3.915
29391WAT     H188415   5.083   1.420   3.833
29391WAT     H288416   5.232   1.391   3.894
29392WAT      O88417   4.418   0.226   1.748
29392WAT     H188418   4.357   0.219   1.826
29392WAT     H288419   4.394   0.157   1.680
29393WAT      O88420   6.898   4.595   7.224
29393WAT     H188421   6.833   4.535   7.177
29393WAT     H288422   6.915   4.560   7.316
29394WAT      O88423   8.576   7.854   1.326
29394WAT     H188424   8.581   7.940   1.276
29394WAT     H288425   8.534   7.784   1.268
29395WAT      O88426   8.270   1.727   2.896
29395WAT     H188427   8.342   1.680   2.847
29395WAT     H288428   8.276   1.706   2.993
29396WAT      O88429   5.262   1.704   0.170
29396WAT     H188430   5.202   1.660   0.102
29396WAT     H288431   5.320   1.771   0.124
29397WAT      O88432   3.263   4.531   1.687
29397WAT     H188433   3.208   4.509   1.768
29397WAT     H288434   3.203   4.566   1.616
29398WAT      O88435   8.922   1.685   6.023
29398WAT     H188436   8.887   1.756   5.962
29398WAT     H288437   8.952   1.727   6.108
29399WAT      O88438   2.485   8.274   4.559
29399WAT     H188439   2.456   8.209   4.629
29399WAT     H288440   2.408   8.332   4.534
29400WAT      O88441   8.177   4.558   9.166
29400WAT     H188442   8.140   4.624   9.231
29400WAT     H288443   8.107   4.490   9.144
29401WAT      O88444   2.371   3.022   9.485
29401WAT     H188445   2.471   3.021   9.490
29401WAT     H288446   2.339   2.945   9.430
29402WAT      O88447   4.075   6.698   9.041
29402WAT     H188448   3.997   6.658   9.089
29402WAT     H288449   4.046   6.727   8.950
29403WAT      O88450   5.567   9.195   8.209
29403WAT     H188451   5.617   9.109   8.224
29403WAT     H288452   5.631   9.271   8.207
29404WAT      O88453   2.705   7.018   6.545
29404WAT     H188454   2.673   7.094   6.602
29404WAT     H288455   2.727   6.939   6.602
29405WAT      O88456   9.117   1.055   6.247
29405WAT     H188457   9.067   0.969   6.237
29405WAT     H288458   9.129   1.076   6.344
29406WAT      O88459   5.286   3.523   7.296
29406WAT     H188460   5.279   3.581   7.215
29406WAT     H288461   5.381   3.522   7.327
29407WAT      O88462   0.706   6.025   0.368
29407WAT     H188463   0.687   6.112   0.322
29407WAT     H288464   0.772   6.040   0.441
29408WAT      O88465   1.561   6.843   3.566
29408WAT     H188466   1.638   6.903   3.543
29408WAT     H288467   1.536   6.855   3.662
29409WAT      O88468   1.205   8.368   7.738
29409WAT     H188469   1.136   8.342   7.671
29409WAT     H288470   1.250   8.286   7.774
29410WAT      O88471   9.475   5.067   8.725
29410WAT     H188472   9.446   5.088   8.819
29410WAT     H288473   9.467   5.149   8.669
29411WAT      O88474   1.548   3.408   0.647
29411WAT     H188475   1.576   3.480   0.582
29411WAT     H288476   1.563   3.319   0.605
29412WAT      O88477   0.433   0.692   9.531
29412WAT     H188478   0.338   0.705   9.560
29412WAT     H288479   0.457   0.764   9.465
29413WAT      O88480   3.892   5.176   4.286
29413WAT     H188481   3.901   5.100   4.351
29413WAT     H288482   3.953   5.251   4.313
29414WAT      O88483   5.844   7.682   7.455
29414WAT     H188484   5.748   7.692   7.482
29414WAT     H288485   5.849   7.674   7.355
29415WAT      O88486   6.465   7.964   4.943
29415WAT     H188487   6.495   7.950   5.037
29415WAT     H288488   6.473   7.878   4.892
29416WAT      O88489   3.949   4.032   5.159
29416WAT     H188490   3.889   3.987   5.093
29416WAT     H288491   4.041   3.995   5.150
29417WAT      O88492   6.253   9.516   9.733
29417WAT     H188493   6.197   9.584   9.782
29417WAT     H288494   6.195   9.440   9.704
29418WAT      O88495   2.334   0.444   8.317
29418WAT     H188496   2.253   0.474   8.368
29418WAT     H288497   2.337   0.344   8.315
29419WAT      O88498   0.236   0.803   0.800
29419WAT     H188499   0.193   0.859   0.728
29419WAT     H288500   0.187   0.717   0.809
29420WAT      O88501   4.233   7.898   3.602
29420WAT     H188502   4.322   7.870   3.638
29420WAT     H288503   4.244   7.979   3.544
29421WAT      O88504   7.964   4.675   2.287
29421WAT     H188505   7.894   4.612   2.321
29421WAT     H288506   7.957   4.762   2.335
29422WAT      O88507   4.470   1.790   3.794
29422WAT     H188508   4.439   1.840   3.875
29422WAT     H288509   4.550   1.734   3.819
29423WAT      O88510   1.298   9.114   4.982
29423WAT     H188511   1.313   9.024   4.942
29423WAT     H288512   1.375   9.139   5.040
29424WAT      O88513   5.475   1.752   3.670
29424WAT     H188514   5.403   1.814   3.700
29424WAT     H288515   5.434   1.667   3.638
29425WAT      O88516   5.527   9.087   1.600
29425WAT     H188517   5.537   9.185   1.583
29425WAT     H288518   5.599   9.055   1.661
29426WAT      O88519   3.912   9.798   5.544
29426WAT     H188520   3.867   9.884   5.569
29426WAT     H288521   3.997   9.788   5.597
29427WAT      O88522   5.181   7.991   4.651
29427WAT     H188523   5.253   7.934   4.612
29427WAT     H288524   5.214   8.034   4.735
29428WAT      O88525   7.729   5.183   0.342
29428WAT     H188526   7.797   5.113   0.365
29428WAT     H288527   7.775   5.262   0.301
29429WAT      O88528   1.805   5.372   4.757
29429WAT     H188529   1.858   5.337   4.835
29429WAT     H288530   1.762   5.295   4.709
29430WAT      O88531   7.414   7.834   3.942
29430WAT     H188532   7.456   7.755   3.897
29430WAT     H288533   7.416   7.820   4.041
29431WAT      O88534   4.230   8.633   2.705
29431WAT     H188535   4.180   8.719   2.698
29431WAT     H288536   4.176   8.567   2.758
29432WAT      O88537   8.433   0.795   3.831
29432WAT     H188538   8.498   0.827   3.763
29432WAT     H288539   8.387   0.712   3.798
29433WAT      O88540   2.236   7.510   7.989
29433WAT     H188541   2.256   7.472   8.079
29433WAT     H288542   2.318   7.504   7.931
29434WAT      O88543   8.882   7.343   6.666
29434WAT     H188544   8.971   7.363   6.706
29434WAT     H288545   8.810   7.359   6.733
29435WAT      O88546   7.121   4.968   4.420
29435WAT     H188547   7.105   4.903   4.345
29435WAT     H288548   7.166   5.050   4.384
29436WAT      O88549   5.003   3.350   3.277
29436WAT     H188550   4.939   3.424   3.298
29436WAT     H288551   5.089   3.388   3.244
29437WAT      O88552   4.659   1.365   4.940
29437WAT     H188553   4.639   1.441   4.879
29437WAT     H288554   4.606   1.374   5.024
29438WAT      O88555   1.240   4.252   7.889
29438WAT     H188556   1.145   4.281   7.887
29438WAT     H288557   1.245   4.153   7.903
29439WAT      O88558   1.936   0.902   2.383
29439WAT     H188559   1.854   0.938   2.426
29439WAT     H288560   1.959   0.956   2.303
29440WAT      O88561   2.104   5.152   6.997
29440WAT     H188562   2.176   5.176   6.931
29440WAT     H288563   2.087   5.230   7.056
29441WAT      O88564   3.349   8.076   4.162
29441WAT     H188565   3.440   8.038   4.176
29441WAT     H288566   3.316   8.117   4.247
29442WAT      O88567   9.004   9.560   4.188
29442WAT     H188568   9.054   9.527   4.268
29442WAT     H288569   8.906   9.566   4.211
29443WAT      O88570   5.888   9.130   1.940
29443WAT     H188571   5.953   9.178   1.999
29443WAT     H288572   5.816   9.193   1.912
29444WAT      O88573   7.495   6.895   9.589
29444WAT     H188574   7.455   6.809   9.556
29444WAT     H288575   7.425   6.951   9.632
29445WAT      O88576   1.799   2.196   4.216
29445WAT     H188577   1.709   2.210   4.175
29445WAT     H288578   1.864   2.172   4.144
29446WAT      O88579   6.750   9.097   2.741
29446WAT     H188580   6.686   9.022   2.726
29446WAT     H288581   6.699   9.178   2.773
29447WAT      O88582   6.011   5.688   4.071
29447WAT     H188583   6.110   5.692   4.053
29447WAT     H288584   5.962   5.681   3.984
29448WAT      O88585   4.948   4.165   9.735
29448WAT     H188586   4.878   4.168   9.807
29448WAT     H288587   4.997   4.078   9.739
29449WAT      O88588   4.083   2.322   6.664
29449WAT     H188589   4.117   2.236   6.624
29449WAT     H288590   4.099   2.397   6.601
29450WAT      O88591   1.804   0.719   2.128
29450WAT     H188592   1.758   0.706   2.040
29450WAT     H288593   1.870   0.646   2.142
29451WAT      O88594   5.408   1.506   8.013
29451WAT     H188595   5.503   1.478   8.008
29451WAT     H288596   5.375   1.497   8.108
29452WAT      O88597   8.886   3.602   3.766
29452WAT     H188598   8.897   3.615   3.865
29452WAT     H288599   8.892   3.505   3.744
29453WAT      O88600   7.956   5.869   4.516
29453WAT     H188601   7.983   5.875   4.420
29453WAT     H288602   7.987   5.951   4.565
29454WAT      O88603   1.056   0.281   8.313
29454WAT     H188604   1.048   0.228   8.229
29454WAT     H288605   1.119   0.234   8.376
29455WAT      O88606   2.120   0.112   8.380
29455WAT     H188607   2.174   0.142   8.459
29455WAT     H288608   2.181   0.095   8.303
29456WAT      O88609   5.320   5.623   4.371
29456WAT     H188610   5.230   5.645   4.409
29456WAT     H288611   5.323   5.527   4.347
29457WAT      O88612   6.589   1.429   6.645
29457WAT     H188613   6.607   1.524   6.621
29457WAT     H288614   6.491   1.411   6.641
29458WAT      O88615   6.876   2.478   2.177
29458WAT     H188616   6.854   2.443   2.085
29458WAT     H288617   6.954   2.428   2.214
29459WAT      O88618   8.242   3.696   3.813
29459WAT     H188619   8.309   3.640   3.862
29459WAT     H288620   8.283   3.728   3.727
29460WAT      O88621   1.826   5.837   7.446
29460WAT     H188622   1.750   5.820   7.383
29460WAT     H288623   1.790   5.852   7.538
29461WAT      O88624   7.276   1.936   6.293
29461WAT     H188625   7.357   1.993   6.305
29461WAT     H288626   7.194   1.991   6.306
29462WAT      O88627   5.408   8.175   8.413
29462WAT     H188628   5.403   8.255   8.474
29462WAT     H288629   5.441   8.096   8.464
29463WAT      O88630   4.122   3.886   3.120
29463WAT     H188631   4.214   3.917   3.141
29463WAT     H288632   4.072   3.959   3.073
29464WAT      O88633   2.019   1.498   0.195
29464WAT     H188634   1.965   1.547   0.264
29464WAT     H288635   2.004   1.400   0.204
29465WAT      O88636   2.748   1.372   2.833
29465WAT     H188637   2.734   1.405   2.739
29465WAT     H288638   2.715   1.278   2.840
29466WAT      O88639   9.705   3.911   0.834
29466WAT     H188640   9.746   3.984   0.778
29466WAT     H288641   9.669   3.840   0.774
29467WAT      O88642   5.515   4.328   5.522
29467WAT     H188643   5.602   4.369   5.494
29467WAT     H288644   5.509   4.329   5.622
29468WAT      O88645   7.981   4.484   9.879
29468WAT     H188646   7.919   4.531   9.941
29468WAT     H288647   8.019   4.549   9.814
29469WAT      O88648   9.485   4.992   0.381
29469WAT     H188649   9.463   4.912   0.326
29469WAT     H288650   9.516   4.962   0.472
29470WAT      O88651   7.840   4.427   0.618
29470WAT     H188652   7.771   4.381   0.563
29470WAT     H288653   7.883   4.499   0.563
29471WAT      O88654   0.459   5.838   7.885
29471WAT     H188655   0.533   5.873   7.942
29471WAT     H288656   0.419   5.913   7.832
29472WAT      O88657   8.813   5.621   5.849
29472WAT     H188658   8.870   5.577   5.780
29472WAT     H288659   8.733   5.663   5.806
29473WAT      O88660   8.536   1.603   3.592
29473WAT     H188661   8.559   1.529   3.656
29473WAT     H288662   8.455   1.577   3.540
29474WAT      O88663   6.855   6.403   9.468
29474WAT     H188664   6.778   6.438   9.413
29474WAT     H288665   6.829   6.316   9.508
29475WAT      O88666   9.332   4.905   1.607
29475WAT     H188667   9.239   4.877   1.628
29475WAT     H288668   9.331   4.973   1.533
29476WAT      O88669   4.238   3.736   7.253
29476WAT     H188670   4.297   3.732   7.172
29476WAT     H288671   4.283   3.688   7.328
29477WAT      O88672   0.749   3.708   3.805
29477WAT     H188673   0.684   3.656   3.860
29477WAT     H288674   0.714   3.716   3.712
29478WAT      O88675   7.155   2.862   2.991
29478WAT     H188676   7.205   2.948   2.996
29478WAT     H288677   7.061   2.880   2.962
29479WAT      O88678   4.028   2.473   2.548
29479WAT     H188679   4.095   2.399   2.545
29479WAT     H288680   3.939   2.438   2.517
29480WAT      O88681   2.791   2.998   6.923
29480WAT     H188682   2.861   3.020   6.855
29480WAT     H288683   2.775   3.078   6.981
29481WAT      O88684   2.235   9.770   5.235
29481WAT     H188685   2.288   9.755   5.318
29481WAT     H288686   2.145   9.728   5.245
29482WAT      O88687   4.224   8.251   5.290
29482WAT     H188688   4.247   8.265   5.193
29482WAT     H288689   4.200   8.155   5.305
29483WAT      O88690   7.155   3.735   6.658
29483WAT     H188691   7.130   3.830   6.643
29483WAT     H288692   7.220   3.730   6.735
29484WAT      O88693   0.440   8.203   9.757
29484WAT     H188694   0.526   8.243   9.724
29484WAT     H288695   0.429   8.112   9.718
29485WAT      O88696   8.882   4.554   0.029
29485WAT     H188697   8.970   4.582   0.066
29485WAT     H288698   8.884   4.456   0.009
29486WAT      O88699   4.995   0.461   5.612
29486WAT     H188700   5.042   0.548   5.597
29486WAT     H288701   4.961   0.426   5.524
29487WAT      O88702   4.172   5.825   8.198
29487WAT     H188703   4.160   5.781   8.109
29487WAT     H288704   4.091   5.810   8.254
29488WAT      O88705   4.070   3.032   8.604
29488WAT     H188706   4.015   2.991   8.531
29488WAT     H288707   4.010   3.077   8.670
29489WAT      O88708   4.557   8.530   3.599
29489WAT     H188709   4.643   8.479   3.601
29489WAT     H288710   4.482   8.468   3.575
29490WAT      O88711   3.533   3.272   8.634
29490WAT     H188712   3.475   3.335   8.685
29490WAT     H288713   3.562   3.198   8.694
29491WAT      O88714   8.444   8.365   7.311
29491WAT     H188715   8.427   8.463   7.326
29491WAT     H288716   8.505   8.354   7.232
29492WAT      O88717   7.608   7.152   2.703
29492WAT     H188718   7.576   7.068   2.748
29492WAT     H288719   7.575   7.231   2.754
29493WAT      O88720   0.263   8.374   5.418
29493WAT     H188721   0.293   8.279   5.431
29493WAT     H288722   0.193   8.396   5.485
29494WAT      O88723   8.021   7.042   7.392
29494WAT     H188724   8.093   7.037   7.461
29494WAT     H288725   7.999   7.138   7.374
29495WAT      O88726   6.315   7.172   9.880
29495WAT     H188727   6.230   7.199   9.925
29495WAT     H288728   6.370   7.117   9.944
29496WAT      O88729   6.101   3.282   6.905
29496WAT     H188730   6.038   3.243   6.838
29496WAT     H288731   6.098   3.382   6.900
29497WAT      O88732   4.856   5.470   2.274
29497WAT     H188733   4.862   5.384   2.225
29497WAT     H288734   4.769   5.514   2.255
29498WAT      O88735   9.049   2.693   5.087
29498WAT     H188736   9.113   2.621   5.059
29498WAT     H288737   8.957   2.654   5.092
29499WAT      O88738   4.943   8.427   8.363
29499WAT     H188739   4.874   8.400   8.296
29499WAT     H288740   4.997   8.347   8.390
29500WAT      O88741   8.037   8.618   4.476
29500WAT     H188742   7.961   8.554   4.462
29500WAT     H288743   8.026   8.664   4.564
29501WAT      O88744   6.430   8.507   2.864
29501WAT     H188745   6.529   8.496   2.852
29501WAT     H288746   6.397   8.579   2.803
29502WAT      O88747   8.979   0.979   5.664
29502WAT     H188748   8.888   0.938   5.662
29502WAT     H288749   9.048   0.910   5.641
29503WAT      O88750   3.878   0.695   3.159
29503WAT     H188751   3.920   0.605   3.177
29503WAT     H288752   3.779   0.688   3.170
29504WAT      O88753   8.476   2.471   2.812
29504WAT     H188754   8.411   2.466   2.888
29504WAT     H288755   8.426   2.491   2.728
29505WAT      O88756   8.334   6.196   7.173
29505WAT     H188757   8.240   6.225   7.158
29505WAT     H288758   8.377   6.178   7.084
29506WAT      O88759   6.250   0.163   4.464
29506WAT     H188760   6.276   0.255   4.436
29506WAT     H288761   6.221   0.165   4.560
29507WAT      O88762   6.407   0.030   3.784
29507WAT     H188763   6.335   0.069   3.843
29507WAT     H288764   6.479   0.099   3.771
29508WAT      O88765   6.740   2.404   7.552
29508WAT     H188766   6.814   2.462   7.517
29508WAT     H288767   6.773   2.352   7.631
29509WAT      O88768   0.828   0.963   4.370
29509WAT     H188769   0.865   1.054   4.386
29509WAT     H288770   0.753   0.945   4.434
29510WAT      O88771   2.207   7.913   7.020
29510WAT     H188772   2.242   7.863   7.099
29510WAT     H288773   2.232   8.010   7.028
29511WAT      O88774   0.941   6.796   5.403
29511WAT     H188775   0.913   6.788   5.307
29511WAT     H288776   0.864   6.774   5.462
29512WAT      O88777   4.982   7.213   7.732
29512WAT     H188778   5.007   7.276   7.658
29512WAT     H288779   4.988   7.261   7.820
29513WAT      O88780   4.244   7.783   8.614
29513WAT     H188781   4.281   7.729   8.539
29513WAT     H288782   4.173   7.730   8.661
29514WAT      O88783   3.675   0.120   0.979
29514WAT     H188784   3.766   0.160   0.988
29514WAT     H288785   3.665   0.078   0.889
29515WAT      O88786   0.776   5.315   6.561
29515WAT     H188787   0.868   5.328   6.597
29515WAT     H288788   0.719   5.272   6.630
29516WAT      O88789   9.063   0.827   6.991
29516WAT     H188790   9.075   0.753   6.924
29516WAT     H288791   9.005   0.795   7.065
29517WAT      O88792   1.018   4.309   0.386
29517WAT     H188793   0.946   4.373   0.357
29517WAT     H288794   1.107   4.354   0.378
29518WAT      O88795   9.072   1.706   7.397
29518WAT     H188796   9.121   1.622   7.418
29518WAT     H288797   9.127   1.762   7.334
29519WAT      O88798   8.210   6.147   7.686
29519WAT     H188799   8.142   6.205   7.642
29519WAT     H288800   8.172   6.056   7.702
29520WAT      O88801   9.270   5.153   7.320
29520WAT     H188802   9.369   5.138   7.321
29520WAT     H288803   9.230   5.116   7.404
29521WAT      O88804   3.935   6.760   2.439
29521WAT     H188805   3.982   6.832   2.389
29521WAT     H288806   3.913   6.685   2.377
29522WAT      O88807   9.612   7.213   1.393
29522WAT     H188808   9.530   7.180   1.438
29522WAT     H288809   9.602   7.203   1.294
29523WAT      O88810   4.159   0.534   7.826
29523WAT     H188811   4.225   0.590   7.776
29523WAT     H288812   4.083   0.592   7.856
29524WAT      O88813   0.244   3.829   4.757
29524WAT     H188814   0.204   3.915   4.725
29524WAT     H288815   0.243   3.827   4.857
29525WAT      O88816   8.028   4.225   0.045
29525WAT     H188817   7.999   4.167  -0.031
29525WAT     H288818   8.015   4.321   0.021
29526WAT      O88819   3.528   0.008   8.878
29526WAT     H188820   3.595  -0.012   8.949
29526WAT     H288821   3.565   0.076   8.815
29527WAT      O88822   9.447   6.502   5.301
29527WAT     H188823   9.535   6.542   5.276
29527WAT     H288824   9.460   6.433   5.372
29528WAT      O88825   5.060   0.023   8.877
29528WAT     H188826   5.059   0.065   8.787
29528WAT     H288827   5.069  -0.076   8.869
29529WAT      O88828   1.258   9.781   4.919
29529WAT     H188829   1.218   9.797   4.829
29529WAT     H288830   1.275   9.869   4.964
29530WAT      O88831   8.047   0.130   3.290
29530WAT     H188832   8.113   0.089   3.353
29530WAT     H288833   7.955   0.123   3.329
29531WAT      O88834   2.910   5.806   1.267
29531WAT     H188835   2.906   5.784   1.169
29531WAT     H288836   3.004   5.823   1.294
29532WAT      O88837   1.114   6.256   7.335
29532WAT     H188838   1.117   6.157   7.327
29532WAT     H288839   1.203   6.294   7.307
29533WAT      O88840   7.132   8.446   8.866
29533WAT     H188841   7.092   8.458   8.956
29533WAT     H288842   7.109   8.354   8.832
29534WAT      O88843   1.132   0.431   1.711
29534WAT     H188844   1.137   0.344   1.663
29534WAT     H288845   1.224   0.470   1.720
29535WAT      O88846   2.741   2.561   8.418
29535WAT     H188847   2.712   2.532   8.327
29535WAT     H288848   2.750   2.660   8.419
29536WAT      O88849   1.917   7.444  -0.002
29536WAT     H188850   1.832   7.402   0.030
29536WAT     H288851   1.993   7.412   0.056
29537WAT      O88852   8.469   3.251   6.372
29537WAT     H188853   8.543   3.206   6.324
29537WAT     H288854   8.491   3.257   6.470
29538WAT      O88855   0.932   5.073   7.870
29538WAT     H188856   0.989   5.068   7.952
29538WAT     H288857   0.985   5.046   7.790
29539WAT      O88858   8.396   1.366   8.816
29539WAT     H188859   8.474   1.421   8.845
29539WAT     H288860   8.407   1.340   8.720
29540WAT      O88861   2.799   7.701   3.917
29540WAT     H188862   2.764   7.757   3.842
29540WAT     H288863   2.745   7.718   4.000
29541WAT      O88864   4.646   9.158   0.107
29541WAT     H188865   4.734   9.120   0.079
29541WAT     H288866   4.661   9.240   0.162
29542WAT      O88867   8.452   4.985   7.075
29542WAT     H188868   8.458   5.001   6.976
29542WAT     H288869   8.541   4.955   7.109
29543WAT      O88870   8.233   5.642   1.262
29543WAT     H188871   8.293   5.681   1.192
29543WAT     H288872   8.183   5.716   1.307
29544WAT      O88873   9.758   1.190   2.585
29544WAT     H188874   9.841   1.135   2.577
29544WAT     H288875   9.729   1.219   2.494
29545WAT      O88876   3.363   0.274   1.479
29545WAT     H188877   3.292   0.238   1.539
29545WAT     H288878   3.335   0.264   1.384
29546WAT      O88879   7.194   0.946   8.677
29546WAT     H188880   7.116   0.892   8.707
29546WAT     H288881   7.164   1.039   8.657
29547WAT      O88882   9.139   6.599   9.520
29547WAT     H188883   9.081   6.525   9.486
29547WAT     H288884   9.234   6.582   9.495
29548WAT      O88885   9.333   8.167   4.956
29548WAT     H188886   9.365   8.111   5.032
29548WAT     H288887   9.354   8.121   4.870
29549WAT      O88888   3.624   0.741   8.276
29549WAT     H188889   3.562   0.771   8.348
29549WAT     H288890   3.621   0.804   8.199
29550WAT      O88891   0.072   2.900   4.275
29550WAT     H188892   0.101   2.821   4.329
29550WAT     H288893   0.116   2.896   4.185
29551WAT      O88894   3.482   8.439   8.514
29551WAT     H188895   3.555   8.389   8.560
29551WAT     H288896   3.434   8.377   8.451
29552WAT      O88897   4.661   2.322   9.473
29552WAT     H188898   4.596   2.249   9.490
29552WAT     H288899   4.707   2.307   9.385
29553WAT      O88900   9.665   4.952   2.133
29553WAT     H188901   9.621   5.039   2.157
29553WAT     H288902   9.654   4.935   2.035
29554WAT      O88903   9.108   9.799   4.111
29554WAT     H188904   9.060   9.862   4.171
29554WAT     H288905   9.083   9.705   4.134
29555WAT      O88906   8.936   1.471   1.946
29555WAT     H188907   8.878   1.410   1.891
29555WAT     H288908   8.903   1.565   1.936
29556WAT      O88909   0.640   4.375   7.267
29556WAT     H188910   0.740   4.381   7.263
29556WAT     H288911   0.601   4.465   7.246
29557WAT      O88912   6.711   7.305   3.266
29557WAT     H188913   6.789   7.351   3.310
29557WAT     H288914   6.745   7.247   3.191
29558WAT      O88915   3.748   5.682   4.803
29558WAT     H188916   3.758   5.777   4.832
29558WAT     H288917   3.834   5.651   4.761
29559WAT      O88918   8.574   5.878   7.161
29559WAT     H188919   8.604   5.795   7.209
29559WAT     H288920   8.580   5.864   7.063
29560WAT      O88921   2.846   3.457   9.119
29560WAT     H188922   2.904   3.377   9.132
29560WAT     H288923   2.814   3.460   9.024
29561WAT      O88924   7.478   3.154   4.305
29561WAT     H188925   7.542   3.081   4.281
29561WAT     H288926   7.399   3.114   4.352
29562WAT      O88927   8.161   3.810   1.223
29562WAT     H188928   8.121   3.778   1.309
29562WAT     H288929   8.089   3.838   1.160
29563WAT      O88930   1.675   1.675   2.597
29563WAT     H188931   1.618   1.632   2.526
29563WAT     H288932   1.711   1.762   2.562
29564WAT      O88933   6.320   7.778   6.952
29564WAT     H188934   6.281   7.866   6.926
29564WAT     H288935   6.291   7.708   6.887
29565WAT      O88936   6.427   8.183   6.551
29565WAT     H188937   6.363   8.121   6.504
29565WAT     H288938   6.387   8.212   6.638
29566WAT      O88939   1.573   2.365   2.379
29566WAT     H188940   1.562   2.464   2.368
29566WAT     H288941   1.562   2.341   2.476
29567WAT      O88942   5.557   1.217   3.178
29567WAT     H188943   5.535   1.238   3.083
29567WAT     H288944   5.513   1.132   3.205
29568WAT      O88945   1.540   6.900   5.966
29568WAT     H188946   1.621   6.928   5.914
29568WAT     H288947   1.500   6.980   6.010
29569WAT      O88948   0.510   6.358   7.199
29569WAT     H188949   0.499   6.444   7.150
29569WAT     H288950   0.607   6.336   7.207
29570WAT      O88951   4.857   9.348   3.352
29570WAT     H188952   4.797   9.357   3.273
29570WAT     H288953   4.829   9.412   3.423
29571WAT      O88954   9.154   0.787   5.580
29571WAT     H188955   9.153   0.793   5.480
29571WAT     H288956   9.201   0.704   5.608
29572WAT      O88957   8.022   9.363   2.456
29572WAT     H188958   8.070   9.277   2.471
29572WAT     H288959   8.069   9.437   2.505
29573WAT      O88960   2.858   2.288   4.083
29573WAT     H188961   2.808   2.267   4.167
29573WAT     H288962   2.797   2.280   4.005
29574WAT      O88963   0.640   2.235   1.428
29574WAT     H188964   0.637   2.273   1.520
29574WAT     H288965   0.727   2.258   1.385
29575WAT      O88966   7.867   6.771   6.904
29575WAT     H188967   7.863   6.845   6.837
29575WAT     H288968   7.923   6.800   6.982
29576WAT      O88969   1.058   2.250   5.108
29576WAT     H188970   0.999   2.292   5.177
29576WAT     H288971   1.147   2.230   5.149
29577WAT      O88972   6.995   4.468   4.714
29577WAT     H188973   6.932   4.546   4.719
29577WAT     H288974   7.049   4.473   4.630
29578WAT      O88975   0.870   1.404   1.616
29578WAT     H188976   0.917   1.389   1.529
29578WAT     H288977   0.873   1.320   1.670
29579WAT      O88978   4.036   5.913   6.554
29579WAT     H188979   3.969   5.975   6.595
29579WAT     H288980   3.988   5.838   6.507
29580WAT      O88981   7.351   4.994   8.419
29580WAT     H188982   7.321   5.086   8.443
29580WAT     H288983   7.273   4.932   8.421
29581WAT      O88984   5.351   9.170   9.817
29581WAT     H188985   5.264   9.185   9.865
29581WAT     H288986   5.346   9.212   9.727
29582WAT      O88987   7.917   8.827   1.102
29582WAT     H188988   8.007   8.869   1.111
29582WAT     H288989   7.898   8.770   1.182
29583WAT      O88990   5.640   7.705   4.953
29583WAT     H188991   5.666   7.766   5.028
29583WAT     H288992   5.602   7.621   4.990
29584WAT      O88993   9.650   1.962   1.625
29584WAT     H188994   9.596   1.961   1.541
29584WAT     H288995   9.674   1.868   1.651
29585WAT      O88996   7.283   0.015   5.391
29585WAT     H188997   7.345   0.082   5.434
29585WAT     H288998   7.305   0.008   5.293
29586WAT      O88999   3.771   6.389   7.493
29586WAT     H189000   3.853   6.381   7.436
29586WAT     H289001   3.780   6.468   7.553
29587WAT      O89002   9.363   5.243   4.661
29587WAT     H189003   9.264   5.255   4.649
29587WAT     H289004   9.379   5.159   4.713
29588WAT      O89005   2.280   1.298   2.596
29588WAT     H189006   2.360   1.237   2.595
29588WAT     H289007   2.249   1.311   2.690
29589WAT      O89008   3.552   7.628   3.456
29589WAT     H189009   3.492   7.706   3.477
29589WAT     H289010   3.643   7.662   3.436
29590WAT      O89011   3.524   3.286   7.671
29590WAT     H189012   3.462   3.256   7.744
29590WAT     H289013   3.476   3.282   7.583
29591WAT      O89014   0.602   5.191   4.766
29591WAT     H189015   0.660   5.113   4.787
29591WAT     H289016   0.574   5.187   4.670
29592WAT      O89017   8.092   2.587   0.475
29592WAT     H189018   8.119   2.683   0.486
29592WAT     H289019   8.123   2.534   0.553
29593WAT      O89020   0.077   9.524   4.701
29593WAT     H189021   0.095   9.435   4.660
29593WAT     H289022  -0.022   9.539   4.707
29594WAT      O89023   0.922   6.452   7.381
29594WAT     H189024   1.005   6.397   7.375
29594WAT     H289025   0.946   6.549   7.375
29595WAT      O89026   9.145   0.095   3.839
29595WAT     H189027   9.216   0.132   3.779
29595WAT     H289028   9.146  -0.005   3.833
29596WAT      O89029   7.344   1.180   1.428
29596WAT     H189030   7.347   1.128   1.342
29596WAT     H289031   7.249   1.200   1.451
29597WAT      O89032   1.069   8.002   3.788
29597WAT     H189033   1.074   8.080   3.850
29597WAT     H289034   1.101   7.920   3.835
29598WAT      O89035   5.961   4.017   2.486
29598WAT     H189036   6.052   4.033   2.448
29598WAT     H289037   5.924   3.931   2.450
29599WAT      O89038   7.262   5.033   2.305
29599WAT     H189039   7.258   5.133   2.303
29599WAT     H289040   7.331   5.002   2.239
29600WAT      O89041   2.336   7.349   8.773
29600WAT     H189042   2.293   7.273   8.724
29600WAT     H289043   2.431   7.325   8.794
29601WAT      O89044   5.723   5.680   0.124
29601WAT     H189045   5.756   5.626   0.202
29601WAT     H289046   5.646   5.737   0.152
29602WAT      O89047   5.152   8.142   3.667
29602WAT     H189048   5.188   8.129   3.760
29602WAT     H289049   5.211   8.096   3.601
29603WAT      O89050   2.750   5.553   4.186
29603WAT     H189051   2.667   5.608   4.181
29603WAT     H289052   2.830   5.613   4.188
29604WAT      O89053   7.812   2.844   6.216
29604WAT     H189054   7.721   2.885   6.202
29604WAT     H289055   7.870   2.868   6.138
29605WAT      O89056   9.870   1.349   0.316
29605WAT     H189057   9.770   1.361   0.318
29605WAT     H289058   9.892   1.259   0.278
29606WAT      O89059   1.198   4.357   1.312
29606WAT     H189060   1.211   4.263   1.279
29606WAT     H289061   1.197   4.357   1.412
29607WAT      O89062   1.813   0.892   9.879
29607WAT     H189063   1.755   0.849   9.810
29607WAT     H289064   1.899   0.843   9.886
29608WAT      O89065   1.768   9.030   2.217
29608WAT     H189066   1.851   9.073   2.184
29608WAT     H289067   1.689   9.085   2.192
29609WAT      O89068   3.486   0.326   3.408
29609WAT     H189069   3.452   0.249   3.462
29609WAT     H289070   3.520   0.292   3.320
29610WAT      O89071   2.017   8.185   0.335
29610WAT     H189072   2.027   8.212   0.239
29610WAT     H289073   1.931   8.137   0.347
29611WAT      O89074   5.066   2.431   9.472
29611WAT     H189075   5.070   2.400   9.376
29611WAT     H289076   5.156   2.462   9.501
29612WAT      O89077   2.508   4.856   5.921
29612WAT     H189078   2.443   4.925   5.953
29612WAT     H289079   2.577   4.899   5.864
29613WAT      O89080   7.599   7.991   5.496
29613WAT     H189081   7.625   7.906   5.449
29613WAT     H289082   7.598   7.976   5.595
29614WAT      O89083   0.607   3.566   3.987
29614WAT     H189084   0.630   3.640   4.050
29614WAT     H289085   0.636   3.479   4.026
29615WAT      O89086   1.520   7.062   6.176
29615WAT     H189087   1.458   7.023   6.245
29615WAT     H289088   1.473   7.136   6.128
29616WAT      O89089   3.859   8.973   6.141
29616WAT     H189090   3.865   8.889   6.086
29616WAT     H289091   3.868   8.950   6.237
29617WAT      O89092   2.523   1.565   5.385
29617WAT     H189093   2.502   1.568   5.483
29617WAT     H289094   2.616   1.597   5.370
29618WAT      O89095   6.499   3.742   7.898
29618WAT     H189096   6.567   3.718   7.967
29618WAT     H289097   6.473   3.838   7.910
29619WAT      O89098   8.551   3.237   6.638
29619WAT     H189099   8.571   3.307   6.706
29619WAT     H289100   8.599   3.152   6.661
29620WAT      O89101   7.062   3.693   6.390
29620WAT     H189102   7.105   3.705   6.480
29620WAT     H289103   7.126   3.724   6.319
29621WAT      O89104   7.509   0.654   3.020
29621WAT     H189105   7.532   0.659   2.923
29621WAT     H289106   7.561   0.580   3.063
29622WAT      O89107   2.172   2.610   8.524
29622WAT     H189108   2.165   2.597   8.425
29622WAT     H289109   2.263   2.645   8.547
29623WAT      O89110   9.040   3.166   4.846
29623WAT     H189111   8.987   3.230   4.790
29623WAT     H289112   9.012   3.173   4.941
29624WAT      O89113   8.312   1.842   0.553
29624WAT     H189114   8.334   1.908   0.480
29624WAT     H289115   8.312   1.890   0.641
29625WAT      O89116   3.307   8.330   5.455
29625WAT     H189117   3.291   8.429   5.458
29625WAT     H289118   3.256   8.290   5.379
29626WAT      O89119   4.753   8.318   0.931
29626WAT     H189120   4.735   8.276   0.842
29626WAT     H289121   4.824   8.267   0.978
29627WAT      O89122   4.102   5.471   3.811
29627WAT     H189123   4.118   5.568   3.831
29627WAT     H289124   4.082   5.422   3.896
29628WAT      O89125   7.274   5.050   3.069
29628WAT     H189126   7.181   5.021   3.045
29628WAT     H289127   7.320   4.976   3.117
29629WAT      O89128   7.954   5.761   4.050
29629WAT     H189129   7.887   5.687   4.042
29629WAT     H289130   7.976   5.796   3.959
29630WAT      O89131   7.657   0.440   1.677
29630WAT     H189132   7.613   0.360   1.636
29630WAT     H289133   7.750   0.415   1.706
29631WAT      O89134   3.904   3.985   8.771
29631WAT     H189135   3.958   4.017   8.693
29631WAT     H289136   3.853   3.903   8.745
29632WAT      O89137   2.575   8.275   8.145
29632WAT     H189138   2.584   8.183   8.182
29632WAT     H289139   2.517   8.273   8.064
29633WAT      O89140   9.410   1.242   7.466
29633WAT     H189141   9.390   1.145   7.454
29633WAT     H289142   9.404   1.266   7.563
29634WAT      O89143   0.436   7.425   7.793
29634WAT     H189144   0.522   7.375   7.808
29634WAT     H289145   0.360   7.360   7.790
29635WAT      O89146   7.639   1.521   3.791
29635WAT     H189147   7.591   1.581   3.727
29635WAT     H289148   7.623   1.425   3.766
29636WAT      O89149   5.477   3.853   9.282
29636WAT     H189150   5.456   3.767   9.236
29636WAT     H289151   5.528   3.913   9.221
29637WAT      O89152   5.420   0.104   7.252
29637WAT     H189153   5.364   0.054   7.319
29637WAT     H289154   5.480   0.039   7.205
29638WAT      O89155   1.212   6.811   5.991
29638WAT     H189156   1.253   6.851   5.909
29638WAT     H289157   1.262   6.728   6.016
29639WAT      O89158   4.910   7.120   9.354
29639WAT     H189159   4.940   7.168   9.271
29639WAT     H289160   4.940   7.170   9.435
29640WAT      O89161   0.172   1.187   0.428
29640WAT     H189162   0.118   1.265   0.395
29640WAT     H289163   0.255   1.221   0.471
29641WAT      O89164   1.676   3.352   7.154
29641WAT     H189165   1.700   3.274   7.213
29641WAT     H289166   1.754   3.414   7.147
29642WAT      O89167   3.630   5.232   7.450
29642WAT     H189168   3.638   5.157   7.385
29642WAT     H289169   3.716   5.283   7.453
29643WAT      O89170   4.072   2.028   4.452
29643WAT     H189171   4.014   2.075   4.520
29643WAT     H289172   4.155   1.996   4.497
29644WAT      O89173   4.701   7.294   3.698
29644WAT     H189174   4.734   7.224   3.635
29644WAT     H289175   4.777   7.325   3.756
29645WAT      O89176   3.832   2.225   8.094
29645WAT     H189177   3.928   2.251   8.110
29645WAT     H289178   3.776   2.261   8.168
29646WAT      O89179   3.172   1.008   1.286
29646WAT     H189180   3.162   1.067   1.366
29646WAT     H289181   3.153   1.060   1.203
29647WAT      O89182   6.659   5.107   8.804
29647WAT     H189183   6.559   5.098   8.808
29647WAT     H289184   6.684   5.159   8.722
29648WAT      O89185   6.353   6.751   0.891
29648WAT     H189186   6.306   6.815   0.831
29648WAT     H289187   6.451   6.751   0.870
29649WAT      O89188   4.375   9.226   8.036
29649WAT     H189189   4.314   9.148   8.048
29649WAT     H289190   4.429   9.239   8.119
29650WAT      O89191   4.687   7.891   8.781
29650WAT     H189192   4.716   7.964   8.844
29650WAT     H289193   4.742   7.897   8.698
29651WAT      O89194   6.404   3.962   4.028
29651WAT     H189195   6.458   4.013   4.095
29651WAT     H289196   6.374   3.876   4.069
29652WAT      O89197   4.449   8.691   9.034
29652WAT     H189198   4.522   8.726   8.976
29652WAT     H289199   4.361   8.728   9.004
29653WAT      O89200   7.236   1.038   4.827
29653WAT     H189201   7.283   1.121   4.856
29653WAT     H289202   7.164   1.061   4.762
29654WAT      O89203   4.496   8.981   1.403
29654WAT     H189204   4.484   9.080   1.411
29654WAT     H289205   4.493   8.955   1.307
29655WAT      O89206   4.472   2.039   1.037
29655WAT     H189207   4.373   2.041   1.024
29655WAT     H289208   4.516   2.091   0.963
29656WAT      O89209   9.028   1.488   9.134
29656WAT     H189210   9.090   1.417   9.167
29656WAT     H289211   8.956   1.504   9.202
29657WAT      O89212   1.508   4.935   5.558
29657WAT     H189213   1.524   4.952   5.461
29657WAT     H289214   1.457   5.012   5.597
29658WAT      O89215   0.526   4.055   1.563
29658WAT     H189216   0.489   4.031   1.653
29658WAT     H289217   0.621   4.024   1.557
29659WAT      O89218   6.581   3.939   4.558
29659WAT     H189219   6.621   3.848   4.547
29659WAT     H289220   6.486   3.930   4.586
29660WAT      O89221   6.738   8.032   7.604
29660WAT     H189222   6.729   8.110   7.666
29660WAT     H289223   6.731   7.947   7.657
29661WAT      O89224   7.733   6.990   3.089
29661WAT     H189225   7.715   6.956   2.997
29661WAT     H289226   7.817   7.045   3.089
29662WAT      O89227   3.342   6.498   0.139
29662WAT     H189228   3.298   6.583   0.112
29662WAT     H289229   3.336   6.487   0.239
29663WAT      O89230   1.018   4.053   5.038
29663WAT     H189231   0.984   3.960   5.025
29663WAT     H289232   1.012   4.077   5.135
29664WAT      O89233   7.516   7.166   6.924
29664WAT     H189234   7.417   7.155   6.927
29664WAT     H289235   7.540   7.256   6.962
29665WAT      O89236   1.060   1.824   3.696
29665WAT     H189237   1.128   1.785   3.758
29665WAT     H289238   1.106   1.875   3.624
29666WAT      O89239   6.169   4.951   5.087
29666WAT     H189240   6.168   5.043   5.049
29666WAT     H289241   6.260   4.930   5.121
29667WAT      O89242   2.267   4.485   3.748
29667WAT     H189243   2.288   4.421   3.674
29667WAT     H289244   2.300   4.576   3.724
29668WAT      O89245   2.574   8.175   1.897
29668WAT     H189246   2.610   8.263   1.929
29668WAT     H289247   2.648   8.108   1.893
29669WAT      O89248   3.044   2.476   4.137
29669WAT     H189249   3.016   2.512   4.226
29669WAT     H289250   2.975   2.413   4.103
29670WAT      O89251   6.111   2.441   9.189
29670WAT     H189252   6.136   2.347   9.165
29670WAT     H289253   6.125   2.501   9.110
29671WAT      O89254   9.719   8.147   0.313
29671WAT     H189255   9.655   8.220   0.339
29671WAT     H289256   9.800   8.188   0.270
29672WAT      O89257   3.427   3.307   9.675
29672WAT     H189258   3.353   3.243   9.697
29672WAT     H289259   3.388   3.397   9.655
29673WAT      O89260   1.173   0.074   8.904
29673WAT     H189261   1.079   0.051   8.926
29673WAT     H289262   1.227  -0.010   8.893
29674WAT      O89263   1.113   4.691   1.042
29674WAT     H189264   1.079   4.671   0.950
29674WAT     H289265   1.213   4.691   1.041
29675WAT      O89266   2.515   6.692   3.207
29675WAT     H189267   2.493   6.617   3.270
29675WAT     H289268   2.587   6.663   3.144
29676WAT      O89269   3.415   0.147   2.234
29676WAT     H189270   3.509   0.117   2.255
29676WAT     H289271   3.409   0.246   2.247
29677WAT      O89272   6.230   4.995   9.399
29677WAT     H189273   6.234   5.063   9.326
29677WAT     H289274   6.280   4.913   9.371
29678WAT      O89275   0.243   6.503   8.933
29678WAT     H189276   0.166   6.561   8.907
29678WAT     H289277   0.318   6.560   8.967
29679WAT      O89278   6.971   7.679   5.862
29679WAT     H189279   6.976   7.582   5.881
29679WAT     H289280   6.882   7.714   5.891
29680WAT      O89281   4.019   8.024   1.361
29680WAT     H189282   3.968   7.975   1.289
29680WAT     H289283   4.014   7.972   1.446
29681WAT      O89284   2.212   7.564   1.149
29681WAT     H189285   2.256   7.475   1.148
29681WAT     H289286   2.276   7.634   1.119
29682WAT      O89287   6.867   4.078   7.274
29682WAT     H189288   6.876   4.125   7.186
29682WAT     H289289   6.924   3.997   7.274
29683WAT      O89290   2.722   0.333   8.161
29683WAT     H189291   2.817   0.334   8.130
29683WAT     H289292   2.710   0.262   8.231
29684WAT      O89293   4.703   9.037   6.100
29684WAT     H189294   4.641   8.962   6.075
29684WAT     H289295   4.789   9.026   6.051
29685WAT      O89296   9.403   4.754   2.414
29685WAT     H189297   9.355   4.676   2.455
29685WAT     H289298   9.379   4.762   2.318
29686WAT      O89299   6.536   8.354   3.297
29686WAT     H189300   6.589   8.317   3.221
29686WAT     H289301   6.486   8.280   3.342
29687WAT      O89302   8.555   4.305   7.501
29687WAT     H189303   8.509   4.323   7.588
29687WAT     H289304   8.575   4.207   7.493
29688WAT      O89305   2.530   4.065   2.967
29688WAT     H189306   2.568   3.979   2.932
29688WAT     H289307   2.539   4.136   2.897
29689WAT      O89308   9.590   0.115   9.384
29689WAT     H189309   9.629   0.208   9.382
29689WAT     H289310   9.518   0.108   9.316
29690WAT      O89311   1.587   0.577   5.109
29690WAT     H189312   1.634   0.517   5.045
29690WAT     H289313   1.495   0.598   5.075
29691WAT      O89314   1.402   9.697   5.890
29691WAT     H189315   1.372   9.723   5.982
29691WAT     H289316   1.425   9.600   5.890
29692WAT      O89317   5.870   8.952   3.570
29692WAT     H189318   5.802   8.967   3.497
29692WAT     H289319   5.903   9.041   3.602
29693WAT      O89320   9.749   2.102   0.645
29693WAT     H189321   9.716   2.054   0.727
29693WAT     H289322   9.692   2.077   0.567
29694WAT      O89323   9.003   0.442   7.052
29694WAT     H189324   9.093   0.441   7.095
29694WAT     H289325   9.006   0.499   6.970
29695WAT      O89326   4.683   1.482   7.518
29695WAT     H189327   4.639   1.571   7.528
29695WAT     H289328   4.620   1.410   7.547
29696WAT      O89329   6.834   8.149   3.612
29696WAT     H189330   6.813   8.053   3.589
29696WAT     H289331   6.909   8.152   3.677
29697WAT      O89332   2.468   1.743   7.804
29697WAT     H189333   2.491   1.650   7.833
29697WAT     H289334   2.508   1.760   7.714
29698WAT      O89335   8.529   5.833   8.306
29698WAT     H189336   8.604   5.899   8.296
29698WAT     H289337   8.452   5.878   8.350
29699WAT      O89338   5.252   5.998   6.669
29699WAT     H189339   5.157   5.988   6.700
29699WAT     H289340   5.274   5.924   6.606
29700WAT      O89341   4.251   7.093   7.878
29700WAT     H189342   4.332   7.151   7.888
29700WAT     H289343   4.202   7.119   7.795
29701WAT      O89344   3.571   0.038   6.639
29701WAT     H189345   3.567  -0.006   6.549
29701WAT     H289346   3.644  -0.005   6.693
29702WAT      O89347   9.106   2.726   9.482
29702WAT     H189348   9.085   2.632   9.507
29702WAT     H289349   9.196   2.730   9.437
29703WAT      O89350   5.642   6.796   5.082
29703WAT     H189351   5.698   6.874   5.054
29703WAT     H289352   5.702   6.718   5.102
29704WAT      O89353   6.077   7.994   4.394
29704WAT     H189354   5.985   8.031   4.408
29704WAT     H289355   6.134   8.018   4.472
29705WAT      O89356   6.234   6.360   7.084
29705WAT     H189357   6.301   6.288   7.095
29705WAT     H289358   6.275   6.438   7.036
29706WAT      O89359   6.327   0.129   8.550
29706WAT     H189360   6.281   0.068   8.485
29706WAT     H289361   6.412   0.163   8.510
29707WAT      O89362   5.649   1.833   2.989
29707WAT     H189363   5.570   1.799   2.938
29707WAT     H289364   5.714   1.759   3.003
29708WAT      O89365   5.595   7.385   4.653
29708WAT     H189366   5.604   7.412   4.749
29708WAT     H289367   5.679   7.410   4.604
29709WAT      O89368   8.940   3.013   1.544
29709WAT     H189369   9.012   2.958   1.588
29709WAT     H289370   8.979   3.099   1.512
29710WAT      O89371   7.549   3.768   2.774
29710WAT     H189372   7.585   3.799   2.861
29710WAT     H289373   7.461   3.723   2.788
29711WAT      O89374   2.636   2.047   9.176
29711WAT     H189375   2.602   2.086   9.262
29711WAT     H289376   2.565   1.990   9.135
29712WAT      O89377   1.279   1.101   1.921
29712WAT     H189378   1.213   1.035   1.885
29712WAT     H289379   1.344   1.055   1.981
29713WAT      O89380   5.835   8.064   0.419
29713WAT     H189381   5.741   8.099   0.418
29713WAT     H289382   5.835   7.965   0.410
29714WAT      O89383   3.863   7.398   2.681
29714WAT     H189384   3.857   7.497   2.676
29714WAT     H289385   3.894   7.371   2.773
29715WAT      O89386   4.910   7.437   4.556
29715WAT     H189387   4.916   7.409   4.651
29715WAT     H289388   5.001   7.461   4.522
29716WAT      O89389   9.036   4.857   8.863
29716WAT     H189390   9.125   4.813   8.853
29716WAT     H289391   9.043   4.953   8.839
29717WAT      O89392   7.102   7.481   5.489
29717WAT     H189393   7.201   7.472   5.498
29717WAT     H289394   7.078   7.576   5.470
29718WAT      O89395   1.146   8.816   8.582
29718WAT     H189396   1.047   8.805   8.592
29718WAT     H289397   1.167   8.855   8.492
29719WAT      O89398   9.581   7.724   1.103
29719WAT     H189399   9.525   7.738   1.185
29719WAT     H289400   9.594   7.626   1.088
29720WAT      O89401   7.270   8.045   4.606
29720WAT     H189402   7.224   7.969   4.652
29720WAT     H289403   7.252   8.040   4.508
29721WAT      O89404   9.319   4.332   3.229
29721WAT     H189405   9.314   4.319   3.131
29721WAT     H289406   9.395   4.278   3.266
29722WAT      O89407   8.642   9.323   3.839
29722WAT     H189408   8.738   9.326   3.868
29722WAT     H289409   8.602   9.415   3.848
29723WAT      O89410   7.850   9.631   3.263
29723WAT     H189411   7.865   9.635   3.362
29723WAT     H289412   7.813   9.719   3.232
29724WAT      O89413   3.453   8.950   3.719
29724WAT     H189414   3.497   8.916   3.636
29724WAT     H289415   3.508   9.023   3.759
29725WAT      O89416   6.703   6.850   8.584
29725WAT     H189417   6.789   6.864   8.535
29725WAT     H289418   6.722   6.835   8.681
29726WAT      O89419   7.056   6.649   8.943
29726WAT     H189420   7.009   6.669   9.029
29726WAT     H289421   7.105   6.731   8.912
29727WAT      O89422   2.902   6.541   0.093
29727WAT     H189423   2.867   6.534   0.187
29727WAT     H289424   2.916   6.449   0.056
29728WAT      O89425   1.572   9.393   3.425
29728WAT     H189426   1.612   9.349   3.506
29728WAT     H289427   1.605   9.347   3.343
29729WAT      O89428   6.117   7.607   5.696
29729WAT     H189429   6.187   7.548   5.656
29729WAT     H289430   6.156   7.656   5.774
29730WAT      O89431   3.108   3.805   3.587
29730WAT     H189432   3.044   3.816   3.511
29730WAT     H289433   3.128   3.894   3.627
29731WAT      O89434   3.998   9.335   2.161
29731WAT     H189435   4.027   9.242   2.181
29731WAT     H289436   3.999   9.389   2.246
29732WAT      O89437   3.631   7.993   8.826
29732WAT     H189438   3.640   7.951   8.916
29732WAT     H289439   3.707   8.055   8.810
29733WAT      O89440   7.538   0.346   4.248
29733WAT     H189441   7.566   0.349   4.152
29733WAT     H289442   7.571   0.427   4.296
29734WAT      O89443   4.220   2.471   9.516
29734WAT     H189444   4.317   2.490   9.500
29734WAT     H289445   4.167   2.497   9.435
29735WAT      O89446   3.551   9.569   4.654
29735WAT     H189447   3.547   9.650   4.595
29735WAT     H289448   3.577   9.597   4.747
29736WAT      O89449   7.540   2.361   5.753
29736WAT     H189450   7.631   2.398   5.772
29736WAT     H289451   7.509   2.308   5.832
29737WAT      O89452   8.467   7.716   0.838
29737WAT     H189453   8.551   7.769   0.831
29737WAT     H289454   8.391   7.776   0.858
29738WAT      O89455   3.228   9.060   3.614
29738WAT     H189456   3.314   9.019   3.645
29738WAT     H289457   3.238   9.088   3.518
29739WAT      O89458   8.886   8.326   5.120
29739WAT     H189459   8.944   8.268   5.063
29739WAT     H289460   8.897   8.422   5.092
29740WAT      O89461   5.117   2.292   7.551
29740WAT     H189462   5.033   2.242   7.572
29740WAT     H289463   5.100   2.355   7.475
29741WAT      O89464   9.663   4.048   0.048
29741WAT     H189465   9.583   4.084   0.000
29741WAT     H289466   9.714   3.988  -0.013
29742WAT      O89467   8.305   2.045   7.265
29742WAT     H189468   8.391   2.040   7.317
29742WAT     H289469   8.294   2.138   7.229
29743WAT      O89470   5.641   0.794   2.978
29743WAT     H189471   5.725   0.835   2.942
29743WAT     H289472   5.569   0.863   2.981
29744WAT      O89473   4.240   0.930   0.863
29744WAT     H189474   4.277   1.018   0.894
29744WAT     H289475   4.158   0.908   0.916
29745WAT      O89476   7.232   2.721   6.729
29745WAT     H189477   7.291   2.801   6.733
29745WAT     H289478   7.267   2.650   6.790
29746WAT      O89479   9.089   2.044   3.663
29746WAT     H189480   9.015   2.106   3.639
29746WAT     H289481   9.084   2.023   3.760
29747WAT      O89482   1.381   7.794   2.072
29747WAT     H189483   1.345   7.795   2.166
29747WAT     H289484   1.305   7.789   2.007
29748WAT      O89485   5.290   2.406   2.756
29748WAT     H189486   5.339   2.326   2.720
29748WAT     H289487   5.275   2.472   2.683
29749WAT      O89488   5.633   7.688   2.516
29749WAT     H189489   5.638   7.589   2.530
29749WAT     H289490   5.668   7.735   2.597
29750WAT      O89491   2.368   5.965   2.217
29750WAT     H189492   2.412   6.000   2.134
29750WAT     H289493   2.424   5.985   2.297
29751WAT      O89494   8.920   8.351   8.039
29751WAT     H189495   8.923   8.280   7.969
29751WAT     H289496   9.003   8.407   8.033
29752WAT      O89497   4.432   1.691   4.827
29752WAT     H189498   4.396   1.655   4.740
29752WAT     H289499   4.381   1.651   4.903
29753WAT      O89500   5.726   5.822   5.011
29753WAT     H189501   5.793   5.791   4.943
29753WAT     H289502   5.634   5.793   4.982
29754WAT      O89503   1.074   8.714   6.400
29754WAT     H189504   1.034   8.792   6.352
29754WAT     H289505   1.078   8.735   6.498
29755WAT      O89506   2.058   7.906   1.318
29755WAT     H189507   2.137   7.955   1.354
29755WAT     H289508   1.977   7.930   1.371
29756WAT      O89509   9.228   6.105   0.187
29756WAT     H189510   9.148   6.121   0.246
29756WAT     H289511   9.207   6.137   0.095
29757WAT      O89512   1.399   9.707   1.298
29757WAT     H189513   1.457   9.785   1.317
29757WAT     H289514   1.328   9.733   1.232
29758WAT      O89515   5.633   0.605   6.905
29758WAT     H189516   5.708   0.618   6.970
29758WAT     H289517   5.550   0.580   6.955
29759WAT      O89518   4.487   5.765   7.581
29759WAT     H189519   4.482   5.685   7.641
29759WAT     H289520   4.583   5.784   7.559
29760WAT      O89521   7.075   1.447   7.114
29760WAT     H189522   6.980   1.433   7.142
29760WAT     H289523   7.135   1.435   7.193
29761WAT      O89524   0.595   2.846   7.874
29761WAT     H189525   0.643   2.829   7.960
29761WAT     H289526   0.531   2.922   7.887
29762WAT      O89527   1.170   7.830   1.890
29762WAT     H189528   1.106   7.758   1.863
29762WAT     H289529   1.147   7.914   1.842
29763WAT      O89530   9.477   9.378   5.516
29763WAT     H189531   9.515   9.467   5.541
29763WAT     H289532   9.467   9.322   5.599
29764WAT      O89533   6.096   4.769   1.338
29764WAT     H189534   6.082   4.850   1.394
29764WAT     H289535   6.008   4.724   1.321
29765WAT      O89536   2.621   3.944   8.050
29765WAT     H189537   2.677   3.958   8.131
29765WAT     H289538   2.584   3.851   8.051
29766WAT      O89539   7.157   2.120   8.061
29766WAT     H189540   7.233   2.134   8.124
29766WAT     H289541   7.085   2.187   8.079
29767WAT      O89542   4.673   9.817   9.158
29767WAT     H189543   4.600   9.874   9.119
29767WAT     H289544   4.730   9.873   9.218
29768WAT      O89545   5.476   9.707   3.964
29768WAT     H189546   5.552   9.648   3.936
29768WAT     H289547   5.428   9.740   3.883
29769WAT      O89548   3.619   6.445   8.690
29769WAT     H189549   3.602   6.494   8.775
29769WAT     H289550   3.544   6.380   8.674
29770WAT      O89551   9.732   7.767   4.748
29770WAT     H189552   9.822   7.809   4.739
29770WAT     H289553   9.713   7.712   4.667
29771WAT      O89554   5.221   8.820   3.384
29771WAT     H189555   5.152   8.749   3.368
29771WAT     H289556   5.257   8.851   3.296
29772WAT      O89557   6.194   2.596   6.705
29772WAT     H189558   6.273   2.650   6.675
29772WAT     H289559   6.110   2.640   6.673
29773WAT      O89560   4.482   6.176   9.390
29773WAT     H189561   4.468   6.274   9.410
29773WAT     H289562   4.579   6.160   9.370
29774WAT      O89563   3.609   2.096   1.358
29774WAT     H189564   3.590   2.082   1.455
29774WAT     H289565   3.623   2.008   1.312
29775WAT      O89566   2.439   1.279   4.930
29775WAT     H189567   2.514   1.264   4.995
29775WAT     H289568   2.424   1.196   4.877
29776WAT      O89569   2.445   8.490   2.613
29776WAT     H189570   2.410   8.583   2.603
29776WAT     H289571   2.454   8.447   2.523
29777WAT      O89572   1.005   1.414   8.182
29777WAT     H189573   0.944   1.487   8.214
29777WAT     H289574   0.960   1.325   8.196
29778WAT      O89575   7.391   4.331   2.098
29778WAT     H189576   7.488   4.343   2.116
29778WAT     H289577   7.340   4.406   2.140
29779WAT      O89578   7.014   7.484   4.388
29779WAT     H189579   7.069   7.438   4.457
29779WAT     H289580   6.994   7.578   4.417
29780WAT      O89581   7.975   7.875   7.266
29780WAT     H189582   8.027   7.842   7.188
29780WAT     H289583   7.887   7.828   7.270
29781WAT      O89584   3.275   6.900   9.416
29781WAT     H189585   3.337   6.951   9.356
29781WAT     H289586   3.187   6.888   9.371
29782WAT      O89587   9.410   5.452   1.503
29782WAT     H189588   9.497   5.407   1.522
29782WAT     H289589   9.407   5.479   1.407
29783WAT      O89590   6.282   2.621   3.916
29783WAT     H189591   6.375   2.605   3.885
29783WAT     H289592   6.280   2.625   4.016
29784WAT      O89593   0.060   3.559   1.169
29784WAT     H189594   0.064   3.591   1.074
29784WAT     H289595  -0.019   3.499   1.180
29785WAT      O89596   3.259   2.046   4.344
29785WAT     H189597   3.234   2.093   4.429
29785WAT     H289598   3.186   1.983   4.318
29786WAT      O89599   8.702   7.217   7.971
29786WAT     H189600   8.634   7.145   7.954
29786WAT     H289601   8.685   7.293   7.908
29787WAT      O89602   5.586   5.701   2.827
29787WAT     H189603   5.561   5.766   2.754
29787WAT     H289604   5.504   5.654   2.858
29788WAT      O89605   9.260   5.348   5.992
29788WAT     H189606   9.263   5.297   6.078
29788WAT     H289607   9.170   5.390   5.981
29789WAT      O89608   9.345   1.949   9.340
29789WAT     H189609   9.375   2.042   9.364
29789WAT     H289610   9.253   1.934   9.374
29790WAT      O89611   7.146   4.898   0.932
29790WAT     H189612   7.171   4.970   0.996
29790WAT     H289613   7.051   4.870   0.948
29791WAT      O89614   0.572   4.575   5.095
29791WAT     H189615   0.527   4.525   5.022
29791WAT     H289616   0.549   4.672   5.088
29792WAT      O89617   0.437   3.041   2.527
29792WAT     H189618   0.488   3.093   2.595
29792WAT     H289619   0.396   2.961   2.571
29793WAT      O89620   6.445   7.862   6.099
29793WAT     H189621   6.442   7.781   6.041
29793WAT     H289622   6.462   7.834   6.194
29794WAT      O89623   3.841   9.685   7.425
29794WAT     H189624   3.881   9.664   7.514
29794WAT     H289625   3.852   9.782   7.406
29795WAT      O89626   8.759   3.245   1.757
29795WAT     H189627   8.784   3.227   1.852
29795WAT     H289628   8.841   3.242   1.700
29796WAT      O89629   5.620   5.615   7.875
29796WAT     H189630   5.700   5.653   7.829
29796WAT     H289631   5.638   5.607   7.973
29797WAT      O89632   3.234   7.457   7.949
29797WAT     H189633   3.157   7.411   7.906
29797WAT     H289634   3.315   7.448   7.890
29798WAT      O89635   3.026   8.159   9.620
29798WAT     H189636   2.983   8.249   9.621
29798WAT     H289637   3.081   8.149   9.537
29799WAT      O89638   8.505   8.311   8.811
29799WAT     H189639   8.497   8.293   8.713
29799WAT     H289640   8.434   8.260   8.861
29800WAT      O89641   8.650   5.806   5.213
29800WAT     H189642   8.712   5.728   5.205
29800WAT     H289643   8.695   5.889   5.181
29801WAT      O89644   6.011   0.014   3.767
29801WAT     H189645   5.930  -0.008   3.713
29801WAT     H289646   6.039   0.109   3.750
29802WAT      O89647   7.952   1.842   6.758
29802WAT     H189648   7.897   1.788   6.822
29802WAT     H289649   7.966   1.789   6.674
29803WAT      O89650   0.407   3.255   3.200
29803WAT     H189651   0.359   3.342   3.190
29803WAT     H289652   0.505   3.272   3.215
29804WAT      O89653   7.235   0.588   4.153
29804WAT     H189654   7.171   0.605   4.078
29804WAT     H289655   7.297   0.666   4.162
29805WAT      O89656   4.723   2.377   8.489
29805WAT     H189657   4.755   2.389   8.583
29805WAT     H289658   4.788   2.419   8.425
29806WAT      O89659   4.072   6.442   5.128
29806WAT     H189660   4.030   6.530   5.106
29806WAT     H289661   4.166   6.457   5.160
29807WAT      O89662   2.965   9.182   9.866
29807WAT     H189663   2.928   9.117   9.800
29807WAT     H289664   2.950   9.275   9.833
29808WAT      O89665   7.893   0.676   4.298
29808WAT     H189666   7.826   0.749   4.281
29808WAT     H289667   7.860   0.591   4.258
29809WAT      O89668   2.092   9.764   3.389
29809WAT     H189669   1.994   9.770   3.369
29809WAT     H289670   2.107   9.778   3.486
29810WAT      O89671   2.183   5.805   6.608
29810WAT     H189672   2.262   5.775   6.555
29810WAT     H289673   2.102   5.753   6.579
29811WAT      O89674   0.801   7.055   7.578
29811WAT     H189675   0.736   7.003   7.633
29811WAT     H289676   0.853   7.117   7.637
29812WAT      O89677   9.230   5.823   0.174
29812WAT     H189678   9.252   5.920   0.161
29812WAT     H289679   9.159   5.814   0.244
29813WAT      O89680   0.279   4.983   9.686
29813WAT     H189681   0.229   4.996   9.771
29813WAT     H289682   0.366   5.032   9.690
29814WAT      O89683   5.558   0.081   0.687
29814WAT     H189684   5.464   0.069   0.721
29814WAT     H289685   5.560   0.064   0.588
29815WAT      O89686   3.131   8.766   2.478
29815WAT     H189687   3.164   8.800   2.390
29815WAT     H289688   3.062   8.828   2.514
29816WAT      O89689   0.599   7.440   4.495
29816WAT     H189690   0.657   7.520   4.480
29816WAT     H289691   0.504   7.464   4.472
29817WAT      O89692   9.616   4.891   0.615
29817WAT     H189693   9.691   4.838   0.577
29817WAT     H289694   9.552   4.830   0.663
29818WAT      O89695   1.695   8.453   7.522
29818WAT     H189696   1.782   8.466   7.570
29818WAT     H289697   1.641   8.384   7.570
29819WAT      O89698   8.050   3.687   9.284
29819WAT     H189699   8.102   3.644   9.211
29819WAT     H289700   8.109   3.749   9.336
29820WAT      O89701   6.176   7.008   9.666
29820WAT     H189702   6.079   7.027   9.677
29820WAT     H289703   6.224   7.093   9.642
29821WAT      O89704   2.781   9.155   2.763
29821WAT     H189705   2.768   9.105   2.677
29821WAT     H289706   2.695   9.160   2.813
29822WAT      O89707   3.765   2.414   1.076
29822WAT     H189708   3.762   2.315   1.088
29822WAT     H289709   3.842   2.451   1.129
29823WAT      O89710   0.266   4.603   4.276
29823WAT     H189711   0.336   4.532   4.292
29823WAT     H289712   0.295   4.663   4.202
29824WAT      O89713   7.196   8.691   1.774
29824WAT     H189714   7.121   8.629   1.799
29824WAT     H289715   7.259   8.698   1.851
29825WAT      O89716   4.230   2.098   7.818
29825WAT     H189717   4.262   2.185   7.856
29825WAT     H289718   4.289   2.071   7.743
29826WAT      O89719   1.500   0.293   0.613
29826WAT     H189720   1.566   0.249   0.553
29826WAT     H289721   1.415   0.310   0.562
29827WAT      O89722   7.662   2.924   2.557
29827WAT     H189723   7.565   2.900   2.564
29827WAT     H289724   7.672   3.000   2.494
29828WAT      O89725   4.269   7.815   2.810
29828WAT     H189726   4.305   7.809   2.903
29828WAT     H289727   4.307   7.740   2.755
29829WAT      O89728   2.385   0.998   6.254
29829WAT     H189729   2.310   1.044   6.207
29829WAT     H289730   2.411   0.916   6.203
29830WAT      O89731   0.813   8.993   3.080
29830WAT     H189732   0.910   8.984   3.055
29830WAT     H289733   0.798   8.955   3.171
29831WAT      O89734   3.694   3.087   2.717
29831WAT     H189735   3.759   3.161   2.732
29831WAT     H289736   3.735   3.018   2.657
29832WAT      O89737   0.411   6.977   0.358
29832WAT     H189738   0.362   7.064   0.347
29832WAT     H289739   0.346   6.901   0.355
29833WAT      O89740   1.122   0.594   9.584
29833WAT     H189741   1.070   0.607   9.500
29833WAT     H289742   1.183   0.516   9.574
29834WAT      O89743   1.490   8.986   1.542
29834WAT     H189744   1.535   8.994   1.453
29834WAT     H289745   1.557   8.962   1.612
29835WAT      O89746   5.967   3.731   1.403
29835WAT     H189747   5.882   3.752   1.356
29835WAT     H289748   5.958   3.643   1.450
29836WAT      O89749   1.229   2.611   4.231
29836WAT     H189750   1.281   2.602   4.147
29836WAT     H289751   1.287   2.650   4.303
29837WAT      O89752   4.552   5.201   8.910
29837WAT     H189753   4.623   5.149   8.863
29837WAT     H289754   4.474   5.142   8.929
29838WAT      O89755   3.378   5.614   4.996
29838WAT     H189756   3.408   5.531   5.044
29838WAT     H289757   3.328   5.589   4.913
29839WAT      O89758   3.756   8.264   6.202
29839WAT     H189759   3.795   8.237   6.114
29839WAT     H289760   3.661   8.294   6.190
29840WAT      O89761   8.355   5.921   1.846
29840WAT     H189762   8.259   5.897   1.833
29840WAT     H289763   8.387   5.886   1.934
29841WAT      O89764   0.049   6.327   7.807
29841WAT     H189765   0.038   6.410   7.861
29841WAT     H289766   0.002   6.338   7.719
29842WAT      O89767   1.755   2.560   7.495
29842WAT     H189768   1.843   2.606   7.489
29842WAT     H289769   1.712   2.559   7.405
29843WAT      O89770   1.525   5.181   8.184
29843WAT     H189771   1.499   5.170   8.280
29843WAT     H289772   1.477   5.259   8.145
29844WAT      O89773   8.978   2.289   1.862
29844WAT     H189774   8.927   2.374   1.865
29844WAT     H289775   8.922   2.217   1.821
29845WAT      O89776   2.286   8.161   7.097
29845WAT     H189777   2.253   8.222   7.024
29845WAT     H289778   2.215   8.149   7.165
29846WAT      O89779   2.221   3.656   9.586
29846WAT     H189780   2.198   3.582   9.523
29846WAT     H289781   2.292   3.713   9.546
29847WAT      O89782   3.150   6.187   1.281
29847WAT     H189783   3.103   6.274   1.298
29847WAT     H289784   3.109   6.116   1.338
29848WAT      O89785   5.994   9.088   3.319
29848WAT     H189786   6.089   9.095   3.350
29848WAT     H289787   5.973   8.992   3.298
29849WAT      O89788   5.439   2.345   2.025
29849WAT     H189789   5.502   2.403   1.973
29849WAT     H289790   5.412   2.391   2.109
29850WAT      O89791   0.425   3.014   4.120
29850WAT     H189792   0.489   3.060   4.058
29850WAT     H289793   0.338   2.997   4.072
29851WAT      O89794   3.606   9.703   0.048
29851WAT     H189795   3.693   9.745   0.074
29851WAT     H289796   3.554   9.767  -0.009
29852WAT      O89797   9.601   5.509   6.757
29852WAT     H189798   9.594   5.604   6.786
29852WAT     H289799   9.684   5.496   6.702
29853WAT      O89800   5.979   0.045   5.167
29853WAT     H189801   5.993  -0.049   5.199
29853WAT     H289802   6.026   0.109   5.229
29854WAT      O89803   2.457   4.359   9.103
29854WAT     H189804   2.550   4.323   9.096
29854WAT     H289805   2.450   4.443   9.049
29855WAT      O89806   9.764   0.210   6.825
29855WAT     H189807   9.710   0.257   6.755
29855WAT     H289808   9.813   0.134   6.783
29856WAT      O89809   5.126   9.676   5.271
29856WAT     H189810   5.084   9.767   5.275
29856WAT     H289811   5.162   9.651   5.361
29857WAT      O89812   5.647   3.412   2.872
29857WAT     H189813   5.596   3.498   2.870
29857WAT     H289814   5.745   3.432   2.878
29858WAT      O89815   5.451   6.268   0.854
29858WAT     H189816   5.402   6.240   0.936
29858WAT     H289817   5.548   6.282   0.876
29859WAT      O89818   1.583   4.644   8.740
29859WAT     H189819   1.646   4.702   8.791
29859WAT     H289820   1.489   4.670   8.761
29860WAT      O89821   9.019   8.907   0.244
29860WAT     H189822   8.956   8.836   0.213
29860WAT     H289823   8.976   8.997   0.234
29861WAT      O89824   5.965   3.546   0.304
29861WAT     H189825   5.966   3.447   0.324
29861WAT     H289826   6.013   3.563   0.218
29862WAT      O89827   2.590   1.341   7.492
29862WAT     H189828   2.657   1.411   7.519
29862WAT     H289829   2.502   1.362   7.535
29863WAT      O89830   2.381   2.562   3.356
29863WAT     H189831   2.479   2.545   3.351
29863WAT     H289832   2.362   2.621   3.435
29864WAT      O89833   5.945   2.123   0.409
29864WAT     H189834   5.907   2.215   0.404
29864WAT     H289835   5.918   2.080   0.495
29865WAT      O89836   7.574   9.032   3.755
29865WAT     H189837   7.500   9.044   3.689
29865WAT     H289838   7.637   8.962   3.722
29866WAT      O89839   6.591   3.104   5.440
29866WAT     H189840   6.604   3.203   5.429
29866WAT     H289841   6.580   3.062   5.350
29867WAT      O89842   7.654   8.545   8.156
29867WAT     H189843   7.560   8.515   8.142
29867WAT     H289844   7.655   8.628   8.212
29868WAT      O89845   7.607   2.314   4.191
29868WAT     H189846   7.678   2.297   4.260
29868WAT     H289847   7.536   2.373   4.230
29869WAT      O89848   4.839   2.190   0.303
29869WAT     H189849   4.892   2.191   0.218
29869WAT     H289850   4.864   2.110   0.357
29870WAT      O89851   9.620   4.484   5.807
29870WAT     H189852   9.673   4.557   5.764
29870WAT     H289853   9.654   4.469   5.900
29871WAT      O89854   8.752   3.945   2.170
29871WAT     H189855   8.832   3.995   2.202
29871WAT     H289856   8.671   4.005   2.175
29872WAT      O89857   9.071   0.730   3.221
29872WAT     H189858   9.028   0.816   3.193
29872WAT     H289859   9.086   0.731   3.320
29873WAT      O89860   2.960   8.074   2.405
29873WAT     H189861   3.012   8.003   2.452
29873WAT     H289862   2.928   8.142   2.471
29874WAT      O89863   6.758   4.630   6.288
29874WAT     H189864   6.768   4.704   6.222
29874WAT     H289865   6.753   4.543   6.240
29875WAT      O89866   5.031   1.886   0.293
29875WAT     H189867   5.014   1.787   0.291
29875WAT     H289868   5.030   1.921   0.199
29876WAT      O89869   3.294   9.545   8.422
29876WAT     H189870   3.232   9.493   8.481
29876WAT     H289871   3.254   9.556   8.332
29877WAT      O89872   9.302   4.766   8.921
29877WAT     H189873   9.327   4.823   9.000
29877WAT     H289874   9.325   4.671   8.940
29878WAT      O89875   8.362   5.304   4.249
29878WAT     H189876   8.458   5.290   4.224
29878WAT     H289877   8.325   5.381   4.196
29879WAT      O89878   8.827   6.606   6.712
29879WAT     H189879   8.767   6.564   6.781
29879WAT     H289880   8.810   6.704   6.709
29880WAT      O89881   0.603   9.317   6.828
29880WAT     H189882   0.538   9.390   6.849
29880WAT     H289883   0.580   9.276   6.739
29881WAT      O89884   4.968   0.787   4.731
29881WAT     H189885   5.037   0.817   4.665
29881WAT     H289886   4.983   0.691   4.754
29882WAT      O89887   7.424   8.066   2.626
29882WAT     H189888   7.494   8.112   2.571
29882WAT     H289889   7.466   7.990   2.676
29883WAT      O89890   2.806   6.884   3.980
29883WAT     H189891   2.804   6.972   4.027
29883WAT     H289892   2.761   6.894   3.891
29884WAT      O89893   8.832   1.736   8.039
29884WAT     H189894   8.900   1.788   8.091
29884WAT     H289895   8.753   1.717   8.098
29885WAT      O89896   4.026   5.833   0.112
29885WAT     H189897   4.048   5.900   0.183
29885WAT     H289898   4.037   5.875   0.022
29886WAT      O89899   0.884   4.970   7.017
29886WAT     H189900   0.796   4.957   7.064
29886WAT     H289901   0.951   4.906   7.054
29887WAT      O89902   1.025   5.517   3.261
29887WAT     H189903   1.101   5.541   3.321
29887WAT     H289904   0.940   5.517   3.313
29888WAT      O89905   3.803   0.436   7.879
29888WAT     H189906   3.827   0.400   7.969
29888WAT     H289907   3.703   0.440   7.871
29889WAT      O89908   8.834   4.749   8.679
29889WAT     H189909   8.855   4.652   8.690
29889WAT     H289910   8.895   4.803   8.736
29890WAT      O89911   3.723   3.278   2.425
29890WAT     H189912   3.741   3.361   2.372
29890WAT     H289913   3.629   3.279   2.457
29891WAT      O89914   9.829   0.639   1.018
29891WAT     H189915   9.873   0.628   0.929
29891WAT     H289916   9.846   0.732   1.052
29892WAT      O89917   9.653   4.694   2.126
29892WAT     H189918   9.651   4.793   2.143
29892WAT     H289919   9.698   4.648   2.203
29893WAT      O89920   1.032   6.777   2.888
29893WAT     H189921   0.993   6.832   2.814
29893WAT     H289922   0.981   6.692   2.898
29894WAT      O89923   0.897   1.328   8.979
29894WAT     H189924   0.880   1.232   8.957
29894WAT     H289925   0.942   1.372   8.901
29895WAT      O89926   2.745   5.327   7.292
29895WAT     H189927   2.835   5.293   7.322
29895WAT     H289928   2.723   5.410   7.342
29896WAT      O89929   5.420   1.600   7.730
29896WAT     H189930   5.411   1.562   7.822
29896WAT     H289931   5.369   1.544   7.665
29897WAT      O89932   1.914   5.321   4.422
29897WAT     H189933   1.858   5.404   4.418
29897WAT     H289934   1.858   5.241   4.399
29898WAT      O89935   9.240   8.885   6.720
29898WAT     H189936   9.253   8.788   6.697
29898WAT     H289937   9.234   8.895   6.819
29899WAT      O89938   7.749   4.034   0.586
29899WAT     H189939   7.817   3.961   0.577
29899WAT     H289940   7.739   4.082   0.498
29900WAT      O89941   2.481   1.557   3.897
29900WAT     H189942   2.486   1.462   3.865
29900WAT     H289943   2.423   1.610   3.834
29901WAT      O89944   7.896   2.702   4.134
29901WAT     H189945   7.910   2.670   4.228
29901WAT     H289946   7.798   2.708   4.115
29902WAT      O89947   1.402   9.777   3.574
29902WAT     H189948   1.423   9.771   3.477
29902WAT     H289949   1.475   9.735   3.627
29903WAT      O89950   1.251   1.793   5.118
29903WAT     H189951   1.160   1.797   5.076
29903WAT     H289952   1.250   1.840   5.206
29904WAT      O89953   2.463   5.541   6.533
29904WAT     H189954   2.471   5.444   6.509
29904WAT     H289955   2.546   5.572   6.578
29905WAT      O89956   7.354   1.051   2.634
29905WAT     H189957   7.266   1.077   2.673
29905WAT     H289958   7.413   1.131   2.626
29906WAT      O89959   0.368   2.593   3.708
29906WAT     H189960   0.367   2.597   3.608
29906WAT     H289961   0.426   2.517   3.738
29907WAT      O89962   2.274   0.568   2.491
29907WAT     H189963   2.306   0.578   2.397
29907WAT     H289964   2.181   0.606   2.499
29908WAT      O89965   5.000   7.425   7.538
29908WAT     H189966   5.035   7.408   7.446
29908WAT     H289967   4.988   7.524   7.551
29909WAT      O89968   4.516   2.080   3.728
29909WAT     H189969   4.432   2.134   3.733
29909WAT     H289970   4.492   1.983   3.737
29910WAT      O89971   6.733   9.253   5.925
29910WAT     H189972   6.814   9.292   5.881
29910WAT     H289973   6.757   9.170   5.974
29911WAT      O89974   2.813   5.766   4.821
29911WAT     H189975   2.854   5.779   4.911
29911WAT     H289976   2.846   5.680   4.782
29912WAT      O89977   5.465   8.800   6.522
29912WAT     H189978   5.529   8.815   6.597
29912WAT     H289979   5.395   8.871   6.522
29913WAT      O89980   1.865   9.306   4.249
29913WAT     H189981   1.833   9.295   4.343
29913WAT     H289982   1.965   9.303   4.247
29914WAT      O89983   9.883   0.756   7.288
29914WAT     H189984   9.864   0.689   7.360
29914WAT     H289985   9.826   0.837   7.301
29915WAT      O89986   8.661   0.272   8.402
29915WAT     H189987   8.579   0.254   8.457
29915WAT     H289988   8.672   0.371   8.392
29916WAT      O89989   3.833   3.496   0.631
29916WAT     H189990   3.925   3.509   0.595
29916WAT     H289991   3.814   3.566   0.700
29917WAT      O89992   8.572   5.469   0.676
29917WAT     H189993   8.665   5.447   0.704
29917WAT     H289994   8.539   5.403   0.609
29918WAT      O89995   1.362   6.496   8.096
29918WAT     H189996   1.416   6.464   8.018
29918WAT     H289997   1.421   6.505   8.176
29919WAT      O89998   5.525   1.016   0.092
29919WAT     H189999   5.532   1.116   0.085
29919WAT     H290000   5.613   0.980   0.124
29920WAT      O90001   0.270   0.390   7.952
29920WAT     H190002   0.196   0.441   7.907
29920WAT     H290003   0.330   0.454   8.000
29921WAT      O90004   3.315   2.190   5.364
29921WAT     H190005   3.353   2.110   5.316
29921WAT     H290006   3.236   2.224   5.313
29922WAT      O90007   1.067   3.420   5.708
29922WAT     H190008   1.016   3.487   5.653
29922WAT     H290009   1.032   3.328   5.690
29923WAT      O90010   5.165   0.979   1.136
29923WAT     H190011   5.193   1.060   1.186
29923WAT     H290012   5.091   1.003   1.073
29924WAT      O90013   8.962   7.973   4.400
29924WAT     H190014   9.059   7.980   4.422
29924WAT     H290015   8.916   7.916   4.468
29925WAT      O90016   9.204   4.776   4.893
29925WAT     H190017   9.147   4.776   4.974
29925WAT     H290018   9.228   4.681   4.869
29926WAT      O90019   8.860   6.418   3.415
29926WAT     H190020   8.882   6.321   3.424
29926WAT     H290021   8.802   6.446   3.492
29927WAT      O90022   9.474   1.530   3.955
29927WAT     H190023   9.451   1.583   3.873
29927WAT     H290024   9.483   1.434   3.931
29928WAT      O90025   6.295   8.811   4.713
29928WAT     H190026   6.345   8.847   4.634
29928WAT     H290027   6.291   8.711   4.707
29929WAT      O90028   8.610   3.154   5.009
29929WAT     H190029   8.589   3.214   5.086
29929WAT     H290030   8.698   3.109   5.025
29930WAT      O90031   8.883   4.211   5.132
29930WAT     H190032   8.818   4.174   5.199
29930WAT     H290033   8.833   4.250   5.055
29931WAT      O90034   1.994   8.112   6.832
29931WAT     H190035   2.020   8.034   6.774
29931WAT     H290036   1.922   8.084   6.896
29932WAT      O90037   1.060   8.207   3.996
29932WAT     H190038   1.134   8.273   3.982
29932WAT     H290039   1.060   8.176   4.091
29933WAT      O90040   7.801   2.274   0.003
29933WAT     H190041   7.747   2.345   0.047
29933WAT     H290042   7.882   2.255   0.058
29934WAT      O90043   1.699   8.893   7.138
29934WAT     H190044   1.642   8.813   7.115
29934WAT     H290045   1.783   8.862   7.183
29935WAT      O90046   9.393   0.185   1.611
29935WAT     H190047   9.303   0.210   1.576
29935WAT     H290048   9.458   0.179   1.535
29936WAT      O90049   7.720   4.266   8.729
29936WAT     H190050   7.701   4.173   8.699
29936WAT     H290051   7.648   4.327   8.696
29937WAT      O90052   0.047   0.413   2.846
29937WAT     H190053   0.109   0.431   2.922
29937WAT     H290054   0.084   0.340   2.788
29938WAT      O90055   6.959   8.027   1.565
29938WAT     H190056   7.053   7.992   1.567
29938WAT     H290057   6.928   8.045   1.658
29939WAT      O90058   7.058   7.937   3.510
29939WAT     H190059   6.969   7.907   3.544
29939WAT     H290060   7.125   7.937   3.585
29940WAT      O90061   0.958   5.591   8.628
29940WAT     H190062   1.049   5.551   8.643
29940WAT     H290063   0.909   5.538   8.559
29941WAT      O90064   5.153   5.177   3.123
29941WAT     H190065   5.125   5.095   3.172
29941WAT     H290066   5.076   5.242   3.121
29942WAT      O90067   5.185   9.369   0.281
29942WAT     H190068   5.200   9.466   0.301
29942WAT     H290069   5.200   9.315   0.363
29943WAT      O90070   9.653   2.415   5.944
29943WAT     H190071   9.643   2.501   5.995
29943WAT     H290072   9.596   2.345   5.986
29944WAT      O90073   8.755   5.469   9.771
29944WAT     H190074   8.853   5.453   9.785
29944WAT     H290075   8.729   5.438   9.680
29945WAT      O90076   3.520   8.021   6.111
29945WAT     H190077   3.602   7.972   6.083
29945WAT     H290078   3.465   7.961   6.170
29946WAT      O90079   4.871   0.745   0.475
29946WAT     H190080   4.968   0.721   0.483
29946WAT     H290081   4.863   0.836   0.434
29947WAT      O90082   9.580   3.049   9.491
29947WAT     H190083   9.642   3.125   9.474
29947WAT     H290084   9.632   2.963   9.494
29948WAT      O90085   9.473   5.345   9.422
29948WAT     H190086   9.555   5.354   9.365
29948WAT     H290087   9.418   5.429   9.414
29949WAT      O90088   8.397   3.113   0.160
29949WAT     H190089   8.346   3.029   0.181
29949WAT     H290090   8.486   3.110   0.206
29950WAT      O90091   7.541   2.445   6.186
29950WAT     H190092   7.549   2.425   6.284
29950WAT     H290093   7.633   2.451   6.146
29951WAT      O90094   1.059   9.595   4.877
29951WAT     H190095   1.120   9.657   4.925
29951WAT     H290096   1.111   9.517   4.842
29952WAT      O90097   6.356   2.229   7.057
29952WAT     H190098   6.410   2.312   7.039
29952WAT     H290099   6.270   2.234   7.006
29953WAT      O90100   0.658   7.041   8.018
29953WAT     H190101   0.704   7.086   8.095
29953WAT     H290102   0.694   6.949   8.007
29954WAT      O90103   2.200   8.749   0.238
29954WAT     H190104   2.246   8.661   0.231
29954WAT     H290105   2.254   8.819   0.190
29955WAT      O90106   9.147   6.541   2.937
29955WAT     H190107   9.062   6.585   2.969
29955WAT     H290108   9.189   6.491   3.012
29956WAT      O90109   6.970   9.693   1.506
29956WAT     H190110   6.999   9.765   1.569
29956WAT     H290111   6.963   9.606   1.555
29957WAT      O90112   4.494   3.387   8.645
29957WAT     H190113   4.550   3.448   8.702
29957WAT     H290114   4.520   3.293   8.663
29958WAT      O90115   9.835   2.483   4.221
29958WAT     H190116   9.918   2.520   4.179
29958WAT     H290117   9.765   2.470   4.150
29959WAT      O90118   9.598   3.687   9.455
29959WAT     H190119   9.545   3.770   9.438
29959WAT     H290120   9.542   3.623   9.509
29960WAT      O90121   2.784   1.919   7.412
29960WAT     H190122   2.775   1.993   7.479
29960WAT     H290123   2.866   1.865   7.432
29961WAT      O90124   0.458   0.749   0.961
29961WAT     H190125   0.524   0.720   0.891
29961WAT     H290126   0.367   0.755   0.920
29962WAT      O90127   2.829   9.024   4.197
29962WAT     H190128   2.898   8.956   4.223
29962WAT     H290129   2.836   9.043   4.099
29963WAT      O90130   3.012   8.416   8.205
29963WAT     H190131   3.058   8.423   8.294
29963WAT     H290132   2.914   8.427   8.218
29964WAT      O90133   8.378   5.965   7.327
29964WAT     H190134   8.460   5.941   7.276
29964WAT     H290135   8.340   6.051   7.290
29965WAT      O90136   7.503   0.432   4.646
29965WAT     H190137   7.403   0.428   4.633
29965WAT     H290138   7.524   0.439   4.743
29966WAT      O90139   4.558   5.426   3.115
29966WAT     H190140   4.598   5.337   3.094
29966WAT     H290141   4.516   5.422   3.206
29967WAT      O90142   9.857   7.030   8.059
29967WAT     H190143   9.906   6.956   8.012
29967WAT     H290144   9.871   7.116   8.009
29968WAT      O90145   6.540   1.779   2.339
29968WAT     H190146   6.592   1.720   2.401
29968WAT     H290147   6.493   1.849   2.393
29969WAT      O90148   6.371   6.970   7.080
29969WAT     H190149   6.382   6.871   7.082
29969WAT     H290150   6.332   7.002   7.166
29970WAT      O90151   7.033   4.978   7.861
29970WAT     H190152   7.016   4.973   7.762
29970WAT     H290153   7.003   5.068   7.895
29971WAT      O90154   3.860   8.620   1.160
29971WAT     H190155   3.929   8.591   1.094
29971WAT     H290156   3.794   8.546   1.174
29972WAT      O90157   3.610   9.789   3.641
29972WAT     H190158   3.536   9.818   3.701
29972WAT     H290159   3.690   9.846   3.656
29973WAT      O90160   0.089   1.525   3.554
29973WAT     H190161   0.184   1.559   3.557
29973WAT     H290162   0.027   1.603   3.552
29974WAT      O90163   9.277   0.991   7.559
29974WAT     H190164   9.353   0.977   7.623
29974WAT     H290165   9.216   0.911   7.563
29975WAT      O90166   8.746   4.888   7.152
29975WAT     H190167   8.767   4.797   7.188
29975WAT     H290168   8.806   4.909   7.076
29976WAT      O90169   9.738   4.156   7.880
29976WAT     H190170   9.726   4.255   7.878
29976WAT     H290171   9.649   4.111   7.881
29977WAT      O90172   7.782   3.963   8.721
29977WAT     H190173   7.791   3.874   8.676
29977WAT     H290174   7.867   4.014   8.712
29978WAT      O90175   7.811   0.779   0.551
29978WAT     H190176   7.759   0.863   0.569
29978WAT     H290177   7.857   0.749   0.634
29979WAT      O90178   8.715   6.440   9.117
29979WAT     H190179   8.640   6.375   9.131
29979WAT     H290180   8.720   6.503   9.194
29980WAT      O90181   8.506   6.681   7.599
29980WAT     H190182   8.567   6.729   7.536
29980WAT     H290183   8.426   6.648   7.550
29981WAT      O90184   4.164   4.528   5.403
29981WAT     H190185   4.124   4.441   5.432
29981WAT     H290186   4.120   4.602   5.453
29982WAT      O90187   9.582   9.158   2.286
29982WAT     H190188   9.582   9.238   2.225
29982WAT     H290189   9.661   9.164   2.347
29983WAT      O90190   7.824   4.808   3.215
29983WAT     H190191   7.779   4.812   3.304
29983WAT     H290192   7.774   4.744   3.155
29984WAT      O90193   6.640   2.388   9.754
29984WAT     H190194   6.696   2.339   9.820
29984WAT     H290195   6.559   2.334   9.731
29985WAT      O90196   3.460   4.714   1.789
29985WAT     H190197   3.415   4.746   1.873
29985WAT     H290198   3.403   4.645   1.745
29986WAT      O90199   2.086   7.413   4.537
29986WAT     H190200   2.033   7.349   4.592
29986WAT     H290201   2.046   7.420   4.446
29987WAT      O90202   3.647   0.913   4.859
29987WAT     H190203   3.550   0.919   4.834
29987WAT     H290204   3.672   0.817   4.873
29988WAT      O90205   3.158   2.089   7.527
29988WAT     H190206   3.133   2.142   7.446
29988WAT     H290207   3.189   1.998   7.499
29989WAT      O90208   4.965   4.690   7.944
29989WAT     H190209   4.895   4.623   7.967
29989WAT     H290210   5.046   4.675   8.000
29990WAT      O90211   8.284   6.102   3.016
29990WAT     H190212   8.316   6.195   3.032
29990WAT     H290213   8.354   6.050   2.967
29991WAT      O90214   9.009   8.347   1.785
29991WAT     H190215   8.990   8.426   1.727
29991WAT     H290216   9.040   8.378   1.875
29992WAT      O90217   1.457   2.095   4.115
29992WAT     H190218   1.385   2.140   4.166
29992WAT     H290219   1.497   2.021   4.170
29993WAT      O90220   1.283   8.221   4.220
29993WAT     H190221   1.193   8.239   4.259
29993WAT     H290222   1.314   8.130   4.248
29994WAT      O90223   9.042   0.301   1.045
29994WAT     H190224   8.963   0.301   0.983
29994WAT     H290225   9.122   0.266   0.996
29995WAT      O90226   5.929   7.588   9.155
29995WAT     H190227   5.857   7.524   9.181
29995WAT     H290228   5.964   7.563   9.065
29996WAT      O90229   7.149   9.536   3.144
29996WAT     H190230   7.245   9.554   3.122
29996WAT     H290231   7.109   9.478   3.074
29997WAT      O90232   8.722   1.875   5.246
29997WAT     H190233   8.765   1.963   5.265
29997WAT     H290234   8.721   1.820   5.330
29998WAT      O90235   1.419   3.527   0.294
29998WAT     H190236   1.325   3.501   0.319
29998WAT     H290237   1.477   3.446   0.295
29999WAT      O90238   1.416   8.105   0.749
29999WAT     H190239   1.361   8.064   0.822
29999WAT     H290240   1.362   8.106   0.664
30000WAT      O90241   2.387   5.536   2.117
30000WAT     H190242   2.290   5.562   2.113
30000WAT     H290243   2.421   5.550   2.210
30001WAT      O90244   5.124   3.087   4.132
30001WAT     H190245   5.117   3.064   4.229
30001WAT     H290246   5.207   3.140   4.116
30002WAT      O90247   5.046   7.535   8.484
30002WAT     H190248   5.027   7.439   8.461
30002WAT     H290249   5.127   7.566   8.434
30003WAT      O90250   3.087   0.638   1.565
30003WAT     H190251   3.110   0.726   1.608
30003WAT     H290252   3.155   0.616   1.495
30004WAT      O90253   0.099   7.685   1.562
30004WAT     H190254   0.005   7.698   1.594
30004WAT     H290255   0.148   7.772   1.564
30005WAT      O90256   4.260   4.691   3.899
30005WAT     H190257   4.271   4.603   3.945
30005WAT     H290258   4.171   4.692   3.852
30006WAT      O90259   7.837   8.476   4.348
30006WAT     H190260   7.744   8.500   4.321
30006WAT     H290261   7.844   8.377   4.360
30007WAT      O90262   1.125   1.444   6.858
30007WAT     H190263   1.086   1.369   6.804
30007WAT     H290264   1.136   1.525   6.799
30008WAT      O90265   5.108   3.761   4.007
30008WAT     H190266   5.149   3.838   3.959
30008WAT     H290267   5.164   3.680   3.993
30009WAT      O90268   3.422   3.365   8.169
30009WAT     H190269   3.352   3.339   8.102
30009WAT     H290270   3.378   3.390   8.255
30010WAT      O90271   3.978   3.617   0.317
30010WAT     H190272   4.002   3.521   0.335
30010WAT     H290273   4.046   3.657   0.256
30011WAT      O90274   9.243   4.368   0.558
30011WAT     H190275   9.301   4.293   0.592
30011WAT     H290276   9.301   4.437   0.516
30012WAT      O90277   1.296   9.568   4.268
30012WAT     H190278   1.385   9.530   4.291
30012WAT     H290279   1.243   9.501   4.216
30013WAT      O90280   9.100   9.015   3.828
30013WAT     H190281   9.144   9.098   3.863
30013WAT     H290282   9.109   9.012   3.729
30014WAT      O90283   2.762   9.703   0.802
30014WAT     H190284   2.673   9.741   0.778
30014WAT     H290285   2.800   9.753   0.879
30015WAT      O90286   8.773   2.233   2.350
30015WAT     H190287   8.771   2.321   2.398
30015WAT     H290288   8.848   2.233   2.284
30016WAT      O90289   5.244   2.504   3.792
30016WAT     H190290   5.169   2.437   3.799
30016WAT     H290291   5.261   2.544   3.882
30017WAT      O90292   1.704   2.333   7.596
30017WAT     H190293   1.739   2.414   7.550
30017WAT     H290294   1.709   2.255   7.534
30018WAT      O90295   3.102   7.254   8.385
30018WAT     H190296   3.029   7.279   8.450
30018WAT     H290297   3.140   7.166   8.412
30019WAT      O90298   4.578   5.371   8.308
30019WAT     H190299   4.518   5.308   8.258
30019WAT     H290300   4.525   5.449   8.340
30020WAT      O90301   7.543   3.438   1.253
30020WAT     H190302   7.546   3.433   1.353
30020WAT     H290303   7.458   3.482   1.224
30021WAT      O90304   4.543   6.040   1.097
30021WAT     H190305   4.589   5.965   1.049
30021WAT     H290306   4.598   6.123   1.090
30022WAT      O90307   4.532   9.481   9.696
30022WAT     H190308   4.618   9.439   9.667
30022WAT     H290309   4.455   9.436   9.651
30023WAT      O90310   9.874   6.541   7.969
30023WAT     H190311   9.775   6.549   7.980
30023WAT     H290312   9.916   6.631   7.977
30024WAT      O90313   0.496   1.493   6.356
30024WAT     H190314   0.512   1.450   6.267
30024WAT     H290315   0.488   1.422   6.426
30025WAT      O90316   0.778   2.929   0.888
30025WAT     H190317   0.682   2.934   0.914
30025WAT     H290318   0.818   3.020   0.891
30026WAT      O90319   1.534   4.937   0.626
30026WAT     H190320   1.594   4.985   0.562
30026WAT     H290321   1.516   4.995   0.705
30027WAT      O90322   9.749   4.211   2.960
30027WAT     H190323   9.804   4.259   3.028
30027WAT     H290324   9.679   4.272   2.924
30028WAT      O90325   4.814   9.738   0.880
30028WAT     H190326   4.743   9.674   0.850
30028WAT     H290327   4.884   9.746   0.810
30029WAT      O90328   6.337   0.513   0.649
30029WAT     H190329   6.312   0.606   0.623
30029WAT     H290330   6.435   0.499   0.635
30030WAT      O90331   6.203   9.093   4.502
30030WAT     H190332   6.280   9.033   4.480
30030WAT     H290333   6.127   9.075   4.439
30031WAT      O90334   2.022   1.013   8.595
30031WAT     H190335   2.103   0.961   8.622
30031WAT     H290336   2.042   1.063   8.510
30032WAT      O90337   0.607   4.967   1.259
30032WAT     H190338   0.647   4.885   1.301
30032WAT     H290339   0.539   4.940   1.191
30033WAT      O90340   3.668   2.684   5.487
30033WAT     H190341   3.581   2.712   5.447
30033WAT     H290342   3.724   2.765   5.505
30034WAT      O90343   5.768   3.155   7.830
30034WAT     H190344   5.679   3.199   7.839
30034WAT     H290345   5.824   3.176   7.910
30035WAT      O90346   5.940   5.166   0.963
30035WAT     H190347   5.973   5.149   1.056
30035WAT     H290348   5.868   5.100   0.941
30036WAT      O90349   8.965   0.222   6.170
30036WAT     H190350   8.978   0.209   6.268
30036WAT     H290351   8.938   0.317   6.152
30037WAT      O90352   1.564   5.647   3.712
30037WAT     H190353   1.663   5.656   3.721
30037WAT     H290354   1.524   5.620   3.800
30038WAT      O90355   3.784   1.588   7.771
30038WAT     H190356   3.879   1.595   7.801
30038WAT     H290357   3.735   1.524   7.829
30039WAT      O90358   5.923   6.211   4.836
30039WAT     H190359   5.921   6.308   4.856
30039WAT     H290360   5.890   6.195   4.743
30040WAT      O90361   2.555   1.419   6.922
30040WAT     H190362   2.609   1.503   6.922
30040WAT     H290363   2.602   1.349   6.869
30041WAT      O90364   6.405   7.348   3.725
30041WAT     H190365   6.306   7.337   3.737
30041WAT     H290366   6.452   7.319   3.809
30042WAT      O90367   1.568   3.972   8.526
30042WAT     H190368   1.470   3.991   8.530
30042WAT     H290369   1.600   3.946   8.617
30043WAT      O90370   9.734   3.056   1.692
30043WAT     H190371   9.701   2.991   1.761
30043WAT     H290372   9.716   3.149   1.724
30044WAT      O90373   1.629   2.571   1.982
30044WAT     H190374   1.621   2.665   1.949
30044WAT     H290375   1.714   2.560   2.033
30045WAT      O90376   7.744   6.946   5.559
30045WAT     H190377   7.693   6.901   5.486
30045WAT     H290378   7.680   6.975   5.631
30046WAT      O90379   2.415   5.197   8.111
30046WAT     H190380   2.505   5.237   8.127
30046WAT     H290381   2.420   5.098   8.117
30047WAT      O90382   4.914   0.265   3.296
30047WAT     H190383   4.899   0.354   3.338
30047WAT     H290384   4.976   0.211   3.354
30048WAT      O90385   7.546   1.564   9.889
30048WAT     H190386   7.504   1.493   9.833
30048WAT     H290387   7.643   1.570   9.869
30049WAT      O90388   0.421   2.762   4.501
30049WAT     H190389   0.458   2.698   4.568
30049WAT     H290390   0.357   2.714   4.441
30050WAT      O90391   7.656   3.215   7.833
30050WAT     H190392   7.566   3.192   7.870
30050WAT     H290393   7.647   3.284   7.762
30051WAT      O90394   4.468   5.664   2.644
30051WAT     H190395   4.440   5.733   2.710
30051WAT     H290396   4.395   5.596   2.633
30052WAT      O90397   8.680   5.390   9.511
30052WAT     H190398   8.731   5.321   9.460
30052WAT     H290399   8.591   5.352   9.538
30053WAT      O90400   8.852   3.915   5.152
30053WAT     H190401   8.789   3.894   5.078
30053WAT     H290402   8.825   4.001   5.196
30054WAT      O90403   0.192   1.436   8.353
30054WAT     H190404   0.147   1.421   8.441
30054WAT     H290405   0.131   1.406   8.280
30055WAT      O90406   3.245   3.608   0.623
30055WAT     H190407   3.281   3.579   0.534
30055WAT     H290408   3.278   3.546   0.694
30056WAT      O90409   4.098   7.254   8.044
30056WAT     H190410   4.154   7.202   7.979
30056WAT     H290411   4.120   7.351   8.037
30057WAT      O90412   3.277   2.736   6.097
30057WAT     H190413   3.315   2.828   6.090
30057WAT     H290414   3.276   2.694   6.006
30058WAT      O90415   8.961   5.759   2.510
30058WAT     H190416   9.039   5.795   2.561
30058WAT     H290417   8.887   5.826   2.510
30059WAT      O90418   5.076   3.692   1.602
30059WAT     H190419   5.172   3.668   1.586
30059WAT     H290420   5.017   3.620   1.565
30060WAT      O90421   2.703   9.378   8.692
30060WAT     H190422   2.773   9.436   8.734
30060WAT     H290423   2.742   9.288   8.671
30061WAT      O90424   7.602   5.780   4.751
30061WAT     H190425   7.643   5.690   4.767
30061WAT     H290426   7.660   5.832   4.688
30062WAT      O90427   8.629   9.808   6.847
30062WAT     H190428   8.568   9.872   6.895
30062WAT     H290429   8.704   9.783   6.908
30063WAT      O90430   8.767   4.466   6.250
30063WAT     H190431   8.793   4.543   6.307
30063WAT     H290432   8.669   4.447   6.262
30064WAT      O90433   2.025   5.982   0.009
30064WAT     H190434   2.067   6.026  -0.071
30064WAT     H290435   1.926   5.975  -0.005
30065WAT      O90436   6.022   5.168   3.535
30065WAT     H190437   6.107   5.149   3.486
30065WAT     H290438   6.039   5.234   3.608
30066WAT      O90439   3.932   4.488   6.687
30066WAT     H190440   3.840   4.524   6.676
30066WAT     H290441   3.965   4.508   6.780
30067WAT      O90442   5.639   9.148   0.801
30067WAT     H190443   5.595   9.070   0.844
30067WAT     H290444   5.675   9.210   0.871
30068WAT      O90445   1.440   1.365   0.146
30068WAT     H190446   1.379   1.433   0.106
30068WAT     H290447   1.534   1.399   0.142
30069WAT      O90448   9.278   4.711   6.120
30069WAT     H190449   9.342   4.635   6.110
30069WAT     H290450   9.263   4.754   6.031
30070WAT      O90451   3.257   9.120   9.574
30070WAT     H190452   3.242   9.022   9.561
30070WAT     H290453   3.302   9.135   9.662
30071WAT      O90454   7.309   5.040   7.855
30071WAT     H190455   7.338   5.030   7.950
30071WAT     H290456   7.209   5.052   7.852
30072WAT      O90457   6.551   7.325   5.299
30072WAT     H190458   6.539   7.296   5.204
30072WAT     H290459   6.602   7.411   5.301
30073WAT      O90460   8.079   2.187   3.292
30073WAT     H190461   8.065   2.267   3.234
30073WAT     H290462   7.992   2.160   3.334
30074WAT      O90463   4.799   9.757   2.476
30074WAT     H190464   4.725   9.814   2.510
30074WAT     H290465   4.863   9.813   2.423
30075WAT      O90466   7.550   5.507   1.252
30075WAT     H190467   7.514   5.429   1.304
30075WAT     H290468   7.536   5.591   1.304
30076WAT      O90469   6.612   9.107   3.159
30076WAT     H190470   6.568   9.048   3.091
30076WAT     H290471   6.698   9.066   3.189
30077WAT      O90472   0.536   8.421   7.793
30077WAT     H190473   0.627   8.420   7.752
30077WAT     H290474   0.514   8.330   7.827
30078WAT      O90475   7.205   4.230   6.551
30078WAT     H190476   7.133   4.292   6.582
30078WAT     H290477   7.208   4.229   6.452
30079WAT      O90478   6.613   1.110   5.156
30079WAT     H190479   6.680   1.133   5.226
30079WAT     H290480   6.527   1.084   5.200
30080WAT      O90481   0.538   4.247   7.053
30080WAT     H190482   0.570   4.309   7.124
30080WAT     H290483   0.439   4.236   7.060
30081WAT      O90484   7.238   5.805   7.053
30081WAT     H190485   7.281   5.877   6.998
30081WAT     H290486   7.273   5.809   7.146
30082WAT      O90487   0.831   8.772   4.354
30082WAT     H190488   0.780   8.813   4.429
30082WAT     H290489   0.928   8.774   4.374
30083WAT      O90490   9.536   3.270   5.954
30083WAT     H190491   9.606   3.327   5.910
30083WAT     H290492   9.512   3.195   5.892
30084WAT      O90493   5.182   2.633   4.077
30084WAT     H190494   5.127   2.584   4.146
30084WAT     H290495   5.279   2.615   4.093
30085WAT      O90496   6.798   4.302   0.210
30085WAT     H190497   6.814   4.387   0.159
30085WAT     H290498   6.883   4.249   0.214
30086WAT      O90499   1.823   2.535   2.149
30086WAT     H190500   1.831   2.475   2.229
30086WAT     H290501   1.891   2.609   2.157
30087WAT      O90502   8.304   2.173   5.971
30087WAT     H190503   8.286   2.243   6.040
30087WAT     H290504   8.217   2.133   5.942
30088WAT      O90505   1.171   5.761   3.948
30088WAT     H190506   1.091   5.786   4.003
30088WAT     H290507   1.208   5.843   3.904
30089WAT      O90508   5.042   3.792   6.160
30089WAT     H190509   5.000   3.872   6.201
30089WAT     H290510   5.107   3.751   6.224
30090WAT      O90511   1.557   2.890   9.109
30090WAT     H190512   1.602   2.906   9.197
30090WAT     H290513   1.611   2.826   9.055
30091WAT      O90514   3.023   1.793   7.456
30091WAT     H190515   3.094   1.802   7.386
30091WAT     H290516   3.059   1.746   7.536
30092WAT      O90517   0.649   7.837   0.618
30092WAT     H190518   0.644   7.935   0.640
30092WAT     H290519   0.685   7.825   0.526
30093WAT      O90520   0.726   8.685   1.968
30093WAT     H190521   0.754   8.756   1.904
30093WAT     H290522   0.666   8.724   2.038
30094WAT      O90523   8.598   0.629   4.282
30094WAT     H190524   8.661   0.570   4.332
30094WAT     H290525   8.567   0.703   4.342
30095WAT      O90526   0.930   1.511   3.961
30095WAT     H190527   0.873   1.592   3.961
30095WAT     H290528   0.884   1.437   3.912
30096WAT      O90529   4.384   6.085   4.950
30096WAT     H190530   4.375   5.991   4.917
30096WAT     H290531   4.369   6.087   5.049
30097WAT      O90532   1.016   7.162   3.385
30097WAT     H190533   0.975   7.110   3.310
30097WAT     H290534   1.115   7.166   3.372
30098WAT      O90535   8.312   7.019   4.176
30098WAT     H190536   8.348   6.925   4.174
30098WAT     H290537   8.228   7.021   4.229
30099WAT      O90538   9.639   7.892   4.424
30099WAT     H190539   9.601   7.974   4.467
30099WAT     H290540   9.572   7.855   4.359
30100WAT      O90541   9.540   6.302   5.466
30100WAT     H190542   9.589   6.217   5.446
30100WAT     H290543   9.606   6.377   5.474
30101WAT      O90544   0.033   7.374   1.837
30101WAT     H190545   0.124   7.407   1.813
30101WAT     H290546  -0.034   7.447   1.824
30102WAT      O90547   6.769   1.527   9.373
30102WAT     H190548   6.821   1.444   9.353
30102WAT     H290549   6.823   1.607   9.347
30103WAT      O90550   4.599   1.015   3.816
30103WAT     H190551   4.623   1.110   3.836
30103WAT     H290552   4.617   0.995   3.720
30104WAT      O90553   9.221   6.576   6.934
30104WAT     H190554   9.294   6.550   6.871
30104WAT     H290555   9.225   6.675   6.951
30105WAT      O90556   5.221   6.797   7.127
30105WAT     H190557   5.277   6.716   7.145
30105WAT     H290558   5.146   6.800   7.193
30106WAT      O90559   2.995   3.264   1.719
30106WAT     H190560   2.954   3.288   1.630
30106WAT     H290561   3.089   3.236   1.705
30107WAT      O90562   0.479   5.294   4.991
30107WAT     H190563   0.552   5.361   5.007
30107WAT     H290564   0.495   5.248   4.904
30108WAT      O90565   8.584   9.825   4.263
30108WAT     H190566   8.669   9.788   4.301
30108WAT     H290567   8.543   9.758   4.201
30109WAT      O90568   2.045   6.933   7.814
30109WAT     H190569   2.140   6.902   7.821
30109WAT     H290570   2.033   7.014   7.872
30110WAT      O90571   2.859   2.791   5.821
30110WAT     H190572   2.836   2.869   5.763
30110WAT     H290573   2.887   2.823   5.911
30111WAT      O90574   6.272   0.305   0.450
30111WAT     H190575   6.290   0.351   0.537
30111WAT     H290576   6.186   0.253   0.457
30112WAT      O90577   5.908   6.165   7.953
30112WAT     H190578   5.920   6.200   7.860
30112WAT     H290579   5.856   6.231   8.007
30113WAT      O90580   5.661   5.557   3.187
30113WAT     H190581   5.698   5.638   3.142
30113WAT     H290582   5.675   5.565   3.286
30114WAT      O90583   3.439   1.719   4.878
30114WAT     H190584   3.385   1.638   4.897
30114WAT     H290585   3.518   1.695   4.822
30115WAT      O90586   9.747   6.068   1.187
30115WAT     H190587   9.847   6.066   1.189
30115WAT     H290588   9.712   6.070   1.281
30116WAT      O90589   5.083   8.268   1.976
30116WAT     H190590   4.987   8.248   1.957
30116WAT     H290591   5.142   8.210   1.920
30117WAT      O90592   8.376   0.557   5.903
30117WAT     H190593   8.459   0.507   5.925
30117WAT     H290594   8.336   0.594   5.987
30118WAT      O90595   1.618   2.448   8.013
30118WAT     H190596   1.570   2.361   8.027
30118WAT     H290597   1.590   2.487   7.925
30119WAT      O90598   7.149   4.232   5.744
30119WAT     H190599   7.061   4.193   5.770
30119WAT     H290600   7.161   4.224   5.645
30120WAT      O90601   4.280   6.788   0.014
30120WAT     H190602   4.377   6.792   0.034
30120WAT     H290603   4.262   6.835  -0.073
30121WAT      O90604   7.581   1.585   9.320
30121WAT     H190605   7.587   1.535   9.407
30121WAT     H290606   7.543   1.675   9.335
30122WAT      O90607   7.179   6.973   9.392
30122WAT     H190608   7.153   6.882   9.424
30122WAT     H290609   7.110   7.006   9.327
30123WAT      O90610   6.674   7.006   1.968
30123WAT     H190611   6.771   6.993   1.986
30123WAT     H290612   6.621   6.937   2.017
30124WAT      O90613   7.180   6.219   1.106
30124WAT     H190614   7.149   6.125   1.090
30124WAT     H290615   7.156   6.275   1.027
30125WAT      O90616   2.495   3.301   2.104
30125WAT     H190617   2.398   3.294   2.127
30125WAT     H290618   2.550   3.282   2.186
30126WAT      O90619   0.246   0.717   6.724
30126WAT     H190620   0.334   0.733   6.767
30126WAT     H290621   0.174   0.760   6.779
30127WAT      O90622   5.588   5.144   4.289
30127WAT     H190623   5.579   5.066   4.227
30127WAT     H290624   5.555   5.118   4.380
30128WAT      O90625   4.718   2.705   2.861
30128WAT     H190626   4.808   2.668   2.838
30128WAT     H290627   4.728   2.776   2.930
30129WAT      O90628   9.562   3.594   2.648
30129WAT     H190629   9.610   3.643   2.575
30129WAT     H290630   9.598   3.501   2.654
30130WAT      O90631   9.460   1.686   9.358
30130WAT     H190632   9.387   1.623   9.382
30130WAT     H290633   9.422   1.778   9.344
30131WAT      O90634   5.681   4.890   9.384
30131WAT     H190635   5.713   4.974   9.428
30131WAT     H290636   5.704   4.812   9.442
30132WAT      O90637   7.274   2.447   3.909
30132WAT     H190638   7.349   2.382   3.909
30132WAT     H290639   7.283   2.509   3.830
30133WAT      O90640   3.038   2.229   2.223
30133WAT     H190641   3.124   2.180   2.211
30133WAT     H290642   3.002   2.211   2.314
30134WAT      O90643   3.864   1.101   0.106
30134WAT     H190644   3.851   1.046   0.024
30134WAT     H290645   3.962   1.114   0.123
30135WAT      O90646   1.961   4.927   0.531
30135WAT     H190647   2.033   4.888   0.589
30135WAT     H290648   1.916   4.853   0.481
30136WAT      O90649   3.919   9.188   5.197
30136WAT     H190650   3.864   9.168   5.115
30136WAT     H290651   3.931   9.287   5.206
30137WAT      O90652   7.260   2.645   5.400
30137WAT     H190653   7.178   2.631   5.455
30137WAT     H290654   7.315   2.562   5.399
30138WAT      O90655   6.911   8.388   3.464
30138WAT     H190656   6.871   8.344   3.544
30138WAT     H290657   6.981   8.453   3.494
30139WAT      O90658   0.917   5.294   0.349
30139WAT     H190659   0.966   5.226   0.404
30139WAT     H290660   0.979   5.370   0.328
30140WAT      O90661   1.232   2.865   3.630
30140WAT     H190662   1.212   2.768   3.619
30140WAT     H290663   1.201   2.896   3.720
30141WAT      O90664   4.867   3.181   9.575
30141WAT     H190665   4.962   3.188   9.545
30141WAT     H290666   4.816   3.261   9.542
30142WAT      O90667   1.657   1.228   8.957
30142WAT     H190668   1.570   1.191   8.925
30142WAT     H290669   1.643   1.277   9.043
30143WAT      O90670   5.434   7.604   9.440
30143WAT     H190671   5.348   7.646   9.468
30143WAT     H290672   5.498   7.675   9.413
30144WAT      O90673   8.219   8.245   3.390
30144WAT     H190674   8.305   8.206   3.424
30144WAT     H290675   8.226   8.345   3.388
30145WAT      O90676   5.070   4.107   1.346
30145WAT     H190677   5.099   4.100   1.441
30145WAT     H290678   5.025   4.195   1.331
30146WAT      O90679   7.654   2.621   0.739
30146WAT     H190680   7.635   2.628   0.641
30146WAT     H290681   7.741   2.574   0.753
30147WAT      O90682   5.852   7.670   1.572
30147WAT     H190683   5.847   7.587   1.517
30147WAT     H290684   5.945   7.685   1.603
30148WAT      O90685   9.277   5.087   5.280
30148WAT     H190686   9.364   5.092   5.230
30148WAT     H290687   9.245   4.992   5.283
30149WAT      O90688   4.811   1.670   5.045
30149WAT     H190689   4.908   1.689   5.034
30149WAT     H290690   4.769   1.652   4.956
30150WAT      O90691   0.354   1.998   1.193
30150WAT     H190692   0.298   1.925   1.153
30150WAT     H290693   0.448   1.990   1.159
30151WAT      O90694   6.095   7.636   3.188
30151WAT     H190695   6.096   7.673   3.095
30151WAT     H290696   6.187   7.642   3.227
30152WAT      O90697   8.306   1.751   6.148
30152WAT     H190698   8.383   1.778   6.207
30152WAT     H290699   8.316   1.794   6.059
30153WAT      O90700   3.481   8.593   1.014
30153WAT     H190701   3.558   8.645   1.049
30153WAT     H290702   3.427   8.650   0.952
30154WAT      O90703   0.870   5.555   7.408
30154WAT     H190704   0.880   5.504   7.323
30154WAT     H290705   0.780   5.597   7.412
30155WAT      O90706   0.011   1.203   8.880
30155WAT     H190707   0.063   1.178   8.962
30155WAT     H290708  -0.064   1.264   8.906
30156WAT      O90709   2.369   8.182   2.999
30156WAT     H190710   2.362   8.220   2.907
30156WAT     H290711   2.286   8.130   3.020
30157WAT      O90712   9.753   3.109   2.381
30157WAT     H190713   9.819   3.141   2.450
30157WAT     H290714   9.786   3.024   2.341
30158WAT      O90715   3.134   1.626   0.880
30158WAT     H190716   3.159   1.570   0.959
30158WAT     H290717   3.071   1.698   0.908
30159WAT      O90718   0.436   1.077   9.160
30159WAT     H190719   0.495   1.157   9.149
30159WAT     H290720   0.465   1.025   9.240
30160WAT      O90721   8.856   2.202   5.735
30160WAT     H190722   8.822   2.109   5.721
30160WAT     H290723   8.936   2.217   5.676
30161WAT      O90724   8.743   4.571   8.384
30161WAT     H190725   8.676   4.519   8.436
30161WAT     H290726   8.835   4.544   8.412
30162WAT      O90727   8.945   4.063   8.578
30162WAT     H190728   8.933   3.965   8.563
30162WAT     H290729   9.000   4.102   8.504
30163WAT      O90730   1.690   5.112   1.750
30163WAT     H190731   1.634   5.170   1.691
30163WAT     H290732   1.676   5.016   1.725
30164WAT      O90733   9.805   4.818   0.866
30164WAT     H190734   9.802   4.916   0.884
30164WAT     H290735   9.836   4.802   0.772
30165WAT      O90736   8.096   3.529   4.491
30165WAT     H190737   8.181   3.480   4.508
30165WAT     H290738   8.055   3.496   4.406
30166WAT      O90739   3.442   1.600   0.898
30166WAT     H190740   3.352   1.628   0.864
30166WAT     H290741   3.488   1.545   0.828
30167WAT      O90742   8.644   5.580   3.367
30167WAT     H190743   8.718   5.516   3.390
30167WAT     H290744   8.575   5.578   3.439
30168WAT      O90745   8.337   9.055   7.783
30168WAT     H190746   8.261   9.094   7.731
30168WAT     H290747   8.364   8.968   7.742
30169WAT      O90748   4.767   2.126   1.155
30169WAT     H190749   4.739   2.030   1.144
30169WAT     H290750   4.708   2.170   1.223
30170WAT      O90751   5.784   6.402   2.177
30170WAT     H190752   5.744   6.393   2.269
30170WAT     H290753   5.766   6.494   2.143
30171WAT      O90754   2.222   5.999   3.861
30171WAT     H190755   2.213   6.022   3.764
30171WAT     H290756   2.146   5.940   3.888
30172WAT      O90757   8.399   5.001   3.811
30172WAT     H190758   8.319   4.954   3.773
30172WAT     H290759   8.443   4.943   3.879
30173WAT      O90760   8.296   5.080   2.942
30173WAT     H190761   8.348   4.995   2.943
30173WAT     H290762   8.235   5.081   2.863
30174WAT      O90763   5.491   8.695   9.026
30174WAT     H190764   5.488   8.792   9.047
30174WAT     H290765   5.480   8.642   9.110
30175WAT      O90766   6.597   5.220   8.298
30175WAT     H190767   6.529   5.292   8.286
30175WAT     H290768   6.596   5.159   8.218
30176WAT      O90769   7.775   4.217   0.395
30176WAT     H190770   7.740   4.292   0.338
30176WAT     H290771   7.872   4.203   0.375
30177WAT      O90772   2.329   3.819   0.531
30177WAT     H190773   2.342   3.757   0.609
30177WAT     H290774   2.364   3.776   0.448
30178WAT      O90775   3.927   8.775   1.928
30178WAT     H190776   3.834   8.810   1.915
30178WAT     H290777   3.955   8.724   1.847
30179WAT      O90778   9.233   4.605   4.573
30179WAT     H190779   9.148   4.570   4.533
30179WAT     H290780   9.236   4.581   4.669
30180WAT      O90781   0.029   7.023   4.259
30180WAT     H190782   0.076   6.956   4.202
30180WAT     H290783   0.080   7.109   4.258
30181WAT      O90784   3.838   1.910   7.070
30181WAT     H190785   3.858   2.007   7.067
30181WAT     H290786   3.919   1.858   7.042
30182WAT      O90787   8.406   4.758   3.367
30182WAT     H190788   8.477   4.709   3.317
30182WAT     H290789   8.379   4.840   3.316
30183WAT      O90790   6.796   8.940   9.852
30183WAT     H190791   6.846   8.877   9.913
30183WAT     H290792   6.701   8.910   9.845
30184WAT      O90793   5.736   6.787   3.211
30184WAT     H190794   5.637   6.797   3.200
30184WAT     H290795   5.783   6.847   3.147
30185WAT      O90796   0.736   9.733   9.120
30185WAT     H190797   0.815   9.687   9.162
30185WAT     H290798   0.687   9.668   9.062
30186WAT      O90799   4.254   3.529   8.734
30186WAT     H190800   4.248   3.627   8.715
30186WAT     H290801   4.336   3.491   8.691
30187WAT      O90802   0.684   1.703   6.787
30187WAT     H190803   0.666   1.667   6.879
30187WAT     H290804   0.690   1.627   6.722
30188WAT      O90805   2.794   7.643   0.477
30188WAT     H190806   2.806   7.740   0.457
30188WAT     H290807   2.848   7.618   0.557
30189WAT      O90808   3.134   9.619   4.504
30189WAT     H190809   3.213   9.561   4.523
30189WAT     H290810   3.129   9.638   4.406
30190WAT      O90811   1.658   0.353   1.184
30190WAT     H190812   1.592   0.428   1.181
30190WAT     H290813   1.637   0.287   1.112
30191WAT      O90814   6.306   2.758   7.700
30191WAT     H190815   6.292   2.749   7.798
30191WAT     H290816   6.326   2.669   7.660
30192WAT      O90817   0.524   7.076   3.642
30192WAT     H190818   0.516   7.023   3.726
30192WAT     H290819   0.443   7.133   3.630
30193WAT      O90820   2.165   4.778   6.151
30193WAT     H190821   2.201   4.685   6.154
30193WAT     H290822   2.070   4.776   6.120
30194WAT      O90823   2.072   5.260   4.683
30194WAT     H190824   2.055   5.269   4.781
30194WAT     H290825   1.991   5.288   4.632
30195WAT      O90826   0.188   6.422   4.649
30195WAT     H190827   0.211   6.399   4.743
30195WAT     H290828   0.193   6.340   4.592
30196WAT      O90829   0.928   5.721   2.074
30196WAT     H190830   0.867   5.744   1.998
30196WAT     H290831   0.998   5.657   2.043
30197WAT      O90832   3.897   2.457   3.355
30197WAT     H190833   3.857   2.546   3.333
30197WAT     H290834   3.843   2.414   3.427
30198WAT      O90835   5.854   0.065   4.300
30198WAT     H190836   5.908   0.149   4.301
30198WAT     H290837   5.803   0.060   4.214
30199WAT      O90838   7.091   4.203   4.125
30199WAT     H190839   7.042   4.272   4.177
30199WAT     H290840   7.161   4.246   4.068
30200WAT      O90841   6.196   3.437   1.406
30200WAT     H190842   6.098   3.452   1.396
30200WAT     H290843   6.225   3.364   1.344
30201WAT      O90844   4.427   7.272   3.654
30201WAT     H190845   4.523   7.294   3.673
30201WAT     H290846   4.419   7.241   3.560
30202WAT      O90847   2.371   5.520   0.382
30202WAT     H190848   2.319   5.583   0.439
30202WAT     H290849   2.316   5.491   0.304
30203WAT      O90850   5.283   2.039   3.029
30203WAT     H190851   5.262   2.124   2.980
30203WAT     H290852   5.221   1.967   3.000
30204WAT      O90853   8.770   5.134   6.203
30204WAT     H190854   8.839   5.117   6.133
30204WAT     H290855   8.689   5.175   6.160
30205WAT      O90856   5.863   9.314   6.300
30205WAT     H190857   5.768   9.301   6.327
30205WAT     H290858   5.923   9.287   6.376
30206WAT      O90859   8.765   9.558   7.963
30206WAT     H190860   8.821   9.611   8.026
30206WAT     H290861   8.699   9.503   8.015
30207WAT      O90862   9.389   9.719   0.113
30207WAT     H190863   9.308   9.674   0.151
30207WAT     H290864   9.471   9.666   0.135
30208WAT      O90865   0.499   8.643   0.073
30208WAT     H190866   0.458   8.725   0.112
30208WAT     H290867   0.435   8.566   0.083
30209WAT      O90868   1.463   4.660   4.905
30209WAT     H190869   1.438   4.565   4.884
30209WAT     H290870   1.562   4.666   4.916
30210WAT      O90871   7.911   7.903   8.374
30210WAT     H190872   8.011   7.899   8.387
30210WAT     H290873   7.882   7.998   8.377
30211WAT      O90874   6.385   1.216   2.196
30211WAT     H190875   6.472   1.236   2.240
30211WAT     H290876   6.402   1.165   2.111
30212WAT      O90877   8.393   4.480   4.000
30212WAT     H190878   8.317   4.511   3.943
30212WAT     H290879   8.473   4.537   3.984
30213WAT      O90880   7.489   2.179   2.294
30213WAT     H190881   7.420   2.143   2.358
30213WAT     H290882   7.450   2.183   2.202
30214WAT      O90883   6.595   5.633   4.928
30214WAT     H190884   6.573   5.724   4.892
30214WAT     H290885   6.521   5.602   4.987
30215WAT      O90886   3.998   3.391   3.605
30215WAT     H190887   3.952   3.321   3.660
30215WAT     H290888   3.955   3.479   3.620
30216WAT      O90889   8.432   9.033   8.934
30216WAT     H190890   8.464   9.081   9.015
30216WAT     H290891   8.399   8.942   8.960
30217WAT      O90892   6.120   4.346   9.443
30217WAT     H190893   6.081   4.385   9.526
30217WAT     H290894   6.124   4.417   9.372
30218WAT      O90895   3.758   3.820   8.486
30218WAT     H190896   3.663   3.796   8.503
30218WAT     H290897   3.815   3.784   8.560
30219WAT      O90898   3.445   0.301   0.843
30219WAT     H190899   3.353   0.297   0.882
30219WAT     H290900   3.513   0.297   0.916
30220WAT      O90901   4.851   6.634   6.751
30220WAT     H190902   4.934   6.688   6.734
30220WAT     H290903   4.846   6.612   6.849
30221WAT      O90904   1.640   7.963   7.542
30221WAT     H190905   1.584   7.881   7.536
30221WAT     H290906   1.717   7.947   7.604
30222WAT      O90907   6.222   1.790   4.053
30222WAT     H190908   6.144   1.752   4.004
30222WAT     H290909   6.297   1.807   3.989
30223WAT      O90910   9.429   0.846   7.280
30223WAT     H190911   9.393   0.863   7.188
30223WAT     H290912   9.524   0.877   7.285
30224WAT      O90913   4.305   4.639   3.555
30224WAT     H190914   4.335   4.734   3.547
30224WAT     H290915   4.381   4.583   3.588
30225WAT      O90916   1.457   0.726   4.573
30225WAT     H190917   1.406   0.741   4.489
30225WAT     H290918   1.499   0.635   4.571
30226WAT      O90919   1.954   2.167   0.147
30226WAT     H190920   2.025   2.142   0.213
30226WAT     H290921   1.878   2.211   0.194
30227WAT      O90922   8.457   9.533   3.810
30227WAT     H190923   8.447   9.481   3.725
30227WAT     H290924   8.375   9.521   3.866
30228WAT      O90925   7.924   0.535   8.595
30228WAT     H190926   7.848   0.597   8.611
30228WAT     H290927   7.974   0.563   8.513
30229WAT      O90928   6.691   3.726   4.435
30229WAT     H190929   6.605   3.678   4.421
30229WAT     H290930   6.732   3.748   4.347
30230WAT      O90931   7.492   3.547   8.393
30230WAT     H190932   7.548   3.521   8.472
30230WAT     H290933   7.395   3.531   8.414
30231WAT      O90934   6.702   4.529   5.000
30231WAT     H190935   6.733   4.440   5.034
30231WAT     H290936   6.689   4.525   4.901
30232WAT      O90937   2.756   3.882   5.909
30232WAT     H190938   2.793   3.789   5.908
30232WAT     H290939   2.817   3.942   5.857
30233WAT      O90940   9.153   7.453   5.295
30233WAT     H190941   9.073   7.399   5.267
30233WAT     H290942   9.234   7.417   5.249
30234WAT      O90943   2.310   7.795   5.160
30234WAT     H190944   2.321   7.696   5.169
30234WAT     H290945   2.284   7.834   5.248
30235WAT      O90946   8.115   9.780   4.430
30235WAT     H190947   8.164   9.747   4.350
30235WAT     H290948   8.107   9.707   4.497
30236WAT      O90949   6.156   8.090   4.715
30236WAT     H190950   6.227   8.031   4.676
30236WAT     H290951   6.187   8.125   4.803
30237WAT      O90952   7.842   5.945   9.455
30237WAT     H190953   7.761   5.967   9.400
30237WAT     H290954   7.814   5.922   9.548
30238WAT      O90955   8.932   1.248   7.904
30238WAT     H190956   8.905   1.243   8.000
30238WAT     H290957   8.916   1.340   7.870
30239WAT      O90958   6.429   5.330   1.918
30239WAT     H190959   6.412   5.334   1.820
30239WAT     H290960   6.495   5.257   1.938
30240WAT      O90961   2.726   2.354   8.581
30240WAT     H190962   2.751   2.368   8.677
30240WAT     H290963   2.743   2.438   8.530
30241WAT      O90964   0.022   8.262   8.902
30241WAT     H190965   0.006   8.164   8.903
30241WAT     H290966   0.050   8.293   8.993
30242WAT      O90967   4.223   8.594   4.444
30242WAT     H190968   4.132   8.635   4.438
30242WAT     H290969   4.278   8.625   4.366
30243WAT      O90970   1.538   9.270   8.875
30243WAT     H190971   1.601   9.334   8.831
30243WAT     H290972   1.536   9.287   8.973
30244WAT      O90973   7.806   0.202   5.382
30244WAT     H190974   7.731   0.261   5.413
30244WAT     H290975   7.772   0.143   5.308
30245WAT      O90976   4.295   9.770   6.608
30245WAT     H190977   4.338   9.704   6.547
30245WAT     H290978   4.365   9.825   6.653
30246WAT      O90979   7.004   0.530   3.644
30246WAT     H190980   7.003   0.579   3.731
30246WAT     H290981   7.082   0.559   3.590
30247WAT      O90982   6.311   5.895   2.571
30247WAT     H190983   6.318   5.903   2.472
30247WAT     H290984   6.241   5.959   2.604
30248WAT      O90985   2.116   7.492   0.773
30248WAT     H190986   2.060   7.437   0.710
30248WAT     H290987   2.065   7.574   0.800
30249WAT      O90988   1.818   6.595   8.510
30249WAT     H190989   1.720   6.611   8.508
30249WAT     H290990   1.866   6.681   8.525
30250WAT      O90991   9.716   0.154   7.599
30250WAT     H190992   9.741   0.224   7.666
30250WAT     H290993   9.706   0.196   7.509
30251WAT      O90994   5.421   3.584   2.597
30251WAT     H190995   5.515   3.588   2.563
30251WAT     H290996   5.422   3.592   2.697
30252WAT      O90997   5.336   0.306   2.137
30252WAT     H190998   5.270   0.239   2.104
30252WAT     H290999   5.375   0.275   2.223
30253WAT      O91000   6.530   6.420   3.780
30253WAT     H191001   6.615   6.369   3.768
30253WAT     H291002   6.534   6.504   3.726
30254WAT      O91003   6.840   8.168   5.629
30254WAT     H191004   6.881   8.188   5.539
30254WAT     H291005   6.824   8.070   5.637
30255WAT      O91006   7.784   2.819   9.399
30255WAT     H191007   7.773   2.721   9.384
30255WAT     H291008   7.837   2.835   9.482
30256WAT      O91009   3.529   2.835   5.892
30256WAT     H191010   3.459   2.807   5.826
30256WAT     H291011   3.577   2.916   5.858
30257WAT      O91012   8.214   1.192   9.071
30257WAT     H191013   8.275   1.129   9.118
30257WAT     H291014   8.266   1.251   9.010
30258WAT      O91015   0.492   5.030   7.383
30258WAT     H191016   0.400   4.993   7.367
30258WAT     H291017   0.527   4.994   7.469
30259WAT      O91018   7.851   1.113   5.285
30259WAT     H191019   7.895   1.152   5.366
30259WAT     H291020   7.921   1.087   5.219
30260WAT      O91021   0.061   1.778   4.067
30260WAT     H191022   0.090   1.793   4.162
30260WAT     H291023   0.137   1.740   4.015
30261WAT      O91024   2.633   5.413   6.826
30261WAT     H191025   2.539   5.396   6.796
30261WAT     H291026   2.632   5.446   6.921
30262WAT      O91027   3.660   0.386   6.445
30262WAT     H191028   3.710   0.472   6.443
30262WAT     H291029   3.678   0.335   6.361
30263WAT      O91030   1.361   4.434   4.184
30263WAT     H191031   1.348   4.354   4.243
30263WAT     H291032   1.319   4.416   4.095
30264WAT      O91033   0.119   1.362   1.076
30264WAT     H191034   0.104   1.303   0.997
30264WAT     H291035   0.202   1.417   1.061
30265WAT      O91036   1.520   9.419   8.515
30265WAT     H191037   1.617   9.425   8.542
30265WAT     H291038   1.495   9.501   8.463
30266WAT      O91039   4.584   2.821   9.861
30266WAT     H191040   4.535   2.891   9.809
30266WAT     H291041   4.518   2.756   9.900
30267WAT      O91042   7.946   3.220   9.487
30267WAT     H191043   8.037   3.262   9.492
30267WAT     H291044   7.937   3.171   9.400
30268WAT      O91045   1.871   6.088   9.510
30268WAT     H191046   1.840   6.045   9.595
30268WAT     H291047   1.959   6.047   9.484
30269WAT      O91048   5.863   7.543   3.703
30269WAT     H191049   5.890   7.491   3.621
30269WAT     H291050   5.784   7.499   3.746
30270WAT      O91051   1.809   2.454   0.914
30270WAT     H191052   1.842   2.369   0.956
30270WAT     H291053   1.882   2.493   0.858
30271WAT      O91054   0.200   8.727   7.869
30271WAT     H191055   0.108   8.689   7.860
30271WAT     H291056   0.195   8.826   7.880
30272WAT      O91057   7.536   3.280   9.600
30272WAT     H191058   7.597   3.313   9.529
30272WAT     H291059   7.477   3.354   9.631
30273WAT      O91060   6.955   8.209   4.641
30273WAT     H191061   6.926   8.236   4.549
30273WAT     H291062   6.990   8.289   4.690
30274WAT      O91063   5.024   6.601   5.542
30274WAT     H191064   5.064   6.543   5.613
30274WAT     H291065   5.097   6.645   5.490
30275WAT      O91066   0.731   0.637   0.329
30275WAT     H191067   0.675   0.719   0.336
30275WAT     H291068   0.682   0.567   0.277
30276WAT      O91069   3.242   7.710   9.347
30276WAT     H191070   3.250   7.738   9.252
30276WAT     H291071   3.212   7.615   9.351
30277WAT      O91072   0.395   7.263   6.601
30277WAT     H191073   0.357   7.241   6.510
30277WAT     H291074   0.386   7.361   6.617
30278WAT      O91075   4.028   8.719   4.747
30278WAT     H191076   3.980   8.667   4.677
30278WAT     H291077   4.082   8.791   4.703
30279WAT      O91078   6.745   3.584   2.624
30279WAT     H191079   6.653   3.622   2.615
30279WAT     H291080   6.751   3.500   2.570
30280WAT      O91081   8.493   6.778   2.953
30280WAT     H191082   8.424   6.731   2.898
30280WAT     H291083   8.545   6.710   3.005
30281WAT      O91084   6.565   2.118   8.968
30281WAT     H191085   6.483   2.061   8.969
30281WAT     H291086   6.563   2.179   8.889
30282WAT      O91087   3.566   5.244   4.384
30282WAT     H191088   3.555   5.155   4.428
30282WAT     H291089   3.482   5.268   4.335
30283WAT      O91090   6.531   1.596   9.579
30283WAT     H191091   6.566   1.564   9.491
30283WAT     H291092   6.594   1.662   9.618
30284WAT      O91093   7.556   5.473   4.300
30284WAT     H191094   7.621   5.542   4.268
30284WAT     H291095   7.593   5.382   4.280
30285WAT      O91096   2.870   7.240   9.515
30285WAT     H191097   2.882   7.169   9.585
30285WAT     H291098   2.845   7.326   9.559
30286WAT      O91099   6.006   2.792   6.534
30286WAT     H191100   5.963   2.738   6.462
30286WAT     H291101   6.001   2.889   6.512
30287WAT      O91102   8.868   3.778   8.801
30287WAT     H191103   8.870   3.796   8.703
30287WAT     H291104   8.783   3.730   8.824
30288WAT      O91105   4.549   0.330   4.030
30288WAT     H191106   4.483   0.315   3.956
30288WAT     H291107   4.639   0.298   4.001
30289WAT      O91108   3.905   5.944   0.554
30289WAT     H191109   3.917   6.037   0.589
30289WAT     H291110   3.821   5.939   0.500
30290WAT      O91111   4.059   2.533   8.738
30290WAT     H191112   4.139   2.474   8.726
30290WAT     H291113   4.084   2.627   8.714
30291WAT      O91114   5.481   3.423   4.784
30291WAT     H191115   5.464   3.358   4.710
30291WAT     H291116   5.553   3.387   4.843
30292WAT      O91117   0.386   4.142   8.863
30292WAT     H191118   0.297   4.180   8.886
30292WAT     H291119   0.375   4.049   8.826
30293WAT      O91120   8.590   0.893   9.878
30293WAT     H191121   8.679   0.856   9.850
30293WAT     H291122   8.604   0.965   9.946
30294WAT      O91123   5.722   1.561   0.228
30294WAT     H191124   5.722   1.519   0.138
30294WAT     H291125   5.628   1.576   0.258
30295WAT      O91126   4.004   9.331   7.325
30295WAT     H191127   3.904   9.333   7.314
30295WAT     H291128   4.042   9.254   7.273
30296WAT      O91129   3.782   2.012   9.341
30296WAT     H191130   3.756   1.922   9.305
30296WAT     H291131   3.789   2.076   9.265
30297WAT      O91132   2.604   5.095   2.266
30297WAT     H191133   2.675   5.046   2.317
30297WAT     H291134   2.640   5.122   2.176
30298WAT      O91135   8.672   7.190   0.902
30298WAT     H191136   8.764   7.229   0.895
30298WAT     H291137   8.677   7.091   0.886
30299WAT      O91138   2.275   3.688   2.923
30299WAT     H191139   2.349   3.719   2.982
30299WAT     H291140   2.293   3.593   2.894
30300WAT      O91141   5.247   7.563   5.963
30300WAT     H191142   5.147   7.564   5.963
30300WAT     H291143   5.280   7.577   6.056
30301WAT      O91144   6.516   9.328   7.645
30301WAT     H191145   6.500   9.236   7.608
30301WAT     H291146   6.598   9.328   7.701
30302WAT      O91147   3.807   4.553   5.007
30302WAT     H191148   3.872   4.628   4.999
30302WAT     H291149   3.851   4.474   5.051
30303WAT      O91150   4.999   2.848   4.056
30303WAT     H191151   5.058   2.767   4.048
30303WAT     H291152   5.056   2.929   4.069
30304WAT      O91153   7.668   2.925   0.117
30304WAT     H191154   7.615   2.846   0.147
30304WAT     H291155   7.676   2.990   0.192
30305WAT      O91156   6.251   4.456   3.465
30305WAT     H191157   6.246   4.512   3.547
30305WAT     H291158   6.277   4.363   3.489
30306WAT      O91159   5.679   6.341   7.860
30306WAT     H191160   5.735   6.293   7.792
30306WAT     H291161   5.671   6.437   7.834
30307WAT      O91162   2.019   4.085   9.647
30307WAT     H191163   1.970   4.003   9.618
30307WAT     H291164   1.983   4.116   9.735
30308WAT      O91165   1.652   2.882   5.061
30308WAT     H191166   1.628   2.853   4.969
30308WAT     H291167   1.735   2.834   5.091
30309WAT      O91168   4.259   1.150   3.953
30309WAT     H191169   4.229   1.206   4.030
30309WAT     H291170   4.328   1.085   3.984
30310WAT      O91171   4.743   9.589   8.009
30310WAT     H191172   4.786   9.671   8.048
30310WAT     H291173   4.681   9.616   7.936
30311WAT      O91174   9.405   3.489   2.992
30311WAT     H191175   9.367   3.501   2.900
30311WAT     H291176   9.350   3.540   3.058
30312WAT      O91177   1.277   5.656   6.926
30312WAT     H191178   1.237   5.570   6.958
30312WAT     H291179   1.228   5.687   6.844
30313WAT      O91180   7.673   8.954   5.265
30313WAT     H191181   7.709   9.018   5.197
30313WAT     H291182   7.662   8.864   5.224
30314WAT      O91183   3.278   5.833   5.123
30314WAT     H191184   3.308   5.817   5.217
30314WAT     H291185   3.318   5.763   5.063
30315WAT      O91186   9.787   0.461   7.136
30315WAT     H191187   9.867   0.502   7.092
30315WAT     H291188   9.750   0.525   7.204
30316WAT      O91189   6.451   5.988   0.015
30316WAT     H191190   6.502   5.911   0.053
30316WAT     H291191   6.459   6.066   0.076
30317WAT      O91192   3.378   4.820   5.506
30317WAT     H191193   3.400   4.780   5.418
30317WAT     H291194   3.291   4.867   5.501
30318WAT      O91195   3.163   7.333   3.954
30318WAT     H191196   3.125   7.294   3.870
30318WAT     H291197   3.136   7.429   3.961
30319WAT      O91198   7.228   5.426   6.312
30319WAT     H191199   7.218   5.505   6.251
30319WAT     H291200   7.150   5.421   6.373
30320WAT      O91201   6.436   2.356   9.315
30320WAT     H191202   6.493   2.352   9.397
30320WAT     H291203   6.369   2.282   9.317
30321WAT      O91204   7.144   8.934   9.475
30321WAT     H191205   7.190   8.898   9.556
30321WAT     H291206   7.045   8.931   9.488
30322WAT      O91207   2.762   7.287   0.684
30322WAT     H191208   2.770   7.239   0.596
30322WAT     H291209   2.813   7.238   0.754
30323WAT      O91210   9.536   2.792   9.701
30323WAT     H191211   9.477   2.731   9.756
30323WAT     H291212   9.598   2.737   9.646
30324WAT      O91213   9.014   2.733   3.715
30324WAT     H191214   8.959   2.784   3.649
30324WAT     H291215   9.023   2.785   3.800
30325WAT      O91216   3.837   0.090   4.863
30325WAT     H191217   3.915   0.101   4.801
30325WAT     H291218   3.829   0.171   4.921
30326WAT      O91219   6.071   7.263   6.573
30326WAT     H191220   5.994   7.327   6.570
30326WAT     H291221   6.038   7.170   6.557
30327WAT      O91222   3.781   0.390   6.914
30327WAT     H191223   3.725   0.454   6.966
30327WAT     H291224   3.796   0.427   6.822
30328WAT      O91225   9.755   2.032   3.341
30328WAT     H191226   9.738   2.109   3.402
30328WAT     H291227   9.779   2.065   3.250
30329WAT      O91228   4.383   5.924   6.330
30329WAT     H191229   4.460   5.972   6.372
30329WAT     H291230   4.321   5.992   6.289
30330WAT      O91231   3.892   5.232   6.603
30330WAT     H191232   3.953   5.312   6.602
30330WAT     H291233   3.934   5.159   6.657
30331WAT      O91234   5.627   3.406   0.755
30331WAT     H191235   5.644   3.428   0.659
30331WAT     H291236   5.602   3.309   0.763
30332WAT      O91237   3.102   1.104   3.407
30332WAT     H191238   3.105   1.184   3.468
30332WAT     H291239   3.185   1.051   3.419
30333WAT      O91240   2.383   2.129   2.077
30333WAT     H191241   2.332   2.043   2.072
30333WAT     H291242   2.392   2.167   1.985
30334WAT      O91243   2.607   5.322   1.211
30334WAT     H191244   2.661   5.281   1.285
30334WAT     H291245   2.515   5.284   1.211
30335WAT      O91246   3.110   0.207   1.632
30335WAT     H191247   3.178   0.212   1.706
30335WAT     H291248   3.038   0.275   1.649
30336WAT      O91249   8.252   2.433   5.324
30336WAT     H191250   8.157   2.449   5.297
30336WAT     H291251   8.255   2.402   5.419
30337WAT      O91252   8.169   1.988   9.456
30337WAT     H191253   8.210   1.922   9.393
30337WAT     H291254   8.091   1.945   9.502
30338WAT      O91255   8.554   9.673   4.041
30338WAT     H191256   8.488   9.640   4.109
30338WAT     H291257   8.518   9.656   3.949
30339WAT      O91258   3.512   7.752   6.762
30339WAT     H191259   3.475   7.823   6.701
30339WAT     H291260   3.564   7.795   6.835
30340WAT      O91261   9.268   0.180   4.503
30340WAT     H191262   9.213   0.102   4.473
30340WAT     H291263   9.332   0.206   4.431
30341WAT      O91264   2.118   9.360   9.646
30341WAT     H191265   2.028   9.317   9.654
30341WAT     H291266   2.132   9.422   9.723
30342WAT      O91267   9.705   7.490   6.281
30342WAT     H191268   9.642   7.495   6.204
30342WAT     H291269   9.654   7.482   6.366
30343WAT      O91270   8.956   4.302   9.845
30343WAT     H191271   8.998   4.232   9.787
30343WAT     H291272   8.936   4.264   9.935
30344WAT      O91273   0.560   7.367   2.738
30344WAT     H191274   0.551   7.463   2.713
30344WAT     H291275   0.473   7.333   2.774
30345WAT      O91276   8.930   4.631   0.384
30345WAT     H191277   8.892   4.720   0.409
30345WAT     H291278   8.969   4.636   0.292
30346WAT      O91279   6.111   1.152   0.012
30346WAT     H191280   6.099   1.096   0.094
30346WAT     H291281   6.202   1.135  -0.027
30347WAT      O91282   5.727   2.217   5.178
30347WAT     H191283   5.631   2.221   5.150
30347WAT     H291284   5.764   2.310   5.181
30348WAT      O91285   0.058   3.472   6.032
30348WAT     H191286   0.109   3.386   6.031
30348WAT     H291287   0.034   3.496   6.126
30349WAT      O91288   3.556   8.379   0.667
30349WAT     H191289   3.594   8.340   0.751
30349WAT     H291290   3.492   8.315   0.626
30350WAT      O91291   9.383   1.786   3.426
30350WAT     H191292   9.391   1.832   3.515
30350WAT     H291293   9.338   1.698   3.438
30351WAT      O91294   6.951   9.614   6.216
30351WAT     H191295   6.902   9.527   6.215
30351WAT     H291296   7.049   9.597   6.217
30352WAT      O91297   2.548   3.231   1.138
30352WAT     H191298   2.472   3.285   1.102
30352WAT     H291299   2.608   3.290   1.192
30353WAT      O91300   8.134   3.612   5.820
30353WAT     H191301   8.118   3.517   5.790
30353WAT     H291302   8.212   3.650   5.769
30354WAT      O91303   8.859   7.676   5.419
30354WAT     H191304   8.793   7.602   5.405
30354WAT     H291305   8.898   7.669   5.511
30355WAT      O91306   3.226   9.473   2.579
30355WAT     H191307   3.284   9.429   2.648
30355WAT     H291308   3.136   9.428   2.578
30356WAT      O91309   4.977   3.534   4.157
30356WAT     H191310   4.910   3.547   4.084
30356WAT     H291311   4.999   3.623   4.199
30357WAT      O91312   9.301   7.231   9.068
30357WAT     H191313   9.399   7.253   9.074
30357WAT     H291314   9.274   7.176   9.147
30358WAT      O91315   6.164   6.547   8.118
30358WAT     H191316   6.095   6.595   8.172
30358WAT     H291317   6.231   6.612   8.085
30359WAT      O91318   5.640   9.649   4.977
30359WAT     H191319   5.696   9.566   4.987
30359WAT     H291320   5.670   9.701   4.897
30360WAT      O91321   2.103   6.324   2.782
30360WAT     H191322   2.182   6.264   2.769
30360WAT     H291323   2.131   6.406   2.831
30361WAT      O91324   4.554   8.317   7.324
30361WAT     H191325   4.561   8.311   7.424
30361WAT     H291326   4.644   8.298   7.284
30362WAT      O91327   1.505   3.896   0.370
30362WAT     H191328   1.573   3.836   0.327
30362WAT     H291329   1.414   3.871   0.338
30363WAT      O91330   4.003   2.231   7.714
30363WAT     H191331   4.102   2.216   7.717
30363WAT     H291332   3.956   2.150   7.750
30364WAT      O91333   5.488   7.306   8.372
30364WAT     H191334   5.543   7.311   8.289
30364WAT     H291335   5.532   7.245   8.437
30365WAT      O91336   8.347   5.390   4.587
30365WAT     H191337   8.261   5.394   4.536
30365WAT     H291338   8.400   5.311   4.557
30366WAT      O91339   2.938   2.038   0.032
30366WAT     H191340   3.000   2.049  -0.045
30366WAT     H291341   2.989   2.047   0.118
30367WAT      O91342   0.785   8.529   9.146
30367WAT     H191343   0.753   8.541   9.052
30367WAT     H291344   0.744   8.446   9.184
30368WAT      O91345   6.941   6.642   7.995
30368WAT     H191346   7.017   6.579   8.015
30368WAT     H291347   6.870   6.631   8.063
30369WAT      O91348   9.608   2.283   5.526
30369WAT     H191349   9.587   2.310   5.432
30369WAT     H291350   9.683   2.217   5.525
30370WAT      O91351   1.172   1.108   5.336
30370WAT     H191352   1.160   1.046   5.414
30370WAT     H291353   1.187   1.054   5.253
30371WAT      O91354   5.353   7.726   5.239
30371WAT     H191355   5.310   7.694   5.155
30371WAT     H291356   5.390   7.649   5.290
30372WAT      O91357   6.996   7.861   3.020
30372WAT     H191358   6.917   7.825   3.069
30372WAT     H291359   7.080   7.830   3.063
30373WAT      O91360   0.682   9.027   5.671
30373WAT     H191361   0.638   8.997   5.587
30373WAT     H291362   0.621   9.010   5.749
30374WAT      O91363   2.353   1.429   9.273
30374WAT     H191364   2.286   1.503   9.279
30374WAT     H291365   2.323   1.352   9.329
30375WAT      O91366   2.987   1.447   3.218
30375WAT     H191367   2.891   1.443   3.245
30375WAT     H291368   2.997   1.415   3.124
30376WAT      O91369   3.523   3.017   2.084
30376WAT     H191370   3.451   3.076   2.121
30376WAT     H291371   3.601   3.074   2.056
30377WAT      O91372   2.856   4.902   2.315
30377WAT     H191373   2.872   4.804   2.327
30377WAT     H291374   2.862   4.948   2.404
30378WAT      O91375   3.723   0.598   1.029
30378WAT     H191376   3.634   0.557   1.047
30378WAT     H291377   3.729   0.627   0.933
30379WAT      O91378   0.609   7.585   4.743
30379WAT     H191379   0.592   7.497   4.699
30379WAT     H291380   0.691   7.578   4.800
30380WAT      O91381   0.483   3.546   0.619
30380WAT     H191382   0.446   3.509   0.534
30380WAT     H291383   0.484   3.474   0.689
30381WAT      O91384   9.684   6.440   6.249
30381WAT     H191385   9.613   6.509   6.236
30381WAT     H291386   9.697   6.390   6.163
30382WAT      O91387   6.718   7.204   8.291
30382WAT     H191388   6.715   7.175   8.387
30382WAT     H291389   6.792   7.270   8.278
30383WAT      O91390   6.864   7.910   0.935
30383WAT     H191391   6.950   7.904   0.984
30383WAT     H291392   6.855   8.001   0.894
30384WAT      O91393   5.208   1.137   2.032
30384WAT     H191394   5.138   1.085   2.081
30384WAT     H291395   5.196   1.125   1.933
30385WAT      O91396   0.577   8.481   7.398
30385WAT     H191397   0.629   8.412   7.448
30385WAT     H291398   0.558   8.559   7.458
30386WAT      O91399   3.821   1.332   0.468
30386WAT     H191400   3.738   1.285   0.438
30386WAT     H291401   3.870   1.368   0.389
30387WAT      O91402   1.317   5.254   2.373
30387WAT     H191403   1.309   5.312   2.454
30387WAT     H291404   1.346   5.162   2.401
30388WAT      O91405   0.244   4.333   3.027
30388WAT     H191406   0.213   4.396   3.098
30388WAT     H291407   0.192   4.350   2.943
30389WAT      O91408   8.842   8.743   1.076
30389WAT     H191409   8.810   8.743   0.981
30389WAT     H291410   8.766   8.725   1.137
30390WAT      O91411   0.054   6.678   8.771
30390WAT     H191412   0.013   6.732   8.844
30390WAT     H291413   0.111   6.737   8.713
30391WAT      O91414   7.581   5.687   3.925
30391WAT     H191415   7.642   5.638   3.863
30391WAT     H291416   7.487   5.658   3.911
30392WAT      O91417   6.563   4.326   0.773
30392WAT     H191418   6.645   4.366   0.732
30392WAT     H291419   6.532   4.250   0.717
30393WAT      O91420   6.263   0.837   7.973
30393WAT     H191421   6.206   0.891   7.912
30393WAT     H291422   6.357   0.872   7.971
30394WAT      O91423   4.160   8.548   9.558
30394WAT     H191424   4.149   8.489   9.478
30394WAT     H291425   4.189   8.639   9.529
30395WAT      O91426   0.876   1.165   1.735
30395WAT     H191427   0.898   1.070   1.713
30395WAT     H291428   0.830   1.169   1.824
30396WAT      O91429   1.936   3.885   5.778
30396WAT     H191430   1.881   3.821   5.831
30396WAT     H291431   1.879   3.962   5.749
30397WAT      O91432   6.197   9.535   9.341
30397WAT     H191433   6.134   9.584   9.401
30397WAT     H291434   6.256   9.476   9.396
30398WAT      O91435   6.092   5.803   5.558
30398WAT     H191436   6.046   5.837   5.475
30398WAT     H291437   6.023   5.773   5.624
30399WAT      O91438   0.826   4.740   5.262
30399WAT     H191439   0.750   4.797   5.234
30399WAT     H291440   0.821   4.724   5.361
30400WAT      O91441   8.298   1.534   3.464
30400WAT     H191442   8.224   1.568   3.522
30400WAT     H291443   8.275   1.551   3.368
30401WAT      O91444   5.370   9.678   8.840
30401WAT     H191445   5.348   9.683   8.742
30401WAT     H291446   5.310   9.611   8.884
30402WAT      O91447   4.850   0.002   0.413
30402WAT     H191448   4.796   0.086   0.424
30402WAT     H291449   4.856  -0.021   0.316
30403WAT      O91450   3.533   0.569   5.585
30403WAT     H191451   3.461   0.628   5.547
30403WAT     H291452   3.609   0.626   5.617
30404WAT      O91453   5.154   4.743   9.575
30404WAT     H191454   5.079   4.681   9.553
30404WAT     H291455   5.154   4.819   9.511
30405WAT      O91456   6.134   8.323   3.224
30405WAT     H191457   6.040   8.338   3.253
30405WAT     H291458   6.190   8.401   3.251
30406WAT      O91459   0.084   2.727   9.190
30406WAT     H191460   0.105   2.631   9.170
30406WAT     H291461   0.164   2.771   9.231
30407WAT      O91462   7.580   4.465   9.166
30407WAT     H191463   7.637   4.399   9.117
30407WAT     H291464   7.635   4.546   9.188
30408WAT      O91465   2.006   0.563   9.294
30408WAT     H191466   2.033   0.467   9.305
30408WAT     H291467   1.966   0.576   9.203
30409WAT      O91468   5.011   7.113   7.342
30409WAT     H191469   5.020   7.203   7.299
30409WAT     H291470   4.926   7.069   7.313
30410WAT      O91471   9.695   0.656   3.678
30410WAT     H191472   9.781   0.697   3.707
30410WAT     H291473   9.623   0.679   3.744
30411WAT      O91474   1.790   6.591   3.213
30411WAT     H191475   1.742   6.543   3.139
30411WAT     H291476   1.881   6.551   3.225
30412WAT      O91477   1.282   2.918   9.046
30412WAT     H191478   1.249   2.875   8.962
30412WAT     H291479   1.376   2.888   9.064
30413WAT      O91480   6.056   6.195   3.188
30413WAT     H191481   6.006   6.276   3.218
30413WAT     H291482   6.074   6.202   3.090
30414WAT      O91483   8.782   4.023   7.990
30414WAT     H191484   8.828   3.952   8.043
30414WAT     H291485   8.819   4.113   8.015
30415WAT      O91486   3.381   6.345   7.704
30415WAT     H191487   3.311   6.362   7.773
30415WAT     H291488   3.340   6.352   7.613
30416WAT      O91489   3.286   1.227   3.759
30416WAT     H191490   3.191   1.259   3.756
30416WAT     H291491   3.324   1.248   3.849
30417WAT      O91492   3.590   5.271   1.721
30417WAT     H191493   3.662   5.221   1.768
30417WAT     H291494   3.504   5.222   1.730
30418WAT      O91495   9.472   3.042   7.025
30418WAT     H191496   9.508   2.949   7.023
30418WAT     H291497   9.440   3.068   6.933
30419WAT      O91498   0.527   9.071   7.321
30419WAT     H191499   0.580   9.104   7.244
30419WAT     H291500   0.488   8.981   7.298
30420WAT      O91501   0.072   6.368   9.478
30420WAT     H191502   0.007   6.335   9.546
30420WAT     H291503   0.160   6.323   9.491
30421WAT      O91504   7.776   1.590   5.419
30421WAT     H191505   7.690   1.629   5.387
30421WAT     H291506   7.852   1.639   5.378
30422WAT      O91507   7.827   2.164   5.172
30422WAT     H191508   7.762   2.237   5.150
30422WAT     H291509   7.846   2.111   5.089
30423WAT      O91510   7.082   3.985   8.591
30423WAT     H191511   7.068   4.004   8.494
30423WAT     H291512   7.015   3.916   8.621
30424WAT      O91513   1.405   6.420   0.304
30424WAT     H191514   1.496   6.388   0.277
30424WAT     H291515   1.336   6.363   0.261
30425WAT      O91516   4.806   3.364   6.973
30425WAT     H191517   4.817   3.310   6.889
30425WAT     H291518   4.859   3.323   7.046
30426WAT      O91519   4.251   7.793   6.968
30426WAT     H191520   4.171   7.758   7.018
30426WAT     H291521   4.234   7.785   6.870
30427WAT      O91522   3.056   3.738   7.609
30427WAT     H191523   2.961   3.747   7.580
30427WAT     H291524   3.116   3.736   7.529
30428WAT      O91525   1.272   9.624   1.523
30428WAT     H191526   1.311   9.645   1.433
30428WAT     H291527   1.202   9.554   1.513
30429WAT      O91528   7.671   8.322   4.734
30429WAT     H191529   7.717   8.360   4.814
30429WAT     H291530   7.677   8.387   4.658
30430WAT      O91531   7.210   4.205   5.479
30430WAT     H191532   7.249   4.127   5.429
30430WAT     H291533   7.227   4.289   5.428
30431WAT      O91534   1.522   5.496   9.226
30431WAT     H191535   1.425   5.521   9.221
30431WAT     H291536   1.566   5.515   9.138
30432WAT      O91537   8.819   4.686   4.610
30432WAT     H191538   8.831   4.637   4.696
30432WAT     H291539   8.893   4.753   4.599
30433WAT      O91540   9.684   6.511   3.588
30433WAT     H191541   9.648   6.453   3.515
30433WAT     H291542   9.729   6.454   3.656
30434WAT      O91543   5.394   3.900   4.635
30434WAT     H191544   5.434   3.811   4.655
30434WAT     H291545   5.439   3.939   4.555
30435WAT      O91546   6.603   4.257   8.777
30435WAT     H191547   6.651   4.198   8.713
30435WAT     H291548   6.513   4.217   8.799
30436WAT      O91549   9.711   3.539   7.363
30436WAT     H191550   9.661   3.502   7.285
30436WAT     H291551   9.646   3.574   7.431
30437WAT      O91552   8.178   0.828   7.194
30437WAT     H191553   8.092   0.879   7.186
30437WAT     H291554   8.160   0.730   7.182
30438WAT      O91555   4.536   3.904   0.543
30438WAT     H191556   4.589   3.975   0.590
30438WAT     H291557   4.587   3.818   0.544
30439WAT      O91558   3.114   7.830   0.920
30439WAT     H191559   3.060   7.880   0.987
30439WAT     H291560   3.170   7.895   0.868
30440WAT      O91561   5.099   4.573   4.976
30440WAT     H191562   5.169   4.639   4.951
30440WAT     H291563   5.103   4.495   4.914
30441WAT      O91564   8.361   1.156   5.699
30441WAT     H191565   8.358   1.238   5.643
30441WAT     H291566   8.355   1.182   5.796
30442WAT      O91567   4.772   7.997   1.721
30442WAT     H191568   4.758   7.918   1.781
30442WAT     H291569   4.721   7.982   1.636
30443WAT      O91570   7.457   6.228   5.783
30443WAT     H191571   7.397   6.245   5.705
30443WAT     H291572   7.410   6.170   5.849
30444WAT      O91573   1.584   2.887   4.469
30444WAT     H191574   1.594   2.931   4.380
30444WAT     H291575   1.541   2.951   4.533
30445WAT      O91576   4.718   0.906   4.261
30445WAT     H191577   4.772   0.856   4.329
30445WAT     H291578   4.780   0.956   4.201
30446WAT      O91579   9.404   2.943   7.321
30446WAT     H191580   9.471   2.967   7.251
30446WAT     H291581   9.413   3.005   7.399
30447WAT      O91582   0.637   5.429   7.928
30447WAT     H191583   0.619   5.507   7.868
30447WAT     H291584   0.652   5.461   8.021
30448WAT      O91585   9.518   8.665   0.138
30448WAT     H191586   9.479   8.641   0.049
30448WAT     H291587   9.449   8.709   0.194
30449WAT      O91588   8.647   6.238   4.648
30449WAT     H191589   8.715   6.262   4.717
30449WAT     H291590   8.672   6.151   4.605
30450WAT      O91591   0.730   1.188   1.350
30450WAT     H191592   0.819   1.229   1.331
30450WAT     H291593   0.675   1.252   1.404
30451WAT      O91594   5.467   7.449   5.003
30451WAT     H191595   5.438   7.357   4.975
30451WAT     H291596   5.396   7.515   4.981
30452WAT      O91597   2.189   0.231   5.015
30452WAT     H191598   2.270   0.238   5.072
30452WAT     H291599   2.109   0.211   5.072
30453WAT      O91600   3.708   7.334   2.445
30453WAT     H191601   3.769   7.356   2.521
30453WAT     H291602   3.754   7.352   2.358
30454WAT      O91603   4.154   8.241   2.358
30454WAT     H191604   4.251   8.232   2.334
30454WAT     H291605   4.136   8.333   2.391
30455WAT      O91606   5.303   2.017   7.189
30455WAT     H191607   5.362   2.071   7.249
30455WAT     H291608   5.335   1.923   7.187
30456WAT      O91609   7.296   3.606   1.811
30456WAT     H191610   7.340   3.689   1.843
30456WAT     H291611   7.197   3.622   1.800
30457WAT      O91612   2.001   6.579   5.360
30457WAT     H191613   1.990   6.629   5.446
30457WAT     H291614   1.925   6.602   5.299
30458WAT      O91615   7.693   3.326   2.004
30458WAT     H191616   7.603   3.282   2.016
30458WAT     H291617   7.719   3.371   2.089
30459WAT      O91618   8.587   8.717   5.800
30459WAT     H191619   8.686   8.720   5.817
30459WAT     H291620   8.570   8.677   5.710
30460WAT      O91621   7.229   2.224   7.834
30460WAT     H191622   7.194   2.187   7.920
30460WAT     H291623   7.301   2.164   7.799
30461WAT      O91624   0.303   3.724   4.012
30461WAT     H191625   0.355   3.682   3.937
30461WAT     H291626   0.339   3.690   4.100
30462WAT      O91627   3.789   0.773   9.423
30462WAT     H191628   3.814   0.748   9.329
30462WAT     H291629   3.870   0.772   9.481
30463WAT      O91630   9.482   7.626   4.979
30463WAT     H191631   9.503   7.568   4.900
30463WAT     H291632   9.397   7.676   4.962
30464WAT      O91633   5.592   8.126   4.823
30464WAT     H191634   5.688   8.134   4.849
30464WAT     H291635   5.583   8.142   4.724
30465WAT      O91636   1.564   7.967   9.617
30465WAT     H191637   1.532   8.001   9.528
30465WAT     H291638   1.656   7.929   9.607
30466WAT      O91639   7.061   5.865   1.276
30466WAT     H191640   7.093   5.947   1.324
30466WAT     H291641   6.969   5.843   1.307
30467WAT      O91642   5.116   8.453   6.949
30467WAT     H191643   5.201   8.481   6.904
30467WAT     H291644   5.038   8.486   6.897
30468WAT      O91645   6.080   4.958   8.329
30468WAT     H191646   6.020   4.926   8.402
30468WAT     H291647   6.025   4.999   8.256
30469WAT      O91648   3.044   5.090   6.419
30469WAT     H191649   2.957   5.078   6.370
30469WAT     H291650   3.035   5.051   6.510
30470WAT      O91651   6.283   7.266   8.242
30470WAT     H191652   6.249   7.236   8.331
30470WAT     H291653   6.365   7.321   8.255
30471WAT      O91654   8.494   9.286   0.934
30471WAT     H191655   8.573   9.329   0.979
30471WAT     H291656   8.452   9.220   0.996
30472WAT      O91657   7.425   9.505   3.151
30472WAT     H191658   7.442   9.407   3.145
30472WAT     H291659   7.451   9.549   3.065
30473WAT      O91660   3.856   6.770   6.492
30473WAT     H191661   3.931   6.816   6.445
30473WAT     H291662   3.790   6.736   6.425
30474WAT      O91663   7.152   5.194   5.046
30474WAT     H191664   7.090   5.202   5.125
30474WAT     H291665   7.233   5.250   5.063
30475WAT      O91666   8.163   8.610   1.666
30475WAT     H191667   8.234   8.647   1.607
30475WAT     H291668   8.074   8.646   1.638
30476WAT      O91669   8.223   7.253   1.517
30476WAT     H191670   8.261   7.341   1.489
30476WAT     H291671   8.210   7.195   1.436
30477WAT      O91672   4.877   0.803   9.710
30477WAT     H191673   4.802   0.869   9.714
30477WAT     H291674   4.964   0.852   9.709
30478WAT      O91675   6.802   9.578   3.234
30478WAT     H191676   6.826   9.633   3.154
30478WAT     H291677   6.708   9.546   3.225
30479WAT      O91678   4.426   4.581   7.349
30479WAT     H191679   4.346   4.591   7.290
30479WAT     H291680   4.424   4.650   7.421
30480WAT      O91681   8.934   3.165   5.593
30480WAT     H191682   9.030   3.192   5.582
30480WAT     H291683   8.922   3.071   5.562
30481WAT      O91684   2.386   6.741   5.460
30481WAT     H191685   2.310   6.763   5.522
30481WAT     H291686   2.356   6.673   5.394
30482WAT      O91687   0.798   1.833   2.907
30482WAT     H191688   0.701   1.817   2.891
30482WAT     H291689   0.841   1.868   2.824
30483WAT      O91690   4.633   4.732   7.297
30483WAT     H191691   4.668   4.740   7.203
30483WAT     H291692   4.583   4.646   7.306
30484WAT      O91693   9.162   7.629   8.817
30484WAT     H191694   9.196   7.667   8.731
30484WAT     H291695   9.161   7.530   8.812
30485WAT      O91696   5.671   2.697   0.673
30485WAT     H191697   5.672   2.765   0.747
30485WAT     H291698   5.622   2.616   0.704
30486WAT      O91699   5.298   8.382   9.378
30486WAT     H191700   5.216   8.332   9.351
30486WAT     H291701   5.365   8.379   9.304
30487WAT      O91702   3.343   5.588   5.825
30487WAT     H191703   3.259   5.535   5.837
30487WAT     H291704   3.360   5.642   5.907
30488WAT      O91705   4.239   3.512   0.961
30488WAT     H191706   4.153   3.562   0.973
30488WAT     H291707   4.232   3.423   1.006
30489WAT      O91708   6.459   6.836   9.864
30489WAT     H191709   6.542   6.779   9.866
30489WAT     H291710   6.431   6.849   9.769
30490WAT      O91711   3.576   2.990   4.795
30490WAT     H191712   3.536   2.955   4.879
30490WAT     H291713   3.602   2.914   4.735
30491WAT      O91714   7.148   2.866   9.487
30491WAT     H191715   7.053   2.890   9.509
30491WAT     H291716   7.209   2.939   9.519
30492WAT      O91717   7.606   4.981   7.466
30492WAT     H191718   7.631   4.894   7.424
30492WAT     H291719   7.550   5.034   7.402
30493WAT      O91720   7.914   8.127   0.474
30493WAT     H191721   7.981   8.183   0.524
30493WAT     H291722   7.934   8.030   0.488
30494WAT      O91723   2.266   9.757   6.296
30494WAT     H191724   2.289   9.689   6.227
30494WAT     H291725   2.348   9.783   6.347
30495WAT      O91726   7.902   8.585   2.624
30495WAT     H191727   7.941   8.658   2.680
30495WAT     H291728   7.966   8.562   2.550
30496WAT      O91729   9.699   5.773   7.382
30496WAT     H191730   9.712   5.851   7.442
30496WAT     H291731   9.683   5.806   7.288
30497WAT      O91732   6.444   6.220   4.261
30497WAT     H191733   6.402   6.144   4.211
30497WAT     H291734   6.521   6.186   4.315
30498WAT      O91735   0.410   1.513   7.024
30498WAT     H191736   0.358   1.515   6.939
30498WAT     H291737   0.390   1.428   7.073
30499WAT      O91738   1.940   4.825   5.988
30499WAT     H191739   1.934   4.727   5.968
30499WAT     H291740   1.894   4.845   6.075
30500WAT      O91741   1.532   6.178   0.732
30500WAT     H191742   1.433   6.185   0.726
30500WAT     H291743   1.573   6.202   0.644
30501WAT      O91744   3.696   1.998   2.153
30501WAT     H191745   3.659   2.046   2.233
30501WAT     H291746   3.636   1.921   2.131
30502WAT      O91747   7.794   6.365   2.203
30502WAT     H191748   7.888   6.381   2.231
30502WAT     H291749   7.743   6.451   2.205
30503WAT      O91750   3.043   9.695   6.422
30503WAT     H191751   3.086   9.764   6.364
30503WAT     H291752   3.031   9.733   6.514
30504WAT      O91753   8.122   6.438   1.186
30504WAT     H191754   8.189   6.509   1.209
30504WAT     H291755   8.171   6.355   1.159
30505WAT      O91756   8.642   4.949   9.268
30505WAT     H191757   8.587   4.909   9.342
30505WAT     H291758   8.681   5.035   9.298
30506WAT      O91759   3.790   8.956   7.491
30506WAT     H191760   3.708   8.926   7.539
30506WAT     H291761   3.798   8.908   7.404
30507WAT      O91762   0.567   6.690   6.463
30507WAT     H191763   0.613   6.754   6.526
30507WAT     H291764   0.564   6.730   6.372
30508WAT      O91765   1.739   2.660   4.437
30508WAT     H191766   1.684   2.735   4.473
30508WAT     H291767   1.707   2.636   4.345
30509WAT      O91768   0.588   0.191   5.024
30509WAT     H191769   0.614   0.200   5.121
30509WAT     H291770   0.546   0.101   5.009
30510WAT      O91771   3.674   2.045   7.977
30510WAT     H191772   3.695   1.948   7.993
30510WAT     H291773   3.745   2.102   8.017
30511WAT      O91774   1.726   4.618   1.916
30511WAT     H191775   1.659   4.609   1.989
30511WAT     H291776   1.818   4.619   1.954
30512WAT      O91777   1.860   2.061   4.655
30512WAT     H191778   1.805   2.115   4.591
30512WAT     H291779   1.800   2.020   4.724
30513WAT      O91780   4.264   2.645   6.917
30513WAT     H191781   4.229   2.661   6.825
30513WAT     H291782   4.187   2.638   6.981
30514WAT      O91783   6.886   5.115   1.141
30514WAT     H191784   6.807   5.143   1.086
30514WAT     H291785   6.855   5.085   1.231
30515WAT      O91786   5.676   1.487   2.614
30515WAT     H191787   5.598   1.516   2.558
30515WAT     H291788   5.731   1.420   2.564
30516WAT      O91789   6.429   1.437   5.875
30516WAT     H191790   6.411   1.535   5.881
30516WAT     H291791   6.342   1.388   5.870
30517WAT      O91792   3.835   0.347   2.936
30517WAT     H191793   3.921   0.296   2.933
30517WAT     H291794   3.833   0.412   2.860
30518WAT      O91795   2.602   6.710   2.350
30518WAT     H191796   2.659   6.689   2.271
30518WAT     H291797   2.515   6.661   2.342
30519WAT      O91798   1.890   4.657   4.618
30519WAT     H191799   1.981   4.645   4.659
30519WAT     H291800   1.896   4.644   4.519
30520WAT      O91801   0.766   6.206   1.054
30520WAT     H191802   0.849   6.198   1.111
30520WAT     H291803   0.701   6.267   1.099
30521WAT      O91804   6.757   1.296   7.881
30521WAT     H191805   6.660   1.276   7.891
30521WAT     H291806   6.791   1.256   7.796
30522WAT      O91807   9.603   2.100   1.119
30522WAT     H191808   9.577   2.192   1.091
30522WAT     H291809   9.692   2.103   1.165
30523WAT      O91810   4.137   4.441   3.716
30523WAT     H191811   4.181   4.484   3.637
30523WAT     H291812   4.069   4.502   3.756
30524WAT      O91813   1.622   6.096   4.636
30524WAT     H191814   1.705   6.119   4.585
30524WAT     H291815   1.637   6.012   4.687
30525WAT      O91816   6.441   9.418   1.332
30525WAT     H191817   6.357   9.438   1.383
30525WAT     H291818   6.443   9.321   1.308
30526WAT      O91819   9.687   4.468   1.888
30526WAT     H191820   9.736   4.480   1.801
30526WAT     H291821   9.678   4.557   1.933
30527WAT      O91822   5.979   9.635   7.226
30527WAT     H191823   6.040   9.711   7.205
30527WAT     H291824   6.032   9.560   7.266
30528WAT      O91825   2.987   6.989   3.019
30528WAT     H191826   2.909   7.044   2.989
30528WAT     H291827   3.033   7.036   3.095
30529WAT      O91828   7.113   0.917   8.320
30529WAT     H191829   7.211   0.925   8.302
30529WAT     H291830   7.075   1.008   8.338
30530WAT      O91831   1.155   4.226   6.789
30530WAT     H191832   1.237   4.283   6.794
30530WAT     H291833   1.178   4.138   6.746
30531WAT      O91834   0.176   2.229   6.886
30531WAT     H191835   0.148   2.263   6.975
30531WAT     H291836   0.210   2.304   6.829
30532WAT      O91837   0.326   8.856   6.409
30532WAT     H191838   0.358   8.790   6.341
30532WAT     H291839   0.384   8.852   6.491
30533WAT      O91840   2.913   7.806   3.321
30533WAT     H191841   2.992   7.846   3.368
30533WAT     H291842   2.871   7.736   3.380
30534WAT      O91843   6.584   4.652   5.732
30534WAT     H191844   6.488   4.629   5.717
30534WAT     H291845   6.595   4.752   5.730
30535WAT      O91846   5.829   7.963   1.983
30535WAT     H191847   5.743   8.011   2.002
30535WAT     H291848   5.891   7.972   2.061
30536WAT      O91849   4.406   1.681   1.141
30536WAT     H191850   4.457   1.622   1.079
30536WAT     H291851   4.323   1.714   1.095
30537WAT      O91852   2.470   8.196   3.807
30537WAT     H191853   2.541   8.125   3.801
30537WAT     H291854   2.381   8.153   3.821
30538WAT      O91855   8.481   7.265   0.313
30538WAT     H191856   8.488   7.363   0.331
30538WAT     H291857   8.572   7.224   0.319
30539WAT      O91858   5.253   3.111   5.861
30539WAT     H191859   5.332   3.099   5.801
30539WAT     H291860   5.260   3.048   5.939
30540WAT      O91861   1.536   8.463   4.752
30540WAT     H191862   1.620   8.408   4.746
30540WAT     H291863   1.501   8.459   4.846
30541WAT      O91864   6.490   5.476   0.789
30541WAT     H191865   6.458   5.549   0.729
30541WAT     H291866   6.450   5.389   0.760
30542WAT      O91867   7.247   6.175   4.261
30542WAT     H191868   7.303   6.181   4.344
30542WAT     H291869   7.225   6.079   4.244
30543WAT      O91870   5.473   1.780   9.818
30543WAT     H191871   5.554   1.831   9.844
30543WAT     H291872   5.404   1.843   9.781
30544WAT      O91873   5.540   8.487   3.471
30544WAT     H191874   5.563   8.409   3.530
30544WAT     H291875   5.489   8.555   3.524
30545WAT      O91876   0.674   6.433   6.447
30545WAT     H191877   0.609   6.369   6.407
30545WAT     H291878   0.644   6.527   6.429
30546WAT      O91879   8.716   1.863   9.020
30546WAT     H191880   8.633   1.809   9.006
30546WAT     H291881   8.779   1.848   8.944
30547WAT      O91882   1.667   1.995   5.527
30547WAT     H191883   1.707   1.980   5.618
30547WAT     H291884   1.583   2.048   5.537
30548WAT      O91885   0.570   4.575   7.096
30548WAT     H191886   0.619   4.532   7.020
30548WAT     H291887   0.506   4.643   7.060
30549WAT      O91888   6.354   7.394   4.716
30549WAT     H191889   6.439   7.432   4.677
30549WAT     H291890   6.359   7.294   4.714
30550WAT      O91891   4.106   0.933   8.421
30550WAT     H191892   4.169   0.916   8.497
30550WAT     H291893   4.029   0.870   8.428
30551WAT      O91894   8.378   8.699   3.268
30551WAT     H191895   8.424   8.718   3.355
30551WAT     H291896   8.442   8.711   3.193
30552WAT      O91897   6.044   8.370   7.511
30552WAT     H191898   6.099   8.373   7.428
30552WAT     H291899   6.057   8.281   7.555
30553WAT      O91900   3.194   9.300   4.981
30553WAT     H191901   3.136   9.302   4.899
30553WAT     H291902   3.248   9.384   4.987
30554WAT      O91903   7.502   8.025   8.372
30554WAT     H191904   7.547   8.113   8.357
30554WAT     H291905   7.429   8.012   8.305
30555WAT      O91906   1.908   5.000   5.568
30555WAT     H191907   1.862   4.911   5.571
30555WAT     H291908   2.006   4.986   5.559
30556WAT      O91909   3.312   2.768   6.849
30556WAT     H191910   3.372   2.834   6.803
30556WAT     H291911   3.346   2.675   6.833
30557WAT      O91912   7.932   6.883   8.899
30557WAT     H191913   7.947   6.971   8.854
30557WAT     H291914   7.951   6.809   8.836
30558WAT      O91915   1.221   0.966   6.248
30558WAT     H191916   1.212   1.065   6.245
30558WAT     H291917   1.173   0.926   6.169
30559WAT      O91918   7.635   1.977   6.936
30559WAT     H191919   7.580   1.979   7.020
30559WAT     H291920   7.723   2.021   6.953
30560WAT      O91921   3.055   4.016   7.863
30560WAT     H191922   3.036   4.032   7.766
30560WAT     H291923   3.041   3.919   7.884
30561WAT      O91924   7.261   1.223   8.298
30561WAT     H191925   7.294   1.136   8.262
30561WAT     H291926   7.304   1.298   8.247
30562WAT      O91927   2.526   4.465   1.144
30562WAT     H191928   2.474   4.390   1.184
30562WAT     H291929   2.474   4.506   1.069
30563WAT      O91930   2.969   8.474   1.285
30563WAT     H191931   2.884   8.431   1.316
30563WAT     H291932   2.948   8.545   1.218
30564WAT      O91933   6.854   3.811   2.271
30564WAT     H191934   6.915   3.834   2.194
30564WAT     H291935   6.908   3.766   2.342
30565WAT      O91936   0.888   5.562   4.510
30565WAT     H191937   0.951   5.562   4.588
30565WAT     H291938   0.880   5.469   4.474
30566WAT      O91939   3.146   9.427   3.245
30566WAT     H191940   3.200   9.417   3.161
30566WAT     H291941   3.050   9.440   3.220
30567WAT      O91942   0.738   4.370   1.524
30567WAT     H191943   0.745   4.272   1.501
30567WAT     H291944   0.679   4.416   1.458
30568WAT      O91945   5.290   7.204   6.285
30568WAT     H191946   5.264   7.141   6.358
30568WAT     H291947   5.322   7.151   6.206
30569WAT      O91948   0.920   2.629   3.655
30569WAT     H191949   0.936   2.639   3.753
30569WAT     H291950   1.008   2.624   3.608
30570WAT      O91951   7.138   4.097   4.837
30570WAT     H191952   7.200   4.042   4.781
30570WAT     H291953   7.189   4.170   4.882
30571WAT      O91954   4.700   9.817   6.530
30571WAT     H191955   4.674   9.720   6.533
30571WAT     H291956   4.800   9.824   6.529
30572WAT      O91957   5.731   5.631   1.535
30572WAT     H191958   5.731   5.583   1.447
30572WAT     H291959   5.813   5.688   1.541
30573WAT      O91960   4.228   6.448   3.137
30573WAT     H191961   4.229   6.543   3.169
30573WAT     H291962   4.282   6.441   3.053
30574WAT      O91963   1.476   5.505   0.195
30574WAT     H191964   1.405   5.463   0.251
30574WAT     H291965   1.444   5.594   0.161
30575WAT      O91966   4.823   9.080   8.579
30575WAT     H191967   4.751   9.061   8.511
30575WAT     H291968   4.847   9.177   8.577
30576WAT      O91969   1.899   7.467   8.799
30576WAT     H191970   1.990   7.501   8.821
30576WAT     H291971   1.832   7.541   8.808
30577WAT      O91972   4.940   5.270   4.973
30577WAT     H191973   4.875   5.296   5.043
30577WAT     H291974   5.032   5.269   5.011
30578WAT      O91975   0.513   2.008   2.828
30578WAT     H191976   0.560   1.927   2.794
30578WAT     H291977   0.414   1.993   2.822
30579WAT      O91978   7.649   2.275   5.529
30579WAT     H191979   7.586   2.278   5.451
30579WAT     H291980   7.606   2.321   5.607
30580WAT      O91981   4.040   9.494   1.942
30580WAT     H191982   4.007   9.430   2.012
30580WAT     H291983   4.138   9.508   1.954
30581WAT      O91984   2.350   4.477   2.552
30581WAT     H191985   2.448   4.497   2.557
30581WAT     H291986   2.331   4.426   2.469
30582WAT      O91987   7.545   4.276   0.817
30582WAT     H191988   7.480   4.216   0.863
30582WAT     H291989   7.631   4.227   0.803
30583WAT      O91990   5.267   0.004   6.966
30583WAT     H191991   5.339  -0.049   6.919
30583WAT     H291992   5.183  -0.002   6.913
30584WAT      O91993   1.665   8.193   8.515
30584WAT     H191994   1.634   8.144   8.596
30584WAT     H291995   1.749   8.150   8.480
30585WAT      O91996   3.204   2.076   1.644
30585WAT     H191997   3.179   2.164   1.603
30585WAT     H291998   3.231   2.013   1.572
30586WAT      O91999   7.275   0.193   1.849
30586WAT     H192000   7.351   0.129   1.861
30586WAT     H292001   7.284   0.238   1.760
30587WAT      O92002   7.614   7.937   1.416
30587WAT     H192003   7.580   8.029   1.435
30587WAT     H292004   7.563   7.871   1.472
30588WAT      O92005   4.141   5.721   7.918
30588WAT     H192006   4.177   5.813   7.904
30588WAT     H292007   4.210   5.653   7.895
30589WAT      O92008   9.655   2.660   8.907
30589WAT     H192009   9.588   2.721   8.951
30589WAT     H292010   9.747   2.691   8.929
30590WAT      O92011   8.488   4.052   8.089
30590WAT     H192012   8.586   4.055   8.069
30590WAT     H292013   8.461   3.958   8.108
30591WAT      O92014   4.913   9.391   4.146
30591WAT     H192015   4.883   9.480   4.181
30591WAT     H292016   4.961   9.405   4.059
30592WAT      O92017   5.153   4.011   3.879
30592WAT     H192018   5.170   3.956   3.798
30592WAT     H292019   5.141   4.107   3.854
30593WAT      O92020   7.957   1.055   3.433
30593WAT     H192021   8.054   1.076   3.428
30593WAT     H292022   7.940   0.995   3.512
30594WAT      O92023   3.993   8.273   0.723
30594WAT     H192024   3.952   8.289   0.813
30594WAT     H292025   4.012   8.361   0.680
30595WAT      O92026   4.686   1.023   1.167
30595WAT     H192027   4.621   0.958   1.205
30595WAT     H292028   4.712   1.090   1.237
30596WAT      O92029   9.768   0.662   9.791
30596WAT     H192030   9.854   0.705   9.765
30596WAT     H292031   9.767   0.647   9.890
30597WAT      O92032   5.594   3.967   7.391
30597WAT     H192033   5.581   3.915   7.307
30597WAT     H292034   5.682   4.014   7.389
30598WAT      O92035   9.763   1.869   2.621
30598WAT     H192036   9.802   1.855   2.530
30598WAT     H292037   9.773   1.965   2.647
30599WAT      O92038   0.813   3.862   5.232
30599WAT     H192039   0.815   3.859   5.332
30599WAT     H292040   0.745   3.929   5.202
30600WAT      O92041   7.893   0.665   0.060
30600WAT     H192042   7.969   0.703   0.112
30600WAT     H292043   7.860   0.582   0.106
30601WAT      O92044   6.374   2.320   9.665
30601WAT     H192045   6.373   2.258   9.743
30601WAT     H292046   6.327   2.278   9.588
30602WAT      O92047   5.125   3.176   9.450
30602WAT     H192048   5.198   3.141   9.509
30602WAT     H292049   5.154   3.172   9.354
30603WAT      O92050   2.395   2.847   4.918
30603WAT     H192051   2.405   2.942   4.885
30603WAT     H292052   2.480   2.798   4.899
30604WAT      O92053   0.405   4.421   6.783
30604WAT     H192054   0.313   4.447   6.753
30604WAT     H292055   0.470   4.491   6.753
30605WAT      O92056   2.002   8.650   2.649
30605WAT     H192057   1.923   8.643   2.588
30605WAT     H292058   2.051   8.563   2.650
30606WAT      O92059   8.291   1.564   5.779
30606WAT     H192060   8.279   1.465   5.791
30606WAT     H292061   8.387   1.588   5.795
30607WAT      O92062   8.058   1.132   2.552
30607WAT     H192063   8.036   1.222   2.514
30607WAT     H292064   8.009   1.061   2.502
30608WAT      O92065   4.618   5.425   1.101
30608WAT     H192066   4.573   5.377   1.026
30608WAT     H292067   4.612   5.371   1.185
30609WAT      O92068   8.112   5.962   5.927
30609WAT     H192069   8.079   6.029   5.994
30609WAT     H292070   8.059   5.970   5.843
30610WAT      O92071   1.884   5.505   3.939
30610WAT     H192072   1.894   5.572   4.012
30610WAT     H292073   1.871   5.553   3.852
30611WAT      O92074   5.551   3.593   6.407
30611WAT     H192075   5.648   3.608   6.424
30611WAT     H292076   5.525   3.634   6.320
30612WAT      O92077   3.116   8.857   9.105
30612WAT     H192078   3.080   8.855   9.012
30612WAT     H292079   3.135   8.763   9.135
30613WAT      O92080   5.827   5.894   7.945
30613WAT     H192081   5.836   5.993   7.956
30613WAT     H292082   5.846   5.850   8.033
30614WAT      O92083   3.752   8.794   8.059
30614WAT     H192084   3.800   8.815   8.144
30614WAT     H292085   3.721   8.879   8.016
30615WAT      O92086   6.509   8.387   8.062
30615WAT     H192087   6.486   8.351   7.971
30615WAT     H292088   6.476   8.325   8.132
30616WAT      O92089   6.368   5.217   0.459
30616WAT     H192090   6.450   5.224   0.401
30616WAT     H292091   6.320   5.304   0.459
30617WAT      O92092   8.945   3.322   6.821
30617WAT     H192093   8.935   3.421   6.813
30617WAT     H292094   9.027   3.293   6.772
30618WAT      O92095   9.430   2.379   3.282
30618WAT     H192096   9.364   2.304   3.283
30618WAT     H292097   9.440   2.415   3.375
30619WAT      O92098   1.593   0.434   3.379
30619WAT     H192099   1.691   0.432   3.401
30619WAT     H292100   1.572   0.363   3.313
30620WAT      O92101   6.541   3.151   6.440
30620WAT     H192102   6.611   3.170   6.371
30620WAT     H292103   6.485   3.074   6.410
30621WAT      O92104   2.631   5.777   1.340
30621WAT     H192105   2.723   5.807   1.316
30621WAT     H292106   2.636   5.686   1.381
30622WAT      O92107   2.769   8.846   8.884
30622WAT     H192108   2.766   8.792   8.968
30622WAT     H292109   2.805   8.937   8.904
30623WAT      O92110   5.218   2.407   8.122
30623WAT     H192111   5.121   2.394   8.143
30623WAT     H292112   5.273   2.350   8.182
30624WAT      O92113   5.790   3.877   5.401
30624WAT     H192114   5.742   3.846   5.319
30624WAT     H292115   5.811   3.799   5.460
30625WAT      O92116   3.188   9.446   9.005
30625WAT     H192117   3.104   9.394   8.989
30625WAT     H292118   3.264   9.402   8.959
30626WAT      O92119   2.554   1.049   0.014
30626WAT     H192120   2.487   1.043  -0.061
30626WAT     H292121   2.644   1.067  -0.024
30627WAT      O92122   2.387   7.725   2.010
30627WAT     H192123   2.439   7.802   1.975
30627WAT     H292124   2.293   7.754   2.029
30628WAT      O92125   1.123   7.220   6.259
30628WAT     H192126   1.060   7.291   6.289
30628WAT     H292127   1.178   7.189   6.336
30629WAT      O92128   1.260   8.084   1.183
30629WAT     H192129   1.170   8.126   1.182
30629WAT     H292130   1.253   7.988   1.155
30630WAT      O92131   9.165   1.731   5.742
30630WAT     H192132   9.250   1.693   5.779
30630WAT     H292133   9.169   1.733   5.642
30631WAT      O92134   1.902   1.461   9.326
30631WAT     H192135   1.983   1.446   9.270
30631WAT     H292136   1.917   1.425   9.418
30632WAT      O92137   1.800   6.489   1.359
30632WAT     H192138   1.804   6.485   1.259
30632WAT     H292139   1.721   6.543   1.387
30633WAT      O92140   7.696   4.942   7.069
30633WAT     H192141   7.721   4.903   6.980
30633WAT     H292142   7.615   4.999   7.059
30634WAT      O92143   2.882   7.614   2.368
30634WAT     H192144   2.800   7.632   2.313
30634WAT     H292145   2.858   7.553   2.444
30635WAT      O92146   5.616   9.793   8.802
30635WAT     H192147   5.702   9.741   8.797
30635WAT     H292148   5.539   9.730   8.786
30636WAT      O92149   0.816   6.250   6.942
30636WAT     H192150   0.848   6.156   6.930
30636WAT     H292151   0.833   6.302   6.858
30637WAT      O92152   3.855   4.367   6.283
30637WAT     H192153   3.835   4.456   6.324
30637WAT     H292154   3.822   4.294   6.342
30638WAT      O92155   5.679   2.603   8.339
30638WAT     H192156   5.701   2.559   8.252
30638WAT     H292157   5.752   2.585   8.405
30639WAT      O92158   3.491   2.521   5.063
30639WAT     H192159   3.498   2.597   4.998
30639WAT     H292160   3.498   2.434   5.015
30640WAT      O92161   6.619   3.794   5.695
30640WAT     H192162   6.528   3.753   5.704
30640WAT     H292163   6.637   3.813   5.598
30641WAT      O92164   8.018   1.916   8.479
30641WAT     H192165   8.053   1.839   8.425
30641WAT     H292166   8.004   1.995   8.420
30642WAT      O92167   5.381   8.551   6.887
30642WAT     H192168   5.420   8.622   6.946
30642WAT     H292169   5.420   8.462   6.912
30643WAT      O92170   2.054   7.703   6.091
30643WAT     H192171   2.021   7.794   6.116
30643WAT     H292172   1.976   7.642   6.080
30644WAT      O92173   6.236   0.930   6.680
30644WAT     H192174   6.168   0.874   6.727
30644WAT     H292175   6.307   0.958   6.745
30645WAT      O92176   7.162   3.721   9.830
30645WAT     H192177   7.099   3.660   9.782
30645WAT     H292178   7.133   3.733   9.925
30646WAT      O92179   9.365   2.976   4.049
30646WAT     H192180   9.432   2.906   4.024
30646WAT     H292181   9.275   2.935   4.057
30647WAT      O92182   0.476   2.719   8.416
30647WAT     H192183   0.503   2.806   8.456
30647WAT     H292184   0.376   2.710   8.419
30648WAT      O92185   7.131   6.535   0.684
30648WAT     H192186   7.056   6.516   0.621
30648WAT     H292187   7.210   6.570   0.633
30649WAT      O92188   6.910   2.754   5.907
30649WAT     H192189   6.983   2.805   5.952
30649WAT     H292190   6.871   2.809   5.833
30650WAT      O92191   4.365   4.022   4.922
30650WAT     H192192   4.338   4.104   4.971
30650WAT     H292193   4.318   4.019   4.833
30651WAT      O92194   0.042   7.037   6.507
30651WAT     H192195  -0.045   7.060   6.464
30651WAT     H292196   0.106   7.113   6.495
30652WAT      O92197   5.044   8.441   0.935
30652WAT     H192198   5.023   8.349   0.968
30652WAT     H292199   4.969   8.474   0.878
30653WAT      O92200   1.201   0.818   3.725
30653WAT     H192201   1.202   0.918   3.720
30653WAT     H292202   1.249   0.780   3.647
30654WAT      O92203   9.431   1.809   7.840
30654WAT     H192204   9.382   1.722   7.840
30654WAT     H292205   9.366   1.884   7.839
30655WAT      O92206   5.979   0.702   0.387
30655WAT     H192207   5.938   0.611   0.378
30655WAT     H292208   6.008   0.734   0.297
30656WAT      O92209   3.604   2.037   9.748
30656WAT     H192210   3.592   1.945   9.784
30656WAT     H292211   3.613   2.101   9.824
30657WAT      O92212   5.696   6.882   7.162
30657WAT     H192213   5.682   6.915   7.256
30657WAT     H292214   5.784   6.837   7.156
30658WAT      O92215   6.898   9.125   1.519
30658WAT     H192216   6.857   9.214   1.498
30658WAT     H292217   6.992   9.137   1.550
30659WAT      O92218   6.350   7.806   6.566
30659WAT     H192219   6.310   7.897   6.569
30659WAT     H292220   6.277   7.738   6.572
30660WAT      O92221   4.041   5.153   8.819
30660WAT     H192222   3.995   5.066   8.836
30660WAT     H292223   4.065   5.160   8.722
30661WAT      O92224   3.663   9.837   2.940
30661WAT     H192225   3.619   9.855   2.852
30661WAT     H292226   3.678   9.739   2.951
30662WAT      O92227   6.964   6.073   5.181
30662WAT     H192228   6.989   6.166   5.210
30662WAT     H292229   7.046   6.024   5.153
30663WAT      O92230   3.391   9.748   1.865
30663WAT     H192231   3.333   9.772   1.942
30663WAT     H292232   3.464   9.816   1.855
30664WAT      O92233   8.254   0.874   3.521
30664WAT     H192234   8.348   0.883   3.486
30664WAT     H292235   8.252   0.809   3.597
30665WAT      O92236   1.531   2.695   3.743
30665WAT     H192237   1.518   2.765   3.673
30665WAT     H292238   1.507   2.605   3.706
30666WAT      O92239   2.633   9.066   1.820
30666WAT     H192240   2.575   8.989   1.848
30666WAT     H292241   2.705   9.033   1.760
30667WAT      O92242   0.717   2.793   3.619
30667WAT     H192243   0.656   2.762   3.693
30667WAT     H292244   0.800   2.738   3.620
30668WAT      O92245   7.475   6.957   1.045
30668WAT     H192246   7.505   6.995   0.957
30668WAT     H292247   7.547   6.972   1.113
30669WAT      O92248   5.185   5.097   0.625
30669WAT     H192249   5.280   5.081   0.650
30669WAT     H292250   5.128   5.093   0.708
30670WAT      O92251   5.469   7.107   3.323
30670WAT     H192252   5.414   7.154   3.393
30670WAT     H292253   5.550   7.162   3.302
30671WAT      O92254   2.198   5.873   6.886
30671WAT     H192255   2.203   5.855   6.788
30671WAT     H292256   2.238   5.963   6.906
30672WAT      O92257   6.512   3.795   3.229
30672WAT     H192258   6.550   3.860   3.294
30672WAT     H292259   6.550   3.704   3.246
30673WAT      O92260   0.098   9.286   4.472
30673WAT     H192261   0.019   9.336   4.436
30673WAT     H292262   0.067   9.218   4.538
30674WAT      O92263   2.680   1.902   6.412
30674WAT     H192264   2.734   1.909   6.497
30674WAT     H292265   2.725   1.838   6.350
30675WAT      O92266   9.138   4.349   0.942
30675WAT     H192267   9.092   4.336   1.030
30675WAT     H292268   9.234   4.322   0.951
30676WAT      O92269   0.568   2.550   3.377
30676WAT     H192270   0.488   2.498   3.407
30676WAT     H292271   0.545   2.647   3.371
30677WAT      O92272   0.021   4.794   3.077
30677WAT     H192273  -0.066   4.768   3.036
30677WAT     H292274   0.095   4.740   3.036
30678WAT      O92275   1.478   3.362   4.692
30678WAT     H192276   1.432   3.403   4.771
30678WAT     H292277   1.547   3.297   4.724
30679WAT      O92278   3.276   0.584   9.608
30679WAT     H192279   3.244   0.556   9.518
30679WAT     H292280   3.325   0.509   9.651
30680WAT      O92281   5.182   3.114   9.194
30680WAT     H192282   5.225   3.029   9.162
30680WAT     H292283   5.208   3.189   9.133
30681WAT      O92284   3.115   3.644   8.854
30681WAT     H192285   3.069   3.686   8.933
30681WAT     H292286   3.126   3.711   8.781
30682WAT      O92287   2.081   4.404   6.574
30682WAT     H192288   2.063   4.340   6.649
30682WAT     H292289   2.139   4.478   6.607
30683WAT      O92290   9.245   3.090   5.551
30683WAT     H192291   9.336   3.085   5.594
30683WAT     H292292   9.218   3.185   5.542
30684WAT      O92293   8.612   4.742   5.284
30684WAT     H192294   8.623   4.675   5.210
30684WAT     H292295   8.644   4.831   5.253
30685WAT      O92296   4.513   6.666   2.013
30685WAT     H192297   4.496   6.613   1.931
30685WAT     H292298   4.576   6.617   2.073
30686WAT      O92299   8.881   3.914   2.624
30686WAT     H192300   8.875   3.996   2.567
30686WAT     H292301   8.976   3.881   2.625
30687WAT      O92302   4.865   5.539   9.056
30687WAT     H192303   4.882   5.560   9.152
30687WAT     H292304   4.932   5.472   9.024
30688WAT      O92305   2.208   2.636   6.491
30688WAT     H192306   2.284   2.656   6.429
30688WAT     H292307   2.168   2.722   6.522
30689WAT      O92308   6.064   9.295   9.724
30689WAT     H192309   6.127   9.226   9.688
30689WAT     H292310   5.988   9.308   9.660
30690WAT      O92311   7.955   4.587   0.410
30690WAT     H192312   8.043   4.570   0.366
30690WAT     H292313   7.888   4.615   0.342
30691WAT      O92314   6.291   2.907   3.940
30691WAT     H192315   6.374   2.957   3.914
30691WAT     H292316   6.311   2.809   3.943
30692WAT      O92317   7.207   5.150   4.772
30692WAT     H192318   7.210   5.151   4.872
30692WAT     H292319   7.169   5.237   4.740
30693WAT      O92320   4.170   0.896   2.780
30693WAT     H192321   4.252   0.935   2.821
30693WAT     H292322   4.143   0.814   2.830
30694WAT      O92323   4.957   3.698   2.654
30694WAT     H192324   4.956   3.641   2.736
30694WAT     H292325   5.043   3.747   2.648
30695WAT      O92326   6.603   4.191   1.023
30695WAT     H192327   6.629   4.266   0.962
30695WAT     H292328   6.547   4.125   0.974
30696WAT      O92329   4.194   9.426   0.865
30696WAT     H192330   4.242   9.500   0.817
30696WAT     H292331   4.254   9.386   0.935
30697WAT      O92332   0.707   6.868   5.981
30697WAT     H192333   0.767   6.793   5.952
30697WAT     H292334   0.758   6.930   6.040
30698WAT      O92335   3.071   1.651   4.245
30698WAT     H192336   3.105   1.668   4.337
30698WAT     H292337   3.147   1.622   4.186
30699WAT      O92338   5.505   4.484   2.342
30699WAT     H192339   5.441   4.434   2.283
30699WAT     H292340   5.561   4.418   2.392
30700WAT      O92341   9.214   8.640   9.575
30700WAT     H192342   9.152   8.636   9.497
30700WAT     H292343   9.172   8.597   9.654
30701WAT      O92344   5.232   7.650   2.448
30701WAT     H192345   5.290   7.682   2.523
30701WAT     H292346   5.257   7.556   2.424
30702WAT      O92347   3.870   4.663   7.957
30702WAT     H192348   3.966   4.634   7.947
30702WAT     H292349   3.865   4.762   7.962
30703WAT      O92350   4.271   4.338   3.261
30703WAT     H192351   4.348   4.360   3.321
30703WAT     H292352   4.186   4.353   3.311
30704WAT      O92353   5.281   1.931   3.715
30704WAT     H192354   5.182   1.942   3.709
30704WAT     H292355   5.326   1.997   3.655
30705WAT      O92356   9.060   1.298   0.582
30705WAT     H192357   9.074   1.289   0.680
30705WAT     H292358   9.036   1.392   0.560
30706WAT      O92359   0.159   6.531   0.527
30706WAT     H192360   0.061   6.518   0.542
30706WAT     H292361   0.205   6.541   0.615
30707WAT      O92362  -0.000   8.287   3.454
30707WAT     H192363   0.089   8.318   3.487
30707WAT     H292364  -0.054   8.366   3.423
30708WAT      O92365   3.463   3.598   6.659
30708WAT     H192366   3.458   3.512   6.609
30708WAT     H292367   3.522   3.586   6.739
30709WAT      O92368   0.566   1.742   2.757
30709WAT     H192369   0.627   1.667   2.784
30709WAT     H292370   0.482   1.704   2.719
30710WAT      O92371   9.420   5.746   3.873
30710WAT     H192372   9.364   5.667   3.896
30710WAT     H292373   9.508   5.740   3.920
30711WAT      O92374   4.850   5.071   6.670
30711WAT     H192375   4.822   5.109   6.757
30711WAT     H292376   4.813   4.978   6.661
30712WAT      O92377   1.132   7.386   0.380
30712WAT     H192378   1.074   7.367   0.460
30712WAT     H292379   1.076   7.383   0.298
30713WAT      O92380   0.124   8.998   8.470
30713WAT     H192381   0.212   9.030   8.435
30713WAT     H292382   0.050   9.031   8.411
30714WAT      O92383   9.297   2.518   8.940
30714WAT     H192384   9.226   2.486   8.878
30714WAT     H292385   9.379   2.541   8.888
30715WAT      O92386   8.385   0.655   8.212
30715WAT     H192387   8.397   0.691   8.305
30715WAT     H292388   8.337   0.723   8.156
30716WAT      O92389   0.168   3.137   9.671
30716WAT     H192390   0.221   3.125   9.755
30716WAT     H292391   0.218   3.099   9.594
30717WAT      O92392   9.351   9.181   8.935
30717WAT     H192393   9.370   9.275   8.963
30717WAT     H292394   9.316   9.130   9.014
30718WAT      O92395   0.642   0.166   5.305
30718WAT     H192396   0.716   0.184   5.370
30718WAT     H292397   0.616   0.069   5.311
30719WAT      O92398   8.118   1.523   1.220
30719WAT     H192399   8.057   1.555   1.293
30719WAT     H292400   8.073   1.536   1.131
30720WAT      O92401   9.277   6.297   8.770
30720WAT     H192402   9.296   6.213   8.821
30720WAT     H292403   9.272   6.276   8.673
30721WAT      O92404   4.691   3.963   9.885
30721WAT     H192405   4.705   3.885   9.946
30721WAT     H292406   4.706   4.047   9.935
30722WAT      O92407   1.562   1.156   7.853
30722WAT     H192408   1.485   1.104   7.890
30722WAT     H292409   1.597   1.110   7.772
30723WAT      O92410   7.872   9.813   3.978
30723WAT     H192411   7.894   9.902   4.018
30723WAT     H292412   7.893   9.814   3.880
30724WAT      O92413   7.590   0.313   0.624
30724WAT     H192414   7.608   0.264   0.539
30724WAT     H292415   7.674   0.359   0.654
30725WAT      O92416   4.470   9.745   3.606
30725WAT     H192417   4.530   9.665   3.605
30725WAT     H292418   4.449   9.773   3.513
30726WAT      O92419   8.230   5.380   3.550
30726WAT     H192420   8.183   5.301   3.590
30726WAT     H292421   8.327   5.358   3.538
30727WAT      O92422   4.862   2.553   1.601
30727WAT     H192423   4.791   2.486   1.625
30727WAT     H292424   4.881   2.611   1.680
30728WAT      O92425   3.908   3.429   8.306
30728WAT     H192426   3.840   3.362   8.337
30728WAT     H292427   3.993   3.416   8.358
30729WAT      O92428   0.414   4.401   8.380
30729WAT     H192429   0.328   4.350   8.388
30729WAT     H292430   0.411   4.459   8.299
30730WAT      O92431   7.855   2.795   9.655
30730WAT     H192432   7.874   2.853   9.734
30730WAT     H292433   7.805   2.714   9.684
30731WAT      O92434   3.300   6.271   2.203
30731WAT     H192435   3.295   6.363   2.242
30731WAT     H292436   3.216   6.251   2.153
30732WAT      O92437   8.815   1.863   4.848
30732WAT     H192438   8.877   1.839   4.923
30732WAT     H292439   8.797   1.782   4.792
30733WAT      O92440   7.054   7.734   6.311
30733WAT     H192441   7.008   7.803   6.366
30733WAT     H292442   7.137   7.704   6.359
30734WAT      O92443   7.867   1.183   0.619
30734WAT     H192444   7.792   1.120   0.599
30734WAT     H292445   7.833   1.262   0.669
30735WAT      O92446   2.998   1.121   2.070
30735WAT     H192447   2.997   1.221   2.071
30735WAT     H292448   3.060   1.087   2.140
30736WAT      O92449   1.231   8.482   3.622
30736WAT     H192450   1.314   8.536   3.636
30736WAT     H292451   1.220   8.463   3.524
30737WAT      O92452   3.299   2.291   4.590
30737WAT     H192453   3.241   2.326   4.663
30737WAT     H292454   3.260   2.314   4.501
30738WAT      O92455   4.663   3.494   8.822
30738WAT     H192456   4.617   3.464   8.906
30738WAT     H292457   4.697   3.587   8.835
30739WAT      O92458   9.814   7.371   3.335
30739WAT     H192459   9.902   7.354   3.291
30739WAT     H292460   9.821   7.355   3.433
30740WAT      O92461   7.399   6.047   5.985
30740WAT     H192462   7.471   6.073   6.049
30740WAT     H292463   7.429   5.969   5.931
30741WAT      O92464   1.533   2.597   9.849
30741WAT     H192465   1.599   2.604   9.775
30741WAT     H292466   1.516   2.688   9.887
30742WAT      O92467   9.031   2.427   3.108
30742WAT     H192468   9.064   2.490   3.178
30742WAT     H292469   9.109   2.391   3.056
30743WAT      O92470   9.620   1.765   9.048
30743WAT     H192471   9.561   1.695   9.088
30743WAT     H292472   9.569   1.851   9.040
30744WAT      O92473   3.078   6.540   9.229
30744WAT     H192474   3.017   6.613   9.260
30744WAT     H292475   3.027   6.455   9.221
30745WAT      O92476   0.619   7.272   0.158
30745WAT     H192477   0.702   7.324   0.140
30745WAT     H292478   0.577   7.303   0.244
30746WAT      O92479   8.035   3.171   5.858
30746WAT     H192480   7.996   3.227   5.931
30746WAT     H292481   8.061   3.230   5.781
30747WAT      O92482   6.655   7.362   4.561
30747WAT     H192483   6.602   7.323   4.486
30747WAT     H292484   6.742   7.314   4.568
30748WAT      O92485   1.298   0.500   1.390
30748WAT     H192486   1.363   0.441   1.437
30748WAT     H292487   1.218   0.446   1.363
30749WAT      O92488   0.354   3.533   9.402
30749WAT     H192489   0.431   3.596   9.398
30749WAT     H292490   0.342   3.501   9.496
30750WAT      O92491   5.580   0.121   7.990
30750WAT     H192492   5.525   0.162   8.062
30750WAT     H292493   5.521   0.095   7.914
30751WAT      O92494   8.900   1.063   6.980
30751WAT     H192495   8.964   0.995   6.947
30751WAT     H292496   8.928   1.096   7.070
30752WAT      O92497   6.200   2.109   2.669
30752WAT     H192498   6.281   2.124   2.726
30752WAT     H292499   6.183   2.190   2.612
30753WAT      O92500   9.396   8.428   7.489
30753WAT     H192501   9.438   8.396   7.403
30753WAT     H292502   9.299   8.444   7.475
30754WAT      O92503   6.979   6.198   7.985
30754WAT     H192504   7.039   6.276   8.005
30754WAT     H292505   6.884   6.229   7.986
30755WAT      O92506   4.692   6.029   3.758
30755WAT     H192507   4.613   6.074   3.717
30755WAT     H292508   4.663   5.943   3.801
30756WAT      O92509   7.502   4.323   3.030
30756WAT     H192510   7.565   4.393   3.063
30756WAT     H292511   7.472   4.346   2.937
30757WAT      O92512   6.289   3.742   7.612
30757WAT     H192513   6.276   3.763   7.709
30757WAT     H292514   6.346   3.661   7.603
30758WAT      O92515   6.650   6.081   8.233
30758WAT     H192516   6.743   6.047   8.215
30758WAT     H292517   6.648   6.181   8.221
30759WAT      O92518   2.410   7.156   3.718
30759WAT     H192519   2.457   7.234   3.677
30759WAT     H292520   2.386   7.090   3.647
30760WAT      O92521   4.708   0.767   6.328
30760WAT     H192522   4.715   0.810   6.418
30760WAT     H292523   4.612   0.746   6.309
30761WAT      O92524   2.432   0.790   5.729
30761WAT     H192525   2.430   0.839   5.642
30761WAT     H292526   2.526   0.786   5.763
30762WAT      O92527   5.241   3.498   9.259
30762WAT     H192528   5.256   3.419   9.200
30762WAT     H292529   5.304   3.571   9.233
30763WAT      O92530   8.832   8.853   0.575
30763WAT     H192531   8.924   8.852   0.534
30763WAT     H292532   8.801   8.947   0.585
30764WAT      O92533   5.083   2.843   8.121
30764WAT     H192534   5.166   2.802   8.159
30764WAT     H292535   5.010   2.775   8.117
30765WAT      O92536   2.315   9.653   5.743
30765WAT     H192537   2.239   9.588   5.743
30765WAT     H292538   2.293   9.731   5.801
30766WAT      O92539   4.582   0.389   0.099
30766WAT     H192540   4.607   0.335   0.019
30766WAT     H292541   4.664   0.427   0.141
30767WAT      O92542   9.753   5.129   0.571
30767WAT     H192543   9.714   5.048   0.613
30767WAT     H292544   9.799   5.104   0.485
30768WAT      O92545   4.871   0.188   8.983
30768WAT     H192546   4.944   0.135   8.941
30768WAT     H292547   4.911   0.262   9.038
30769WAT      O92548   0.671   3.509   4.625
30769WAT     H192549   0.731   3.476   4.698
30769WAT     H292550   0.656   3.435   4.559
30770WAT      O92551   7.275   5.260   6.716
30770WAT     H192552   7.179   5.281   6.735
30770WAT     H292553   7.330   5.276   6.798
30771WAT      O92554   3.326   7.553   8.460
30771WAT     H192555   3.345   7.573   8.364
30771WAT     H292556   3.311   7.455   8.472
30772WAT      O92557   8.476   4.432   1.508
30772WAT     H192558   8.482   4.415   1.409
30772WAT     H292559   8.491   4.347   1.558
30773WAT      O92560   5.770   5.098   0.180
30773WAT     H192561   5.858   5.085   0.224
30773WAT     H292562   5.696   5.078   0.245
30774WAT      O92563   3.131   5.296   6.776
30774WAT     H192564   3.051   5.339   6.818
30774WAT     H292565   3.144   5.333   6.684
30775WAT      O92566   3.606   7.979   4.239
30775WAT     H192567   3.602   7.890   4.284
30775WAT     H292568   3.661   7.971   4.156
30776WAT      O92569   3.414   4.740   7.397
30776WAT     H192570   3.360   4.802   7.454
30776WAT     H292571   3.481   4.692   7.454
30777WAT      O92572   2.716   7.348   7.975
30777WAT     H192573   2.709   7.412   8.052
30777WAT     H292574   2.737   7.399   7.892
30778WAT      O92575   3.797   6.368   3.647
30778WAT     H192576   3.804   6.409   3.738
30778WAT     H292577   3.701   6.358   3.622
30779WAT      O92578   7.557   2.190   0.658
30779WAT     H192579   7.556   2.283   0.623
30779WAT     H292580   7.643   2.173   0.706
30780WAT      O92581   3.356   5.150   6.379
30780WAT     H192582   3.409   5.112   6.455
30780WAT     H292583   3.261   5.119   6.385
30781WAT      O92584   6.105   4.172   9.025
30781WAT     H192585   6.172   4.106   9.058
30781WAT     H292586   6.135   4.265   9.047
30782WAT      O92587   8.218   3.630   1.641
30782WAT     H192588   8.270   3.713   1.663
30782WAT     H292589   8.147   3.651   1.574
30783WAT      O92590   5.140   8.220   7.346
30783WAT     H192591   5.112   8.307   7.385
30783WAT     H292592   5.237   8.204   7.365
30784WAT      O92593   2.449   0.816   7.319
30784WAT     H192594   2.545   0.797   7.300
30784WAT     H292595   2.422   0.771   7.404
30785WAT      O92596   1.490   1.031   3.524
30785WAT     H192597   1.432   1.103   3.561
30785WAT     H292598   1.578   1.030   3.572
30786WAT      O92599   5.488   6.310   8.492
30786WAT     H192600   5.504   6.257   8.575
30786WAT     H292601   5.394   6.345   8.492
30787WAT      O92602   1.217   0.591   2.530
30787WAT     H192603   1.210   0.646   2.613
30787WAT     H292604   1.128   0.550   2.509
30788WAT      O92605   0.284   3.262   6.873
30788WAT     H192606   0.215   3.325   6.837
30788WAT     H292607   0.248   3.216   6.954
30789WAT      O92608   4.178   1.699   3.068
30789WAT     H192609   4.244   1.684   3.141
30789WAT     H292610   4.225   1.727   2.984
30790WAT      O92611   9.413   4.069   7.254
30790WAT     H192612   9.349   3.993   7.248
30790WAT     H292613   9.379   4.146   7.201
30791WAT      O92614   6.892   7.677   7.005
30791WAT     H192615   6.820   7.738   7.038
30791WAT     H292616   6.898   7.684   6.905
30792WAT      O92617   3.045   7.818   8.666
30792WAT     H192618   3.043   7.903   8.719
30792WAT     H292619   2.952   7.785   8.654
30793WAT      O92620   7.748   1.228   1.825
30793WAT     H192621   7.811   1.218   1.748
30793WAT     H292622   7.758   1.319   1.866
30794WAT      O92623   4.127   7.705   1.164
30794WAT     H192624   4.078   7.624   1.197
30794WAT     H292625   4.224   7.697   1.190
30795WAT      O92626   8.643   7.784   8.730
30795WAT     H192627   8.721   7.736   8.769
30795WAT     H292628   8.602   7.843   8.800
30796WAT      O92629   3.217   8.233   4.939
30796WAT     H192630   3.280   8.289   4.993
30796WAT     H292631   3.150   8.191   5.000
30797WAT      O92632   0.603   1.366   1.528
30797WAT     H192633   0.664   1.380   1.606
30797WAT     H292634   0.571   1.454   1.494
30798WAT      O92635   7.139   9.378   6.716
30798WAT     H192636   7.137   9.303   6.782
30798WAT     H292637   7.076   9.358   6.641
30799WAT      O92638   1.292   3.416   4.897
30799WAT     H192639   1.235   3.471   4.835
30799WAT     H292640   1.238   3.338   4.930
30800WAT      O92641   4.438   6.175   8.758
30800WAT     H192642   4.487   6.134   8.681
30800WAT     H292643   4.503   6.221   8.819
30801WAT      O92644   6.798   1.115   1.297
30801WAT     H192645   6.700   1.135   1.301
30801WAT     H292646   6.848   1.183   1.352
30802WAT      O92647   7.001   5.781   9.026
30802WAT     H192648   7.004   5.841   8.947
30802WAT     H292649   7.056   5.819   9.100
30803WAT      O92650   9.452   2.751   7.759
30803WAT     H192651   9.363   2.789   7.783
30803WAT     H292652   9.485   2.793   7.675
30804WAT      O92653   9.031   4.896   7.448
30804WAT     H192654   9.097   4.942   7.508
30804WAT     H292655   8.967   4.843   7.504
30805WAT      O92656   7.670   0.372   5.543
30805WAT     H192657   7.640   0.458   5.585
30805WAT     H292658   7.725   0.320   5.609
30806WAT      O92659   4.779   2.931   5.140
30806WAT     H192660   4.868   2.976   5.135
30806WAT     H292661   4.772   2.861   5.069
30807WAT      O92662   9.618   4.535   0.593
30807WAT     H192663   9.586   4.536   0.688
30807WAT     H292664   9.709   4.575   0.589
30808WAT      O92665   9.122   6.174   4.069
30808WAT     H192666   9.200   6.113   4.059
30808WAT     H292667   9.039   6.120   4.085
30809WAT      O92668   2.781   9.609   9.843
30809WAT     H192669   2.689   9.571   9.848
30809WAT     H292670   2.778   9.707   9.861
30810WAT      O92671   8.974   8.973   3.031
30810WAT     H192672   8.918   9.047   2.993
30810WAT     H292673   9.017   8.922   2.956
30811WAT      O92674   8.450   7.669   6.275
30811WAT     H192675   8.434   7.671   6.177
30811WAT     H292676   8.530   7.613   6.295
30812WAT      O92677   8.416   3.755   5.976
30812WAT     H192678   8.507   3.767   6.015
30812WAT     H292679   8.401   3.658   5.955
30813WAT      O92680   9.542   3.224   4.662
30813WAT     H192681   9.468   3.283   4.629
30813WAT     H292682   9.535   3.134   4.619
30814WAT      O92683   7.332   6.207   4.902
30814WAT     H192684   7.349   6.112   4.879
30814WAT     H292685   7.235   6.228   4.891
30815WAT      O92686   9.834   5.330   2.571
30815WAT     H192687   9.883   5.409   2.533
30815WAT     H292688   9.736   5.349   2.570
30816WAT      O92689   6.955   2.547   7.460
30816WAT     H192690   6.997   2.627   7.502
30816WAT     H292691   7.026   2.478   7.443
30817WAT      O92692   0.144   3.940   9.237
30817WAT     H192693   0.168   3.844   9.227
30817WAT     H292694   0.123   3.979   9.147
30818WAT      O92695   0.026   8.580   4.049
30818WAT     H192696   0.069   8.571   4.139
30818WAT     H292697   0.009   8.489   4.011
30819WAT      O92698   8.276   6.590   7.478
30819WAT     H192699   8.234   6.658   7.418
30819WAT     H292700   8.206   6.552   7.539
30820WAT      O92701   7.131   4.086   1.639
30820WAT     H192702   7.171   4.115   1.726
30820WAT     H292703   7.190   4.116   1.564
30821WAT      O92704   6.637   5.065   8.048
30821WAT     H192705   6.699   5.119   7.991
30821WAT     H292706   6.646   4.968   8.025
30822WAT      O92707   4.268   7.614   5.086
30822WAT     H192708   4.273   7.571   5.176
30822WAT     H292709   4.174   7.643   5.069
30823WAT      O92710   4.662   1.300   8.609
30823WAT     H192711   4.672   1.273   8.513
30823WAT     H292712   4.705   1.231   8.667
30824WAT      O92713   2.599   1.532   4.488
30824WAT     H192714   2.663   1.520   4.412
30824WAT     H292715   2.538   1.454   4.493
30825WAT      O92716   5.754   8.578   8.879
30825WAT     H192717   5.682   8.610   8.940
30825WAT     H292718   5.834   8.638   8.886
30826WAT      O92719   4.529   8.938   6.497
30826WAT     H192720   4.502   9.025   6.538
30826WAT     H292721   4.561   8.876   6.569
30827WAT      O92722   0.658   1.058   7.731
30827WAT     H192723   0.594   0.981   7.738
30827WAT     H292724   0.674   1.096   7.822
30828WAT      O92725   4.613   3.326   0.549
30828WAT     H192726   4.557   3.315   0.631
30828WAT     H292727   4.555   3.344   0.470
30829WAT      O92728   5.000   7.823   2.108
30829WAT     H192729   4.979   7.760   2.183
30829WAT     H292730   4.963   7.914   2.129
30830WAT      O92731   2.641   6.287   9.240
30830WAT     H192732   2.602   6.249   9.324
30830WAT     H292733   2.654   6.214   9.173
30831WAT      O92734   8.361   5.262   3.906
30831WAT     H192735   8.272   5.306   3.893
30831WAT     H292736   8.362   5.174   3.858
30832WAT      O92737   2.433   2.634   9.738
30832WAT     H192738   2.511   2.662   9.794
30832WAT     H292739   2.454   2.647   9.641
30833WAT      O92740   9.039   7.938   7.334
30833WAT     H192741   9.134   7.959   7.357
30833WAT     H292742   9.036   7.852   7.282
30834WAT      O92743   5.878   4.728   0.417
30834WAT     H192744   5.909   4.755   0.508
30834WAT     H292745   5.836   4.637   0.421
30835WAT      O92746   0.302   6.452   8.661
30835WAT     H192747   0.282   6.471   8.757
30835WAT     H292748   0.259   6.521   8.603
30836WAT      O92749   0.296   0.510   4.439
30836WAT     H192750   0.229   0.570   4.396
30836WAT     H292751   0.369   0.490   4.374
30837WAT      O92752   9.403   2.632   6.908
30837WAT     H192753   9.431   2.538   6.885
30837WAT     H292754   9.340   2.666   6.838
30838WAT      O92755   0.219   0.094   7.835
30838WAT     H192756   0.215   0.192   7.853
30838WAT     H292757   0.197   0.044   7.919
30839WAT      O92758   7.061   5.789   1.666
30839WAT     H192759   7.117   5.807   1.747
30839WAT     H292760   6.988   5.857   1.660
30840WAT      O92761   9.216   1.484   9.420
30840WAT     H192762   9.140   1.480   9.485
30840WAT     H292763   9.213   1.404   9.360
30841WAT      O92764   1.018   0.153   4.655
30841WAT     H192765   1.061   0.242   4.669
30841WAT     H292766   0.942   0.143   4.718
30842WAT      O92767   3.364   9.814   7.300
30842WAT     H192768   3.409   9.748   7.240
30842WAT     H292769   3.273   9.779   7.325
30843WAT      O92770   1.133   2.641   8.831
30843WAT     H192771   1.037   2.622   8.811
30843WAT     H292772   1.185   2.647   8.746
30844WAT      O92773   6.698   3.848   6.568
30844WAT     H192774   6.768   3.787   6.605
30844WAT     H292775   6.615   3.795   6.550
30845WAT      O92776   0.627   6.331   7.659
30845WAT     H192777   0.725   6.343   7.644
30845WAT     H292778   0.587   6.279   7.584
30846WAT      O92779   5.598   8.160   2.409
30846WAT     H192780   5.576   8.217   2.488
30846WAT     H292781   5.514   8.131   2.364
30847WAT      O92782   4.588   2.311   3.893
30847WAT     H192783   4.585   2.238   3.824
30847WAT     H292784   4.527   2.287   3.969
30848WAT      O92785   1.951   0.070   9.285
30848WAT     H192786   1.857   0.077   9.319
30848WAT     H292787   1.949   0.041   9.189
30849WAT      O92788   6.595   5.500   2.063
30849WAT     H192789   6.536   5.423   2.039
30849WAT     H292790   6.543   5.585   2.057
30850WAT      O92791   1.562   5.224   0.552
30850WAT     H192792   1.586   5.177   0.468
30850WAT     H292793   1.473   5.268   0.542
30851WAT      O92794   1.699   7.859   4.251
30851WAT     H192795   1.793   7.893   4.253
30851WAT     H292796   1.685   7.804   4.169
30852WAT      O92797   5.733   6.809   3.491
30852WAT     H192798   5.728   6.818   3.391
30852WAT     H292799   5.810   6.751   3.516
30853WAT      O92800   4.900   6.105   3.473
30853WAT     H192801   4.920   6.202   3.483
30853WAT     H292802   4.932   6.056   3.554
30854WAT      O92803   2.625   5.436   0.359
30854WAT     H192804   2.635   5.350   0.409
30854WAT     H292805   2.543   5.484   0.391
30855WAT      O92806   4.592   2.897   0.570
30855WAT     H192807   4.592   2.931   0.476
30855WAT     H292808   4.617   2.800   0.571
30856WAT      O92809   1.643   8.110   5.827
30856WAT     H192810   1.544   8.117   5.814
30856WAT     H292811   1.688   8.189   5.784
30857WAT      O92812   1.261   5.111   7.321
30857WAT     H192813   1.174   5.109   7.272
30857WAT     H292814   1.282   5.020   7.357
30858WAT      O92815   8.139   1.758   7.483
30858WAT     H192816   8.164   1.662   7.494
30858WAT     H292817   8.136   1.780   7.385
30859WAT      O92818   6.167   8.881   2.543
30859WAT     H192819   6.155   8.914   2.636
30859WAT     H292820   6.237   8.936   2.496
30860WAT      O92821   0.545   1.721   1.854
30860WAT     H192822   0.583   1.633   1.883
30860WAT     H292823   0.576   1.792   1.917
30861WAT      O92824   3.440   8.014   9.718
30861WAT     H192825   3.435   7.933   9.660
30861WAT     H292826   3.403   7.993   9.808
30862WAT      O92827   0.781   7.076   1.368
30862WAT     H192828   0.750   7.161   1.411
30862WAT     H292829   0.733   7.064   1.281
30863WAT      O92830   8.803   2.934   0.273
30863WAT     H192831   8.777   2.892   0.186
30863WAT     H292832   8.752   2.890   0.347
30864WAT      O92833   8.678   2.366   8.779
30864WAT     H192834   8.754   2.360   8.843
30864WAT     H292835   8.622   2.283   8.786
30865WAT      O92836   9.668   2.532   2.112
30865WAT     H192837   9.573   2.542   2.081
30865WAT     H292838   9.691   2.435   2.119
30866WAT      O92839   9.424   8.675   0.748
30866WAT     H192840   9.519   8.657   0.723
30866WAT     H292841   9.369   8.686   0.666
30867WAT      O92842   5.393   4.427   0.423
30867WAT     H192843   5.370   4.521   0.398
30867WAT     H292844   5.333   4.397   0.497
30868WAT      O92845   8.487   7.528   0.407
30868WAT     H192846   8.431   7.609   0.392
30868WAT     H292847   8.488   7.507   0.505
30869WAT      O92848   1.720   6.304   1.889
30869WAT     H192849   1.650   6.356   1.938
30869WAT     H292850   1.722   6.210   1.923
30870WAT      O92851   0.760   3.857   5.502
30870WAT     H192852   0.711   3.770   5.514
30870WAT     H292853   0.719   3.926   5.561
30871WAT      O92854   5.832   3.919   0.802
30871WAT     H192855   5.746   3.933   0.753
30871WAT     H292856   5.908   3.920   0.737
30872WAT      O92857   7.639   9.143   0.155
30872WAT     H192858   7.718   9.101   0.113
30872WAT     H292859   7.595   9.079   0.218
30873WAT      O92860   7.813   9.290   7.115
30873WAT     H192861   7.859   9.296   7.204
30873WAT     H292862   7.718   9.262   7.128
30874WAT      O92863   4.122   7.413   4.757
30874WAT     H192864   4.122   7.391   4.854
30874WAT     H292865   4.207   7.380   4.716
30875WAT      O92866   8.110   8.376   6.874
30875WAT     H192867   8.054   8.300   6.840
30875WAT     H292868   8.153   8.350   6.960
30876WAT      O92869   3.910   2.229   4.023
30876WAT     H192870   3.844   2.247   4.096
30876WAT     H292871   3.940   2.134   4.027
30877WAT      O92872   5.043   8.766   8.966
30877WAT     H192873   5.119   8.714   9.003
30877WAT     H292874   5.032   8.851   9.017
30878WAT      O92875   3.841   5.650   3.498
30878WAT     H192876   3.910   5.721   3.482
30878WAT     H292877   3.795   5.630   3.411
30879WAT      O92878   1.358   3.492   4.255
30879WAT     H192879   1.454   3.501   4.281
30879WAT     H292880   1.337   3.396   4.237
30880WAT      O92881   5.522   0.832   9.014
30880WAT     H192882   5.489   0.895   9.084
30880WAT     H292883   5.555   0.748   9.058
30881WAT      O92884   9.792   4.996   9.581
30881WAT     H192885   9.828   4.907   9.554
30881WAT     H292886   9.803   5.007   9.680
30882WAT      O92887   9.717   5.190   4.139
30882WAT     H192888   9.725   5.217   4.044
30882WAT     H292889   9.630   5.144   4.153
30883WAT      O92890   3.253   1.579   8.123
30883WAT     H192891   3.309   1.655   8.154
30883WAT     H292892   3.219   1.528   8.202
30884WAT      O92893   3.127   9.352   9.483
30884WAT     H192894   3.188   9.275   9.499
30884WAT     H292895   3.070   9.367   9.563
30885WAT      O92896   0.910   4.873   3.513
30885WAT     H192897   0.967   4.951   3.540
30885WAT     H292898   0.948   4.830   3.431
30886WAT      O92899   2.650   7.963   3.779
30886WAT     H192900   2.654   7.991   3.875
30886WAT     H292901   2.709   8.023   3.724
30887WAT      O92902   4.119   1.763   0.240
30887WAT     H192903   4.147   1.704   0.315
30887WAT     H292904   4.131   1.714   0.153
30888WAT      O92905   7.013   0.318   4.431
30888WAT     H192906   6.948   0.254   4.472
30888WAT     H292907   7.044   0.281   4.343
30889WAT      O92908   4.994   8.156   6.186
30889WAT     H192909   4.956   8.161   6.093
30889WAT     H292910   5.066   8.087   6.188
30890WAT      O92911   8.504   7.791   2.119
30890WAT     H192912   8.603   7.809   2.124
30890WAT     H292913   8.457   7.875   2.091
30891WAT      O92914   3.717   9.608   3.266
30891WAT     H192915   3.800   9.643   3.310
30891WAT     H292916   3.692   9.520   3.306
30892WAT      O92917   0.712   5.241   5.244
30892WAT     H192918   0.790   5.242   5.306
30892WAT     H292919   0.700   5.332   5.205
30893WAT      O92920   1.360   2.844   5.091
30893WAT     H192921   1.342   2.754   5.051
30893WAT     H292922   1.459   2.860   5.096
30894WAT      O92923   6.580   4.472   3.674
30894WAT     H192924   6.602   4.513   3.586
30894WAT     H292925   6.506   4.524   3.717
30895WAT      O92926   8.507   5.978   7.946
30895WAT     H192927   8.533   5.977   7.849
30895WAT     H292928   8.433   6.044   7.960
30896WAT      O92929   2.416   6.102   5.075
30896WAT     H192930   2.331   6.083   5.025
30896WAT     H292931   2.463   6.180   5.034
30897WAT      O92932   1.371   4.029   5.225
30897WAT     H192933   1.370   3.932   5.251
30897WAT     H292934   1.361   4.037   5.126
30898WAT      O92935   9.456   8.293   7.257
30898WAT     H192936   9.382   8.343   7.212
30898WAT     H292937   9.442   8.194   7.245
30899WAT      O92938   2.022   0.718   4.208
30899WAT     H192939   2.087   0.642   4.214
30899WAT     H292940   2.009   0.743   4.112
30900WAT      O92941   2.005   4.866   7.869
30900WAT     H192942   1.949   4.887   7.949
30900WAT     H292943   2.100   4.893   7.886
30901WAT      O92944   8.909   9.189   5.080
30901WAT     H192945   8.956   9.106   5.050
30901WAT     H292946   8.966   9.239   5.145
30902WAT      O92947   2.507   0.366   1.918
30902WAT     H192948   2.496   0.437   1.848
30902WAT     H292949   2.603   0.336   1.921
30903WAT      O92950   2.539   4.606   4.423
30903WAT     H192951   2.545   4.520   4.474
30903WAT     H292952   2.610   4.608   4.353
30904WAT      O92953   8.657   9.061   6.834
30904WAT     H192954   8.736   9.022   6.881
30904WAT     H292955   8.617   9.133   6.889
30905WAT      O92956   0.720   8.256   6.419
30905WAT     H192957   0.671   8.169   6.422
30905WAT     H292958   0.755   8.271   6.326
30906WAT      O92959   9.154   9.585   3.769
30906WAT     H192960   9.190   9.559   3.859
30906WAT     H292961   9.128   9.503   3.718
30907WAT      O92962   8.701   5.902   6.913
30907WAT     H192963   8.730   5.808   6.894
30907WAT     H292964   8.656   5.940   6.832
30908WAT      O92965   8.355   0.610   4.679
30908WAT     H192966   8.285   0.584   4.612
30908WAT     H292967   8.349   0.549   4.758
30909WAT      O92968   0.058   3.452   5.508
30909WAT     H192969   0.110   3.438   5.423
30909WAT     H292970   0.008   3.538   5.502
30910WAT      O92971   8.808   3.677   2.484
30910WAT     H192972   8.822   3.774   2.501
30910WAT     H292973   8.781   3.632   2.569
30911WAT      O92974   1.606   7.779   8.025
30911WAT     H192975   1.684   7.801   8.083
30911WAT     H292976   1.627   7.803   7.930
30912WAT      O92977   5.263   5.389   3.282
30912WAT     H192978   5.242   5.304   3.235
30912WAT     H292979   5.179   5.430   3.318
30913WAT      O92980   3.341   7.103   7.447
30913WAT     H192981   3.432   7.064   7.435
30913WAT     H292982   3.298   7.117   7.357
30914WAT      O92983   7.835   1.825   2.009
30914WAT     H192984   7.803   1.919   2.004
30914WAT     H292985   7.908   1.810   1.943
30915WAT      O92986   6.980   0.031   2.232
30915WAT     H192987   6.941   0.081   2.155
30915WAT     H292988   6.908  -0.018   2.281
30916WAT      O92989   3.110   0.799   8.768
30916WAT     H192990   3.016   0.779   8.740
30916WAT     H292991   3.143   0.724   8.825
30917WAT      O92992   3.905   0.823   7.180
30917WAT     H192993   3.823   0.873   7.151
30917WAT     H292994   3.976   0.832   7.111
30918WAT      O92995   3.538   0.662   0.467
30918WAT     H192996   3.604   0.737   0.466
30918WAT     H292997   3.526   0.629   0.561
30919WAT      O92998   7.043   4.140   1.253
30919WAT     H192999   6.961   4.100   1.212
30919WAT     H293000   7.116   4.072   1.256
30920WAT      O93001   5.031   1.881   0.016
30920WAT     H193002   5.027   1.782   0.003
30920WAT     H293003   4.950   1.923  -0.024
30921WAT      O93004   4.218   4.969   7.930
30921WAT     H193005   4.169   4.883   7.914
30921WAT     H293006   4.280   4.957   8.008
30922WAT      O93007   9.106   9.655   2.058
30922WAT     H193008   9.092   9.568   2.106
30922WAT     H293009   9.045   9.724   2.097
30923WAT      O93010   3.078   1.564   3.442
30923WAT     H193011   3.053   1.522   3.355
30923WAT     H293012   3.165   1.525   3.474
30924WAT      O93013   6.185   8.787   3.779
30924WAT     H193014   6.195   8.739   3.692
30924WAT     H293015   6.089   8.789   3.806
30925WAT      O93016   9.430   3.125   3.825
30925WAT     H193017   9.504   3.192   3.819
30925WAT     H293018   9.436   3.076   3.912
30926WAT      O93019   6.644   7.621   8.667
30926WAT     H193020   6.715   7.685   8.638
30926WAT     H293021   6.559   7.643   8.619
30927WAT      O93022   8.514   9.675   2.619
30927WAT     H193023   8.444   9.652   2.551
30927WAT     H293024   8.596   9.620   2.602
30928WAT      O93025   7.309   8.990   7.751
30928WAT     H193026   7.286   9.002   7.655
30928WAT     H293027   7.227   8.961   7.801
30929WAT      O93028   7.726   8.886   4.219
30929WAT     H193029   7.810   8.898   4.271
30929WAT     H293030   7.742   8.820   4.145
30930WAT      O93031   2.197   7.456   3.929
30930WAT     H193032   2.120   7.519   3.941
30930WAT     H293033   2.255   7.488   3.853
30931WAT      O93034   2.169   7.554   8.799
30931WAT     H193035   2.220   7.472   8.769
30931WAT     H293036   2.230   7.614   8.850
30932WAT      O93037   7.376   1.488   3.207
30932WAT     H193038   7.401   1.437   3.289
30932WAT     H293039   7.277   1.499   3.203
30933WAT      O93040   3.646   2.097   3.405
30933WAT     H193041   3.735   2.101   3.450
30933WAT     H293042   3.574   2.105   3.473
30934WAT      O93043   5.482   2.395   3.744
30934WAT     H193044   5.387   2.416   3.764
30934WAT     H293045   5.519   2.464   3.683
30935WAT      O93046   7.088   3.051   0.313
30935WAT     H193047   7.005   3.095   0.280
30935WAT     H293048   7.075   3.020   0.407
30936WAT      O93049   7.598   4.812   0.251
30936WAT     H193050   7.559   4.879   0.314
30936WAT     H293051   7.546   4.812   0.165
30937WAT      O93052   3.062   0.603   7.740
30937WAT     H193053   3.036   0.590   7.645
30937WAT     H293054   3.064   0.515   7.787
30938WAT      O93055   7.571   8.708   1.787
30938WAT     H193056   7.532   8.742   1.701
30938WAT     H293057   7.613   8.619   1.771
30939WAT      O93058   4.271   4.392   9.535
30939WAT     H193059   4.226   4.303   9.540
30939WAT     H293060   4.370   4.380   9.546
30940WAT      O93061   6.773   5.304   0.120
30940WAT     H193062   6.823   5.340   0.198
30940WAT     H293063   6.834   5.300   0.041
30941WAT      O93064   3.885   0.016   8.811
30941WAT     H193065   3.888  -0.063   8.872
30941WAT     H293066   3.799   0.016   8.760
30942WAT      O93067   6.962   1.096   8.835
30942WAT     H193068   6.862   1.098   8.832
30942WAT     H293069   6.999   1.101   8.743
30943WAT      O93070   8.218   6.187   1.115
30943WAT     H193071   8.159   6.112   1.085
30943WAT     H293072   8.293   6.199   1.051
30944WAT      O93073   0.664   8.520   4.484
30944WAT     H193074   0.732   8.566   4.541
30944WAT     H293075   0.704   8.499   4.395
30945WAT      O93076   3.980   8.285   6.625
30945WAT     H193077   3.972   8.237   6.712
30945WAT     H293078   3.912   8.249   6.561
30946WAT      O93079   9.238   2.312   3.586
30946WAT     H193080   9.333   2.282   3.570
30946WAT     H293081   9.176   2.250   3.539
30947WAT      O93082   1.851   6.997   1.865
30947WAT     H193083   1.832   7.081   1.916
30947WAT     H293084   1.832   7.012   1.768
30948WAT      O93085   0.310   2.521   0.152
30948WAT     H193086   0.379   2.593   0.140
30948WAT     H293087   0.219   2.562   0.144
30949WAT      O93088   4.859   7.452   3.233
30949WAT     H193089   4.792   7.382   3.258
30949WAT     H293090   4.819   7.543   3.246
30950WAT      O93091   5.980   1.995   9.778
30950WAT     H193092   5.912   1.988   9.705
30950WAT     H293093   6.072   1.987   9.739
30951WAT      O93094   2.653   5.066   7.210
30951WAT     H193095   2.603   5.063   7.123
30951WAT     H293096   2.642   5.156   7.252
30952WAT      O93097   1.564   0.287   0.236
30952WAT     H193098   1.576   0.385   0.220
30952WAT     H293099   1.647   0.250   0.277
30953WAT      O93100   4.655   0.645   6.736
30953WAT     H193101   4.652   0.730   6.683
30953WAT     H293102   4.597   0.655   6.817
30954WAT      O93103   4.770   5.927   4.330
30954WAT     H193104   4.756   5.878   4.415
30954WAT     H293105   4.762   6.026   4.346
30955WAT      O93106   8.029   9.158   1.271
30955WAT     H193107   8.064   9.065   1.282
30955WAT     H293108   8.039   9.186   1.175
30956WAT      O93109   9.238   3.642   2.162
30956WAT     H193110   9.173   3.613   2.233
30956WAT     H293111   9.328   3.653   2.202
30957WAT      O93112   3.894   7.040   9.881
30957WAT     H193113   3.978   7.091   9.899
30957WAT     H293114   3.868   7.050   9.785
30958WAT      O93115   1.145   1.321   3.478
30958WAT     H193116   1.115   1.409   3.443
30958WAT     H293117   1.138   1.252   3.406
30959WAT      O93118   8.180   6.368   2.930
30959WAT     H193119   8.090   6.391   2.969
30959WAT     H293120   8.247   6.363   3.004
30960WAT      O93121   3.397   7.284   8.414
30960WAT     H193122   3.344   7.223   8.355
30960WAT     H293123   3.489   7.297   8.375
30961WAT      O93124   8.770   3.656   4.915
30961WAT     H193125   8.704   3.580   4.920
30961WAT     H293126   8.846   3.638   4.978
30962WAT      O93127   4.633   5.226   9.441
30962WAT     H193128   4.574   5.306   9.449
30962WAT     H293129   4.718   5.252   9.396
30963WAT      O93130   1.707   9.687   5.488
30963WAT     H193131   1.795   9.663   5.447
30963WAT     H293132   1.708   9.784   5.512
30964WAT      O93133   7.051   7.255   6.299
30964WAT     H193134   7.140   7.246   6.256
30964WAT     H293135   7.062   7.266   6.397
30965WAT      O93136   3.055   1.597   9.783
30965WAT     H193137   3.099   1.650   9.856
30965WAT     H293138   3.117   1.524   9.754
30966WAT      O93139   0.166   6.196   9.123
30966WAT     H193140   0.107   6.276   9.129
30966WAT     H293141   0.207   6.191   9.031
30967WAT      O93142   3.901   8.986   0.609
30967WAT     H193143   3.936   8.897   0.639
30967WAT     H293144   3.977   9.043   0.578
30968WAT      O93145   2.014   3.760   6.933
30968WAT     H193146   2.059   3.735   6.848
30968WAT     H293147   2.081   3.759   7.008
30969WAT      O93148   0.066   6.807   7.940
30969WAT     H193149   0.002   6.843   7.871
30969WAT     H293150   0.158   6.843   7.922
30970WAT      O93151   7.741   9.061   5.019
30970WAT     H193152   7.839   9.044   5.019
30970WAT     H293153   7.724   9.159   5.020
30971WAT      O93154   0.444   8.529   5.777
30971WAT     H193155   0.346   8.536   5.799
30971WAT     H293156   0.461   8.572   5.689
30972WAT      O93157   9.632   8.335   2.874
30972WAT     H193158   9.632   8.258   2.810
30972WAT     H293159   9.573   8.314   2.952
30973WAT      O93160   5.463   5.944   1.061
30973WAT     H193161   5.403   5.872   1.029
30973WAT     H293162   5.535   5.960   0.994
30974WAT      O93163   6.490   8.313   1.353
30974WAT     H193164   6.472   8.260   1.436
30974WAT     H293165   6.433   8.396   1.353
30975WAT      O93166   9.676   3.374   0.872
30975WAT     H193167   9.583   3.410   0.873
30975WAT     H293168   9.738   3.441   0.831
30976WAT      O93169   9.279   8.371   4.619
30976WAT     H193170   9.293   8.425   4.702
30976WAT     H293171   9.336   8.289   4.623
30977WAT      O93172  -0.004   5.095   2.784
30977WAT     H193173   0.081   5.049   2.809
30977WAT     H293174   0.005   5.135   2.693
30978WAT      O93175   4.799   1.307   8.947
30978WAT     H193176   4.749   1.225   8.974
30978WAT     H293177   4.895   1.284   8.928
30979WAT      O93178   4.616   6.489   6.683
30979WAT     H193179   4.713   6.510   6.683
30979WAT     H293180   4.563   6.574   6.687
30980WAT      O93181   1.714   3.956   4.406
30980WAT     H193182   1.731   3.876   4.464
30980WAT     H293183   1.762   4.035   4.443
30981WAT      O93184   6.032   3.555   7.939
30981WAT     H193185   6.132   3.558   7.945
30981WAT     H293186   6.003   3.460   7.923
30982WAT      O93187   4.035   3.673   0.999
30982WAT     H193188   4.108   3.740   1.011
30982WAT     H293189   4.004   3.642   1.089
30983WAT      O93190   7.384   8.442   4.952
30983WAT     H193191   7.407   8.361   4.898
30983WAT     H293192   7.416   8.430   5.046
30984WAT      O93193   3.569   6.460   7.342
30984WAT     H193194   3.497   6.485   7.406
30984WAT     H293195   3.649   6.428   7.393
30985WAT      O93196   7.617   2.764   8.369
30985WAT     H193197   7.639   2.817   8.287
30985WAT     H293198   7.547   2.696   8.347
30986WAT      O93199   5.943   7.889   0.068
30986WAT     H193200   5.853   7.874   0.108
30986WAT     H293201   6.004   7.926   0.137
30987WAT      O93202   6.537   7.017   4.947
30987WAT     H193203   6.626   6.976   4.966
30987WAT     H293204   6.470   6.945   4.931
30988WAT      O93205   2.295   9.131   3.160
30988WAT     H193206   2.351   9.212   3.141
30988WAT     H293207   2.331   9.053   3.110
30989WAT      O93208   6.823   5.534   2.780
30989WAT     H193209   6.909   5.484   2.767
30989WAT     H293210   6.757   5.475   2.827
30990WAT      O93211   8.861   0.190   3.790
30990WAT     H193212   8.938   0.131   3.815
30990WAT     H293213   8.881   0.284   3.815
30991WAT      O93214   8.951   1.587   9.790
30991WAT     H193215   8.888   1.526   9.838
30991WAT     H293216   8.982   1.659   9.853
30992WAT      O93217   7.673   1.479   5.664
30992WAT     H193218   7.731   1.528   5.599
30992WAT     H293219   7.676   1.525   5.753
30993WAT      O93220   8.537   5.078   6.803
30993WAT     H193221   8.517   5.161   6.750
30993WAT     H293222   8.627   5.088   6.845
30994WAT      O93223   9.052   0.179   9.395
30994WAT     H193224   9.139   0.214   9.361
30994WAT     H293225   9.066   0.141   9.487
30995WAT      O93226   2.566   2.129   1.101
30995WAT     H193227   2.539   2.185   1.179
30995WAT     H293228   2.544   2.033   1.121
30996WAT      O93229   5.172   6.577   0.612
30996WAT     H193230   5.263   6.617   0.621
30996WAT     H293231   5.176   6.479   0.634
30997WAT      O93232   9.772   5.517   5.787
30997WAT     H193233   9.756   5.595   5.726
30997WAT     H293234   9.707   5.520   5.862
30998WAT      O93235   7.028   3.640   2.807
30998WAT     H193236   7.039   3.736   2.833
30998WAT     H293237   6.978   3.591   2.879
30999WAT      O93238   8.385   2.155   2.698
30999WAT     H193239   8.382   2.252   2.720
30999WAT     H293240   8.425   2.142   2.607
31000WAT      O93241   6.348   0.659   0.864
31000WAT     H193242   6.329   0.573   0.817
31000WAT     H293243   6.385   0.725   0.799
31001WAT      O93244   2.728   7.951   4.341
31001WAT     H193245   2.703   7.866   4.386
31001WAT     H293246   2.646   8.005   4.324
31002WAT      O93247   9.595   7.603   5.641
31002WAT     H193248   9.664   7.584   5.570
31002WAT     H293249   9.639   7.603   5.731
31003WAT      O93250   0.733   3.216   3.269
31003WAT     H193251   0.769   3.293   3.321
31003WAT     H293252   0.697   3.147   3.332
31004WAT      O93253   9.375   8.627   2.885
31004WAT     H193254   9.367   8.726   2.870
31004WAT     H293255   9.401   8.610   2.980
31005WAT      O93256   1.879   4.600   9.231
31005WAT     H193257   1.789   4.623   9.194
31005WAT     H293258   1.944   4.586   9.156
31006WAT      O93259   5.895   5.252   6.982
31006WAT     H193260   5.935   5.331   7.027
31006WAT     H293261   5.951   5.227   6.903
31007WAT      O93262   3.014   7.021   5.726
31007WAT     H193263   2.986   6.932   5.691
31007WAT     H293264   2.991   7.092   5.658
31008WAT      O93265   3.048   9.563   7.606
31008WAT     H193266   3.131   9.538   7.657
31008WAT     H293267   3.075   9.610   7.522
31009WAT      O93268   0.715   1.869   6.354
31009WAT     H193269   0.744   1.872   6.258
31009WAT     H293270   0.617   1.852   6.358
31010WAT      O93271   9.525   3.962   3.749
31010WAT     H193272   9.452   3.998   3.807
31010WAT     H293273   9.551   3.871   3.780
31011WAT      O93274   7.422   7.985   8.644
31011WAT     H193275   7.323   7.998   8.643
31011WAT     H293276   7.459   8.010   8.555
31012WAT      O93277   2.341   7.916   7.965
31012WAT     H193278   2.367   7.994   7.908
31012WAT     H293279   2.275   7.946   8.035
31013WAT      O93280   2.484   9.373   4.164
31013WAT     H193281   2.440   9.444   4.110
31013WAT     H293282   2.516   9.411   4.251
31014WAT      O93283   0.663   8.027   7.951
31014WAT     H193284   0.720   7.960   7.998
31014WAT     H293285   0.581   8.045   8.007
31015WAT      O93286   2.709   0.848   2.360
31015WAT     H193287   2.615   0.879   2.354
31015WAT     H293288   2.713   0.762   2.412
31016WAT      O93289   0.989   7.362   3.604
31016WAT     H193290   1.029   7.327   3.519
31016WAT     H293291   0.899   7.320   3.618
31017WAT      O93292   6.086   3.587   2.576
31017WAT     H193293   6.012   3.548   2.630
31017WAT     H293294   6.146   3.641   2.635
31018WAT      O93295   2.037   8.684   9.847
31018WAT     H193296   2.040   8.747   9.924
31018WAT     H293297   1.976   8.720   9.776
31019WAT      O93298   2.135   1.324   7.472
31019WAT     H193299   2.145   1.312   7.373
31019WAT     H293300   2.059   1.387   7.491
31020WAT      O93301   5.409   8.749   1.055
31020WAT     H193302   5.352   8.670   1.035
31020WAT     H293303   5.470   8.728   1.132
31021WAT      O93304   3.897   3.836   7.099
31021WAT     H193305   3.940   3.750   7.127
31021WAT     H293306   3.858   3.881   7.180
31022WAT      O93307   6.492   1.570   8.542
31022WAT     H193308   6.404   1.562   8.589
31022WAT     H293309   6.494   1.505   8.466
31023WAT      O93310   7.518   3.384   1.508
31023WAT     H193311   7.422   3.370   1.532
31023WAT     H293312   7.576   3.350   1.582
31024WAT      O93313   4.581   8.209   8.540
31024WAT     H193314   4.512   8.200   8.612
31024WAT     H293315   4.651   8.275   8.568
31025WAT      O93316   3.013   2.271   1.304
31025WAT     H193317   2.970   2.344   1.251
31025WAT     H293318   3.103   2.250   1.266
31026WAT      O93319   2.186   1.598   7.273
31026WAT     H193320   2.247   1.676   7.278
31026WAT     H293321   2.097   1.622   7.312
31027WAT      O93322   6.363   4.080   2.608
31027WAT     H193323   6.408   4.015   2.669
31027WAT     H293324   6.277   4.111   2.650
31028WAT      O93325   9.406   3.983   8.083
31028WAT     H193326   9.312   4.015   8.097
31028WAT     H293327   9.423   3.967   7.986
31029WAT      O93328   2.386   9.140   4.235
31029WAT     H193329   2.410   9.112   4.328
31029WAT     H293330   2.438   9.222   4.210
31030WAT      O93331   9.813   1.960   8.881
31030WAT     H193332   9.781   1.874   8.922
31030WAT     H293333   9.873   1.940   8.804
31031WAT      O93334   0.945   9.434   7.706
31031WAT     H193335   1.025   9.491   7.726
31031WAT     H293336   0.873   9.455   7.772
31032WAT      O93337   9.862   6.950   1.221
31032WAT     H193338   9.795   6.886   1.259
31032WAT     H293339   9.930   6.972   1.291
31033WAT      O93340   8.305   7.342   2.281
31033WAT     H193341   8.268   7.368   2.370
31033WAT     H293342   8.330   7.424   2.230
31034WAT      O93343   3.193   4.446   6.573
31034WAT     H193344   3.223   4.478   6.483
31034WAT     H293345   3.147   4.357   6.563
31035WAT      O93346   8.638   8.394   7.824
31035WAT     H193347   8.541   8.376   7.843
31035WAT     H293348   8.689   8.308   7.830
31036WAT      O93349   0.302   8.358   2.356
31036WAT     H193350   0.252   8.280   2.318
31036WAT     H293351   0.400   8.338   2.357
31037WAT      O93352   5.335   0.618   0.822
31037WAT     H193353   5.263   0.602   0.889
31037WAT     H293354   5.352   0.716   0.813
31038WAT      O93355   6.758   6.320   7.856
31038WAT     H193356   6.715   6.264   7.786
31038WAT     H293357   6.688   6.367   7.910
31039WAT      O93358   4.445   7.683   6.368
31039WAT     H193359   4.388   7.606   6.397
31039WAT     H293360   4.402   7.769   6.394
31040WAT      O93361   5.558   1.994   9.453
31040WAT     H193362   5.574   1.896   9.440
31040WAT     H293363   5.463   2.008   9.481
31041WAT      O93364   3.149   6.478   8.763
31041WAT     H193365   3.209   6.517   8.693
31041WAT     H293366   3.150   6.536   8.844
31042WAT      O93367   7.798   8.970   2.914
31042WAT     H193368   7.791   9.028   2.994
31042WAT     H293369   7.800   9.027   2.831
31043WAT      O93370   1.999   6.983   5.654
31043WAT     H193371   2.091   7.022   5.651
31043WAT     H293372   1.956   6.992   5.564
31044WAT      O93373   6.817   8.715   1.613
31044WAT     H193374   6.833   8.786   1.544
31044WAT     H293375   6.719   8.710   1.633
31045WAT      O93376   3.364   5.330   8.535
31045WAT     H193377   3.420   5.257   8.575
31045WAT     H293378   3.329   5.389   8.608
31046WAT      O93379   6.929   1.132   1.977
31046WAT     H193380   7.023   1.123   2.009
31046WAT     H293381   6.870   1.068   2.026
31047WAT      O93382   5.214   8.459   0.693
31047WAT     H193383   5.178   8.477   0.785
31047WAT     H293384   5.313   8.477   0.693
31048WAT      O93385   2.108   9.483   5.711
31048WAT     H193386   2.126   9.398   5.661
31048WAT     H293387   2.035   9.468   5.778
31049WAT      O93388   5.335   0.125   3.722
31049WAT     H193389   5.241   0.158   3.724
31049WAT     H293390   5.339   0.031   3.753
31050WAT      O93391   3.211   4.037   5.869
31050WAT     H193392   3.161   4.015   5.953
31050WAT     H293393   3.166   4.113   5.822
31051WAT      O93394   2.998   3.995   1.188
31051WAT     H193395   3.048   3.909   1.195
31051WAT     H293396   2.980   4.016   1.092
31052WAT      O93397   8.622   6.663   3.950
31052WAT     H193398   8.701   6.694   3.897
31052WAT     H293399   8.654   6.613   4.031
31053WAT      O93400   2.096   8.900   8.345
31053WAT     H193401   2.185   8.946   8.349
31053WAT     H293402   2.095   8.837   8.268
31054WAT      O93403   7.213   1.002   0.519
31054WAT     H193404   7.248   1.078   0.574
31054WAT     H293405   7.132   1.031   0.468
31055WAT      O93406   6.420   1.712   0.081
31055WAT     H193407   6.520   1.708   0.086
31055WAT     H293408   6.388   1.645   0.013
31056WAT      O93409   4.867   9.499   0.008
31056WAT     H193410   4.815   9.447  -0.059
31056WAT     H293411   4.820   9.584   0.029
31057WAT      O93412   7.740   1.637   8.499
31057WAT     H193413   7.761   1.726   8.540
31057WAT     H293414   7.651   1.605   8.531
31058WAT      O93415   5.323   4.217   2.630
31058WAT     H193416   5.373   4.138   2.595
31058WAT     H293417   5.225   4.203   2.616
31059WAT      O93418   3.724   2.499   2.514
31059WAT     H193419   3.704   2.420   2.571
31059WAT     H293420   3.723   2.582   2.571
31060WAT      O93421   2.176   2.136   8.816
31060WAT     H193422   2.269   2.162   8.842
31060WAT     H293423   2.111   2.198   8.860
31061WAT      O93424   5.406   3.404   5.254
31061WAT     H193425   5.506   3.408   5.247
31061WAT     H293426   5.365   3.453   5.177
31062WAT      O93427   3.591   7.305   1.238
31062WAT     H193428   3.636   7.318   1.327
31062WAT     H293429   3.642   7.237   1.185
31063WAT      O93430   7.853   2.057   7.116
31063WAT     H193431   7.801   2.082   7.199
31063WAT     H293432   7.874   1.959   7.119
31064WAT      O93433   3.805   4.377   9.742
31064WAT     H193434   3.834   4.408   9.651
31064WAT     H293435   3.837   4.441   9.811
31065WAT      O93436   6.710   6.019   3.710
31065WAT     H193437   6.706   6.119   3.716
31065WAT     H293438   6.617   5.982   3.705
31066WAT      O93439   2.949   5.071   0.774
31066WAT     H193440   3.026   5.035   0.827
31066WAT     H293441   2.983   5.113   0.690
31067WAT      O93442   9.493   1.905   3.968
31067WAT     H193443   9.423   1.851   4.014
31067WAT     H293444   9.579   1.854   3.967
31068WAT      O93445   2.509   6.309   0.073
31068WAT     H193446   2.537   6.286   0.166
31068WAT     H293447   2.491   6.407   0.067
31069WAT      O93448   0.215   1.224   6.569
31069WAT     H193449   0.207   1.131   6.605
31069WAT     H293450   0.127   1.271   6.575
31070WAT      O93451   0.866   3.804   0.115
31070WAT     H193452   0.831   3.829   0.205
31070WAT     H293453   0.957   3.844   0.102
31071WAT      O93454   1.893   3.606   6.574
31071WAT     H193455   1.821   3.658   6.620
31071WAT     H293456   1.974   3.602   6.632
31072WAT      O93457   2.493   5.273   6.500
31072WAT     H193458   2.558   5.220   6.555
31072WAT     H293459   2.401   5.238   6.513
31073WAT      O93460   4.126   5.967   8.629
31073WAT     H193461   4.138   6.017   8.715
31073WAT     H293462   4.095   5.874   8.649
31074WAT      O93463   9.237   2.434   2.268
31074WAT     H193464   9.186   2.445   2.353
31074WAT     H293465   9.175   2.442   2.190
31075WAT      O93466   6.896   0.893   4.511
31075WAT     H193467   6.933   0.806   4.479
31075WAT     H293468   6.854   0.942   4.435
31076WAT      O93469   7.029   1.026   2.604
31076WAT     H193470   7.067   1.097   2.663
31076WAT     H293471   7.002   0.948   2.660
31077WAT      O93472   3.082   7.809   1.730
31077WAT     H193473   3.128   7.730   1.771
31077WAT     H293474   2.985   7.787   1.717
31078WAT      O93475   1.470   9.451   5.239
31078WAT     H193476   1.392   9.513   5.228
31078WAT     H293477   1.555   9.502   5.226
31079WAT      O93478   8.617   8.988   3.446
31079WAT     H193479   8.559   9.012   3.368
31079WAT     H293480   8.636   9.069   3.500
31080WAT      O93481   0.102   8.825   0.154
31080WAT     H193482   0.048   8.742   0.169
31080WAT     H293483   0.090   8.855   0.059
31081WAT      O93484   8.891   1.416   6.614
31081WAT     H193485   8.897   1.444   6.518
31081WAT     H293486   8.975   1.441   6.661
31082WAT      O93487   5.151   6.900   3.075
31082WAT     H193488   5.074   6.926   3.133
31082WAT     H293489   5.120   6.893   2.980
31083WAT      O93490   5.276   9.687   7.200
31083WAT     H193491   5.248   9.751   7.271
31083WAT     H293492   5.286   9.736   7.113
31084WAT      O93493   4.291   3.565   8.983
31084WAT     H193494   4.366   3.631   8.983
31084WAT     H293495   4.276   3.531   8.890
31085WAT      O93496   8.636   8.979   9.529
31085WAT     H193497   8.598   9.059   9.574
31085WAT     H293498   8.702   8.934   9.591
31086WAT      O93499   1.730   4.262   4.215
31086WAT     H193500   1.815   4.301   4.182
31086WAT     H293501   1.741   4.232   4.309
31087WAT      O93502   8.024   6.265   3.602
31087WAT     H193503   7.948   6.321   3.635
31087WAT     H293504   8.107   6.288   3.653
31088WAT      O93505   8.504   9.397   6.280
31088WAT     H193506   8.514   9.364   6.374
31088WAT     H293507   8.578   9.359   6.224
31089WAT      O93508   5.143   3.356   6.697
31089WAT     H193509   5.163   3.353   6.599
31089WAT     H293510   5.211   3.301   6.746
31090WAT      O93511   8.874   5.503   9.081
31090WAT     H193512   8.796   5.441   9.080
31090WAT     H293513   8.853   5.583   9.025
31091WAT      O93514   1.061   5.798   0.580
31091WAT     H193515   0.967   5.793   0.612
31091WAT     H293516   1.116   5.849   0.646
31092WAT      O93517   1.290   1.324   4.287
31092WAT     H193518   1.214   1.338   4.223
31092WAT     H293519   1.255   1.296   4.376
31093WAT      O93520   3.638   3.680   9.758
31093WAT     H193521   3.578   3.738   9.812
31093WAT     H293522   3.706   3.637   9.817
31094WAT      O93523   3.032   5.849   7.695
31094WAT     H193524   3.068   5.819   7.783
31094WAT     H293525   2.960   5.916   7.710
31095WAT      O93526   9.521   6.028   5.051
31095WAT     H193527   9.478   5.938   5.051
31095WAT     H293528   9.567   6.042   5.139
31096WAT      O93529   7.485   0.591   3.981
31096WAT     H193530   7.507   0.664   3.917
31096WAT     H293531   7.474   0.628   4.073
31097WAT      O93532   0.507   8.187   4.866
31097WAT     H193533   0.583   8.125   4.884
31097WAT     H293534   0.452   8.151   4.791
31098WAT      O93535   6.544   7.650   8.943
31098WAT     H193536   6.466   7.685   8.892
31098WAT     H293537   6.627   7.657   8.887
31099WAT      O93538   5.178   9.577   2.019
31099WAT     H193539   5.232   9.645   1.970
31099WAT     H293540   5.170   9.494   1.964
31100WAT      O93541   5.704   1.800   5.785
31100WAT     H193542   5.634   1.787   5.856
31100WAT     H293543   5.752   1.886   5.801
31101WAT      O93544   7.942   1.103   1.010
31101WAT     H193545   7.844   1.082   1.002
31101WAT     H293546   7.979   1.058   1.091
31102WAT      O93547   6.686   1.152   9.368
31102WAT     H193548   6.638   1.138   9.281
31102WAT     H293549   6.619   1.174   9.439
31103WAT      O93550   3.712   2.555   0.833
31103WAT     H193551   3.762   2.492   0.893
31103WAT     H293552   3.661   2.503   0.765
31104WAT      O93553   4.843   8.119   3.617
31104WAT     H193554   4.921   8.089   3.673
31104WAT     H293555   4.789   8.186   3.668
31105WAT      O93556   8.465   3.587   9.039
31105WAT     H193557   8.519   3.627   8.965
31105WAT     H293558   8.490   3.492   9.052
31106WAT      O93559   2.705   9.377   9.202
31106WAT     H193560   2.796   9.342   9.222
31106WAT     H293561   2.657   9.314   9.142
31107WAT      O93562   3.309   5.005   5.997
31107WAT     H193563   3.265   5.095   5.999
31107WAT     H293564   3.245   4.937   5.963
31108WAT      O93565   5.612   4.037   2.544
31108WAT     H193566   5.590   4.134   2.550
31108WAT     H293567   5.682   4.014   2.610
31109WAT      O93568   9.404   2.255   2.410
31109WAT     H193569   9.343   2.284   2.336
31109WAT     H293570   9.348   2.219   2.485
31110WAT      O93571   7.176   6.738   1.351
31110WAT     H193572   7.232   6.658   1.370
31110WAT     H293573   7.222   6.820   1.386
31111WAT      O93574   3.050   7.025   6.165
31111WAT     H193575   3.107   6.945   6.149
31111WAT     H293576   2.975   7.026   6.099
31112WAT      O93577   9.389   4.633   3.929
31112WAT     H193578   9.400   4.533   3.929
31112WAT     H293579   9.311   4.659   3.872
31113WAT      O93580   9.733   2.355   3.993
31113WAT     H193581   9.677   2.279   3.960
31113WAT     H293582   9.810   2.319   4.046
31114WAT      O93583   6.916   5.295   9.800
31114WAT     H193584   6.909   5.196   9.790
31114WAT     H293585   6.986   5.330   9.738
31115WAT      O93586   0.987   5.918   2.833
31115WAT     H193587   1.083   5.928   2.807
31115WAT     H293588   0.978   5.842   2.897
31116WAT      O93589   3.331   8.335   7.980
31116WAT     H193590   3.375   8.424   7.990
31116WAT     H293591   3.304   8.320   7.885
31117WAT      O93592   3.351   3.292   7.430
31117WAT     H193593   3.387   3.211   7.383
31117WAT     H293594   3.330   3.364   7.364
31118WAT      O93595   9.367   8.335   1.089
31118WAT     H193596   9.385   8.253   1.035
31118WAT     H293597   9.272   8.333   1.121
31119WAT      O93598   3.542   4.626   4.997
31119WAT     H193599   3.513   4.563   5.069
31119WAT     H293600   3.641   4.626   4.990
31120WAT      O93601   1.505   0.182   4.956
31120WAT     H193602   1.586   0.237   4.974
31120WAT     H293603   1.533   0.093   4.919
31121WAT      O93604   9.006   5.441   7.702
31121WAT     H193605   9.045   5.497   7.629
31121WAT     H293606   8.978   5.352   7.665
31122WAT      O93607   8.530   2.299   3.477
31122WAT     H193608   8.560   2.361   3.549
31122WAT     H293609   8.440   2.261   3.501
31123WAT      O93610   0.224   7.731   6.660
31123WAT     H193611   0.208   7.779   6.574
31123WAT     H293612   0.257   7.796   6.729
31124WAT      O93613   9.356   1.901   1.969
31124WAT     H193614   9.336   1.805   1.953
31124WAT     H293615   9.323   1.956   1.892
31125WAT      O93616   6.626   4.553   3.414
31125WAT     H193617   6.712   4.510   3.383
31125WAT     H293618   6.556   4.540   3.344
31126WAT      O93619   0.406   5.338   9.312
31126WAT     H193620   0.480   5.288   9.358
31126WAT     H293621   0.324   5.335   9.370
31127WAT      O93622   0.152   9.017   0.352
31127WAT     H193623   0.184   9.106   0.320
31127WAT     H293624   0.111   8.967   0.276
31128WAT      O93625   0.486   4.010   1.986
31128WAT     H193626   0.565   4.061   1.951
31128WAT     H293627   0.429   3.981   1.910
31129WAT      O93628   0.789   3.907   2.500
31129WAT     H193629   0.690   3.896   2.487
31129WAT     H293630   0.836   3.830   2.457
31130WAT      O93631   3.894   6.877   6.744
31130WAT     H193632   3.952   6.954   6.718
31130WAT     H293633   3.846   6.843   6.664
31131WAT      O93634   1.158   3.274   8.076
31131WAT     H193635   1.164   3.198   8.141
31131WAT     H293636   1.250   3.307   8.055
31132WAT      O93637   0.489   5.658   5.226
31132WAT     H193638   0.550   5.580   5.216
31132WAT     H293639   0.412   5.648   5.162
31133WAT      O93640   1.690   9.702   2.992
31133WAT     H193641   1.600   9.743   3.007
31133WAT     H293642   1.726   9.731   2.903
31134WAT      O93643   7.728   5.812   8.780
31134WAT     H193644   7.730   5.718   8.744
31134WAT     H293645   7.700   5.875   8.707
31135WAT      O93646   7.281   8.075   3.657
31135WAT     H193647   7.202   8.072   3.717
31135WAT     H293648   7.278   8.158   3.602
31136WAT      O93649   2.034   8.118   4.156
31136WAT     H193650   2.081   8.193   4.110
31136WAT     H293651   2.042   8.129   4.255
31137WAT      O93652   1.882   1.066   6.968
31137WAT     H193653   1.804   1.015   6.933
31137WAT     H293654   1.960   1.005   6.978
31138WAT      O93655   4.649   8.773   7.381
31138WAT     H193656   4.652   8.814   7.473
31138WAT     H293657   4.583   8.698   7.380
31139WAT      O93658   9.162   4.300   8.937
31139WAT     H193659   9.169   4.298   9.037
31139WAT     H293660   9.138   4.209   8.903
31140WAT      O93661   7.670   9.577   9.600
31140WAT     H193662   7.638   9.569   9.694
31140WAT     H293663   7.596   9.612   9.542
31141WAT      O93664   4.830   8.048   2.154
31141WAT     H193665   4.763   8.062   2.227
31141WAT     H293666   4.798   8.092   2.070
31142WAT      O93667   7.225   2.265   9.202
31142WAT     H193668   7.301   2.243   9.263
31142WAT     H293669   7.215   2.192   9.134
31143WAT      O93670   8.582   2.248   4.196
31143WAT     H193671   8.543   2.336   4.222
31143WAT     H293672   8.639   2.213   4.271
31144WAT      O93673   4.559   3.621   6.667
31144WAT     H193674   4.523   3.532   6.640
31144WAT     H293675   4.594   3.616   6.760
31145WAT      O93676   9.785   8.957   4.927
31145WAT     H193677   9.834   9.037   4.893
31145WAT     H293678   9.805   8.878   4.869
31146WAT      O93679   9.395   4.639   2.973
31146WAT     H193680   9.454   4.589   3.036
31146WAT     H293681   9.414   4.611   2.879
31147WAT      O93682   5.601   7.816   5.958
31147WAT     H193683   5.630   7.890   5.897
31147WAT     H293684   5.608   7.729   5.909
31148WAT      O93685   8.995   1.356   4.753
31148WAT     H193686   8.994   1.312   4.663
31148WAT     H293687   9.084   1.399   4.768
31149WAT      O93688   1.029   2.088   9.453
31149WAT     H193689   1.076   2.155   9.511
31149WAT     H293690   1.044   1.996   9.489
31150WAT      O93691   0.677   5.692   9.052
31150WAT     H193692   0.767   5.729   9.028
31150WAT     H293693   0.684   5.594   9.068
31151WAT      O93694   5.194   0.834   7.730
31151WAT     H193695   5.115   0.897   7.732
31151WAT     H293696   5.184   0.771   7.653
31152WAT      O93697   2.079   4.356   8.535
31152WAT     H193698   2.089   4.395   8.443
31152WAT     H293699   2.063   4.258   8.528
31153WAT      O93700   3.921   0.576   4.263
31153WAT     H193701   3.847   0.609   4.322
31153WAT     H293702   3.969   0.653   4.222
31154WAT      O93703   9.012   1.833   1.630
31154WAT     H193704   9.088   1.898   1.621
31154WAT     H293705   9.047   1.740   1.615
31155WAT      O93706   1.881   3.516   1.647
31155WAT     H193707   1.869   3.485   1.553
31155WAT     H293708   1.901   3.437   1.706
31156WAT      O93709   8.885   9.264   9.303
31156WAT     H193710   8.806   9.206   9.282
31156WAT     H293711   8.934   9.226   9.381
31157WAT      O93712   3.428   6.121   3.136
31157WAT     H193713   3.489   6.050   3.099
31157WAT     H293714   3.431   6.202   3.077
31158WAT      O93715   4.296   0.597   7.108
31158WAT     H193716   4.294   0.515   7.165
31158WAT     H293717   4.209   0.605   7.059
31159WAT      O93718   4.491   6.406   9.834
31159WAT     H193719   4.539   6.447   9.912
31159WAT     H293720   4.396   6.436   9.836
31160WAT      O93721   6.089   0.246   7.491
31160WAT     H193722   6.065   0.320   7.553
31160WAT     H293723   6.178   0.264   7.450
31161WAT      O93724   3.953   9.630   7.677
31161WAT     H193725   4.051   9.641   7.657
31161WAT     H293726   3.942   9.567   7.753
31162WAT      O93727   0.135   1.556   9.344
31162WAT     H193728   0.201   1.483   9.357
31162WAT     H293729   0.047   1.517   9.316
31163WAT      O93730   9.089   2.707   1.738
31163WAT     H193731   9.004   2.658   1.719
31163WAT     H293732   9.112   2.766   1.660
31164WAT      O93733   4.241   4.945   5.380
31164WAT     H193734   4.192   4.876   5.435
31164WAT     H293735   4.333   4.955   5.416
31165WAT      O93736   0.141   6.320   3.480
31165WAT     H193737   0.154   6.333   3.382
31165WAT     H293738   0.160   6.406   3.527
31166WAT      O93739   3.751   6.455   7.133
31166WAT     H193740   3.784   6.361   7.130
31166WAT     H293741   3.701   6.469   7.219
31167WAT      O93742   6.216   0.907   9.703
31167WAT     H193743   6.268   0.866   9.628
31167WAT     H293744   6.236   1.005   9.708
31168WAT      O93745   0.749   9.401   0.860
31168WAT     H193746   0.808   9.349   0.799
31168WAT     H293747   0.659   9.413   0.818
31169WAT      O93748   0.641   4.053   5.169
31169WAT     H193749   0.665   4.147   5.144
31169WAT     H293750   0.599   4.007   5.090
31170WAT      O93751   5.921   1.257   4.626
31170WAT     H193752   5.904   1.173   4.678
31170WAT     H293753   6.016   1.285   4.638
31171WAT      O93754   0.059   8.164   2.337
31171WAT     H193755  -0.006   8.115   2.395
31171WAT     H293756   0.011   8.228   2.279
31172WAT      O93757   5.451   4.684   2.511
31172WAT     H193758   5.507   4.766   2.497
31172WAT     H293759   5.478   4.613   2.446
31173WAT      O93760   8.461   0.261   9.727
31173WAT     H193761   8.531   0.297   9.789
31173WAT     H293762   8.499   0.255   9.634
31174WAT      O93763   8.905   1.930   2.039
31174WAT     H193764   8.950   2.010   2.078
31174WAT     H293765   8.808   1.949   2.027
31175WAT      O93766   7.384   3.476   9.085
31175WAT     H193767   7.417   3.463   9.178
31175WAT     H293768   7.286   3.459   9.081
31176WAT      O93769   0.199   9.775   3.406
31176WAT     H193770   0.202   9.729   3.495
31176WAT     H293771   0.191   9.874   3.420
31177WAT      O93772   2.205   9.281   8.444
31177WAT     H193773   2.216   9.260   8.541
31177WAT     H293774   2.114   9.252   8.414
31178WAT      O93775   8.312   7.650   7.843
31178WAT     H193776   8.382   7.720   7.827
31178WAT     H293777   8.279   7.615   7.755
31179WAT      O93778   6.080   1.874   1.700
31179WAT     H193779   5.986   1.847   1.678
31179WAT     H293780   6.086   1.974   1.706
31180WAT      O93781   9.731   3.068   8.984
31180WAT     H193782   9.752   3.091   9.079
31180WAT     H293783   9.792   2.994   8.954
31181WAT      O93784   7.763   2.621   6.403
31181WAT     H193785   7.785   2.653   6.495
31181WAT     H293786   7.797   2.687   6.336
31182WAT      O93787   9.492   0.269   4.046
31182WAT     H193788   9.527   0.184   4.006
31182WAT     H293789   9.396   0.281   4.018
31183WAT      O93790   3.775   6.665   4.840
31183WAT     H193791   3.742   6.743   4.894
31183WAT     H293792   3.734   6.669   4.748
31184WAT      O93793   5.530   8.104   2.835
31184WAT     H193794   5.593   8.036   2.872
31184WAT     H293795   5.442   8.060   2.816
31185WAT      O93796   7.457   4.072   8.139
31185WAT     H193797   7.396   4.014   8.192
31185WAT     H293798   7.487   4.023   8.057
31186WAT      O93799   2.877   0.869   7.153
31186WAT     H193800   2.910   0.918   7.072
31186WAT     H293801   2.955   0.844   7.211
31187WAT      O93802   7.117   2.226   3.801
31187WAT     H193803   7.102   2.146   3.858
31187WAT     H293804   7.170   2.294   3.852
31188WAT      O93805   3.448   4.603   1.199
31188WAT     H193806   3.412   4.617   1.107
31188WAT     H293807   3.459   4.692   1.244
31189WAT      O93808   6.031   2.555   8.206
31189WAT     H193809   6.004   2.581   8.114
31189WAT     H293810   5.996   2.463   8.227
31190WAT      O93811   3.755   2.488   6.925
31190WAT     H193812   3.672   2.439   6.952
31190WAT     H293813   3.781   2.460   6.832
31191WAT      O93814   1.960   9.135   8.402
31191WAT     H193815   1.951   9.160   8.499
31191WAT     H293816   2.002   9.045   8.395
31192WAT      O93817   5.904   7.291   4.767
31192WAT     H193818   5.894   7.313   4.865
31192WAT     H293819   5.929   7.374   4.717
31193WAT      O93820   5.009   8.728   4.745
31193WAT     H193821   4.945   8.772   4.808
31193WAT     H293822   5.087   8.789   4.729
31194WAT      O93823   8.024   9.377   0.265
31194WAT     H193824   8.025   9.278   0.281
31194WAT     H293825   7.969   9.421   0.336
31195WAT      O93826   5.088   8.005   7.165
31195WAT     H193827   5.085   8.061   7.083
31195WAT     H293828   5.103   8.063   7.245
31196WAT      O93829   7.372   8.486   8.164
31196WAT     H193830   7.333   8.519   8.249
31196WAT     H293831   7.330   8.398   8.140
31197WAT      O93832   8.473   8.137   3.530
31197WAT     H193833   8.570   8.123   3.510
31197WAT     H293834   8.458   8.127   3.629
31198WAT      O93835   0.923   2.368   9.542
31198WAT     H193836   0.985   2.334   9.613
31198WAT     H293837   0.977   2.397   9.463
31199WAT      O93838   8.817   4.155   2.489
31199WAT     H193839   8.729   4.200   2.474
31199WAT     H293840   8.881   4.220   2.528
31200WAT      O93841   1.875   7.545   6.335
31200WAT     H193842   1.963   7.500   6.344
31200WAT     H293843   1.885   7.643   6.355
31201WAT      O93844   5.283   1.120   3.756
31201WAT     H193845   5.336   1.203   3.770
31201WAT     H293846   5.296   1.086   3.663
31202WAT      O93847   6.412   3.288   3.886
31202WAT     H193848   6.399   3.374   3.935
31202WAT     H293849   6.473   3.304   3.808
31203WAT      O93850   3.931   7.345   9.778
31203WAT     H193851   3.943   7.357   9.680
31203WAT     H293852   4.005   7.288   9.814
31204WAT      O93853   8.481   1.604   1.254
31204WAT     H193854   8.503   1.510   1.282
31204WAT     H293855   8.435   1.651   1.329
31205WAT      O93856   0.619   6.169   7.417
31205WAT     H193857   0.548   6.127   7.360
31205WAT     H293858   0.672   6.233   7.361
31206WAT      O93859   0.475   8.029   2.497
31206WAT     H193860   0.532   7.948   2.484
31206WAT     H293861   0.438   8.029   2.590
31207WAT      O93862   1.711   8.733   0.020
31207WAT     H193863   1.653   8.815   0.011
31207WAT     H293864   1.786   8.753   0.083
31208WAT      O93865   9.217   8.820   6.411
31208WAT     H193866   9.190   8.895   6.351
31208WAT     H293867   9.264   8.857   6.491
31209WAT      O93868   2.980   8.641   4.266
31209WAT     H193869   2.918   8.626   4.189
31209WAT     H293870   3.066   8.592   4.251
31210WAT      O93871   6.950   4.447   2.295
31210WAT     H193872   6.873   4.385   2.307
31210WAT     H293873   6.984   4.440   2.201
31211WAT      O93874   8.191   1.795   8.889
31211WAT     H193875   8.106   1.820   8.936
31211WAT     H293876   8.211   1.698   8.904
31212WAT      O93877   4.077   7.854   5.728
31212WAT     H193878   4.144   7.917   5.692
31212WAT     H293879   4.029   7.896   5.805
31213WAT      O93880   5.147   1.267   8.553
31213WAT     H193881   5.203   1.200   8.505
31213WAT     H293882   5.190   1.290   8.641
31214WAT      O93883   9.631   1.503   1.953
31214WAT     H193884   9.636   1.549   2.041
31214WAT     H293885   9.723   1.482   1.920
31215WAT      O93886   2.405   5.278   7.483
31215WAT     H193887   2.383   5.265   7.386
31215WAT     H293888   2.463   5.359   7.493
31216WAT      O93889   1.504   1.057   2.752
31216WAT     H193890   1.552   0.977   2.718
31216WAT     H293891   1.564   1.109   2.813
31217WAT      O93892   3.617   5.642   5.809
31217WAT     H193893   3.643   5.710   5.879
31217WAT     H293894   3.519   5.625   5.813
31218WAT      O93895   6.480   3.176   7.657
31218WAT     H193896   6.397   3.230   7.659
31218WAT     H293897   6.498   3.144   7.564
31219WAT      O93898   0.836   6.674   9.875
31219WAT     H193899   0.781   6.617   9.814
31219WAT     H293900   0.779   6.708   9.949
31220WAT      O93901   3.866   4.088   1.147
31220WAT     H193902   3.918   4.092   1.061
31220WAT     H293903   3.768   4.076   1.126
31221WAT      O93904   3.127   2.386   9.729
31221WAT     H193905   3.158   2.418   9.639
31221WAT     H293906   3.031   2.361   9.724
31222WAT      O93907   1.096   1.930   0.220
31222WAT     H193908   1.013   1.984   0.214
31222WAT     H293909   1.073   1.835   0.239
31223WAT      O93910   1.943   2.926   5.360
31223WAT     H193911   2.037   2.926   5.327
31223WAT     H293912   1.941   2.954   5.456
31224WAT      O93913   1.834   9.555   9.731
31224WAT     H193914   1.757   9.585   9.787
31224WAT     H293915   1.899   9.630   9.721
31225WAT      O93916   7.443   2.194   9.370
31225WAT     H193917   7.425   2.168   9.465
31225WAT     H293918   7.491   2.120   9.323
31226WAT      O93919   5.347   9.548   6.347
31226WAT     H193920   5.359   9.502   6.259
31226WAT     H293921   5.386   9.492   6.420
31227WAT      O93922   4.472   3.816   1.139
31227WAT     H193923   4.487   3.865   1.225
31227WAT     H293924   4.524   3.859   1.066
31228WAT      O93925   2.090   8.914   0.505
31228WAT     H193926   2.010   8.972   0.492
31228WAT     H293927   2.124   8.884   0.416
31229WAT      O93928   1.258   7.321   3.903
31229WAT     H193929   1.258   7.296   3.806
31229WAT     H293930   1.163   7.327   3.935
31230WAT      O93931   5.684   6.013   4.065
31230WAT     H193932   5.691   6.100   4.016
31230WAT     H293933   5.774   5.987   4.099
31231WAT      O93934   1.024   2.612   7.682
31231WAT     H193935   1.014   2.648   7.775
31231WAT     H293936   0.935   2.608   7.638
31232WAT      O93937   4.132   1.370   4.574
31232WAT     H193938   4.123   1.289   4.632
31232WAT     H293939   4.205   1.355   4.507
31233WAT      O93940   3.038   9.006   4.874
31233WAT     H193941   3.065   8.916   4.906
31233WAT     H293942   3.116   9.050   4.829
31234WAT      O93943   9.710   8.871   0.010
31234WAT     H193944   9.703   8.786   0.062
31234WAT     H293945   9.652   8.865  -0.071
31235WAT      O93946   2.349   0.851   5.457
31235WAT     H193947   2.316   0.946   5.454
31235WAT     H293948   2.279   0.791   5.418
31236WAT      O93949   2.585   7.577   2.499
31236WAT     H193950   2.539   7.535   2.578
31236WAT     H293951   2.537   7.550   2.415
31237WAT      O93952   1.452   3.137   3.781
31237WAT     H193953   1.359   3.122   3.746
31237WAT     H293954   1.454   3.113   3.878
31238WAT      O93955   8.859   0.148   5.019
31238WAT     H193956   8.807   0.228   5.048
31238WAT     H293957   8.806   0.096   4.952
31239WAT      O93958   3.923   1.224   4.378
31239WAT     H193959   4.009   1.197   4.420
31239WAT     H293960   3.886   1.303   4.426
31240WAT      O93961   9.533   0.654   3.888
31240WAT     H193962   9.558   0.587   3.958
31240WAT     H293963   9.438   0.640   3.861
31241WAT      O93964   3.040   6.362   3.880
31241WAT     H193965   2.969   6.416   3.925
31241WAT     H293966   3.106   6.330   3.948
31242WAT      O93967   8.140   8.154   6.303
31242WAT     H193968   8.159   8.067   6.258
31242WAT     H293969   8.135   8.226   6.234
31243WAT      O93970   2.957   2.203   2.496
31243WAT     H193971   3.023   2.157   2.557
31243WAT     H293972   2.878   2.143   2.481
31244WAT      O93973   6.281   1.117   2.664
31244WAT     H193974   6.214   1.088   2.596
31244WAT     H293975   6.348   1.178   2.622
31245WAT      O93976   7.157   5.200   1.859
31245WAT     H193977   7.096   5.134   1.814
31245WAT     H293978   7.251   5.183   1.830
31246WAT      O93979   3.813   0.696   9.124
31246WAT     H193980   3.880   0.653   9.064
31246WAT     H293981   3.721   0.677   9.089
31247WAT      O93982   5.909   9.266   0.262
31247WAT     H193983   5.901   9.185   0.204
31247WAT     H293984   5.904   9.239   0.358
31248WAT      O93985   7.476   2.847   1.641
31248WAT     H193986   7.498   2.760   1.596
31248WAT     H293987   7.437   2.829   1.731
31249WAT      O93988   8.677   2.164   6.224
31249WAT     H193989   8.624   2.244   6.251
31249WAT     H293990   8.699   2.110   6.305
31250WAT      O93991   1.116   8.319   8.254
31250WAT     H193992   1.035   8.262   8.238
31250WAT     H293993   1.184   8.300   8.183
31251WAT      O93994   8.401   6.584   6.319
31251WAT     H193995   8.309   6.624   6.317
31251WAT     H293996   8.394   6.484   6.320
31252WAT      O93997   7.476   4.557   3.797
31252WAT     H193998   7.474   4.469   3.749
31252WAT     H293999   7.395   4.565   3.856
31253WAT      O94000   7.882   3.946   3.785
31253WAT     H194001   7.965   3.987   3.747
31253WAT     H294002   7.812   3.941   3.714
31254WAT      O94003   9.190   7.434   8.441
31254WAT     H194004   9.247   7.373   8.496
31254WAT     H294005   9.205   7.529   8.470
31255WAT      O94006   4.716   0.217   7.351
31255WAT     H194007   4.665   0.298   7.381
31255WAT     H294008   4.664   0.135   7.375
31256WAT      O94009   4.304   9.637   0.747
31256WAT     H194010   4.259   9.640   0.659
31256WAT     H294011   4.259   9.700   0.810
31257WAT      O94012   1.609   8.509   6.383
31257WAT     H194013   1.621   8.566   6.302
31257WAT     H294014   1.531   8.543   6.437
31258WAT      O94015   7.831   2.993   6.834
31258WAT     H194016   7.754   3.011   6.896
31258WAT     H294017   7.797   2.986   6.740
31259WAT      O94018   7.636   5.745   6.374
31259WAT     H194019   7.648   5.647   6.357
31259WAT     H294020   7.545   5.761   6.412
31260WAT      O94021   6.433   1.487   9.796
31260WAT     H194022   6.344   1.459   9.762
31260WAT     H294023   6.478   1.543   9.726
31261WAT      O94024   7.110   7.680   9.109
31261WAT     H194025   7.201   7.687   9.149
31261WAT     H294026   7.048   7.639   9.176
31262WAT      O94027   4.610   8.866   5.676
31262WAT     H194028   4.605   8.783   5.622
31262WAT     H294029   4.663   8.935   5.626
31263WAT      O94030   9.129   7.050   3.081
31263WAT     H194031   9.141   7.079   2.986
31263WAT     H294032   9.217   7.024   3.119
31264WAT      O94033   6.868   6.930   8.995
31264WAT     H194034   6.857   7.029   9.006
31264WAT     H294035   6.873   6.887   9.085
31265WAT      O94036   0.863   0.663   5.786
31265WAT     H194037   0.945   0.698   5.740
31265WAT     H294038   0.786   0.665   5.722
31266WAT      O94039   3.807   7.927   3.154
31266WAT     H194040   3.805   7.876   3.068
31266WAT     H294041   3.830   8.023   3.136
31267WAT      O94042   2.034   0.660   0.453
31267WAT     H194043   2.104   0.622   0.392
31267WAT     H294044   1.981   0.585   0.494
31268WAT      O94045   9.558   0.945   0.094
31268WAT     H194046   9.624   1.007   0.052
31268WAT     H294047   9.465   0.976   0.074
31269WAT      O94048   9.233   4.804   5.860
31269WAT     H194049   9.151   4.746   5.866
31269WAT     H294050   9.301   4.759   5.803
31270WAT      O94051   4.903   6.523   8.495
31270WAT     H194052   4.890   6.440   8.549
31270WAT     H294053   4.817   6.574   8.491
31271WAT      O94054   2.734   7.611   8.417
31271WAT     H194055   2.727   7.567   8.328
31271WAT     H294056   2.831   7.626   8.439
31272WAT      O94057   7.984   3.032   8.267
31272WAT     H194058   8.053   3.066   8.331
31272WAT     H294059   7.939   2.951   8.306
31273WAT      O94060   2.810   2.735   5.378
31273WAT     H194061   2.728   2.770   5.333
31273WAT     H294062   2.878   2.807   5.386
31274WAT      O94063   9.151   7.380   8.903
31274WAT     H194064   9.058   7.344   8.898
31274WAT     H294065   9.203   7.326   8.969
31275WAT      O94066   7.539   1.010   3.565
31275WAT     H194067   7.482   0.964   3.497
31275WAT     H294068   7.486   1.026   3.649
31276WAT      O94069   1.861   0.110   0.234
31276WAT     H194070   1.940   0.164   0.204
31276WAT     H294071   1.801   0.094   0.156
31277WAT      O94072   9.587   2.823   3.956
31277WAT     H194073   9.606   2.728   3.931
31277WAT     H294074   9.616   2.883   3.882
31278WAT      O94075   6.443   4.257   1.700
31278WAT     H194076   6.519   4.250   1.635
31278WAT     H294077   6.444   4.178   1.761
31279WAT      O94078   9.887   7.731   3.586
31279WAT     H194079   9.823   7.674   3.535
31279WAT     H294080   9.838   7.777   3.660
31280WAT      O94081   7.127   1.453   8.911
31280WAT     H194082   7.081   1.466   8.999
31280WAT     H294083   7.105   1.529   8.850
31281WAT      O94084   4.396   0.304   0.452
31281WAT     H194085   4.354   0.246   0.382
31281WAT     H294086   4.364   0.275   0.543
31282WAT      O94087   0.870   6.527   4.548
31282WAT     H194088   0.947   6.478   4.508
31282WAT     H294089   0.877   6.624   4.526
31283WAT      O94090   0.454   8.495   9.490
31283WAT     H194091   0.416   8.552   9.418
31283WAT     H294092   0.550   8.520   9.504
31284WAT      O94093   6.236   5.196   4.641
31284WAT     H194094   6.193   5.279   4.606
31284WAT     H294095   6.186   5.116   4.606
31285WAT      O94096   5.558   5.964   4.304
31285WAT     H194097   5.588   5.991   4.212
31285WAT     H294098   5.490   5.891   4.296
31286WAT      O94099   0.673   2.126   5.691
31286WAT     H194100   0.606   2.055   5.713
31286WAT     H294101   0.664   2.153   5.596
31287WAT      O94102   7.236   9.719   9.009
31287WAT     H194103   7.305   9.703   9.080
31287WAT     H294104   7.172   9.789   9.041
31288WAT      O94105   1.006   3.961   3.751
31288WAT     H194106   1.016   3.896   3.826
31288WAT     H294107   0.999   4.054   3.788
31289WAT      O94108   3.331   4.280   4.433
31289WAT     H194109   3.296   4.373   4.425
31289WAT     H294110   3.262   4.216   4.399
31290WAT      O94111   8.652   7.136   3.249
31290WAT     H194112   8.706   7.206   3.203
31290WAT     H294113   8.561   7.130   3.207
31291WAT      O94114   8.818   5.016   1.306
31291WAT     H194115   8.853   5.031   1.399
31291WAT     H294116   8.890   4.978   1.248
31292WAT      O94117   0.529   9.803   8.780
31292WAT     H194118   0.608   9.741   8.788
31292WAT     H294119   0.531   9.846   8.690
31293WAT      O94120   8.728   6.472   5.382
31293WAT     H194121   8.632   6.447   5.366
31293WAT     H294122   8.788   6.406   5.338
31294WAT      O94123   4.804   0.370   4.583
31294WAT     H194124   4.747   0.368   4.501
31294WAT     H294125   4.748   0.350   4.663
31295WAT      O94126   5.289   5.243   7.419
31295WAT     H194127   5.324   5.303   7.491
31295WAT     H294128   5.275   5.296   7.336
31296WAT      O94129   4.199   0.872   6.522
31296WAT     H194130   4.251   0.787   6.526
31296WAT     H294131   4.177   0.893   6.427
31297WAT      O94132   2.581   2.417   4.194
31297WAT     H194133   2.650   2.471   4.243
31297WAT     H294134   2.513   2.479   4.155
31298WAT      O94135   8.567   1.869   3.255
31298WAT     H194136   8.470   1.845   3.265
31298WAT     H294137   8.576   1.968   3.245
31299WAT      O94138   7.470   6.022   6.423
31299WAT     H194139   7.401   6.081   6.463
31299WAT     H294140   7.439   5.927   6.425
31300WAT      O94141   5.929   6.422   3.324
31300WAT     H194142   5.903   6.477   3.244
31300WAT     H294143   5.847   6.387   3.368
31301WAT      O94144   6.182   8.690   0.706
31301WAT     H194145   6.155   8.645   0.621
31301WAT     H294146   6.275   8.727   0.695
31302WAT      O94147   8.190   7.493   4.354
31302WAT     H194148   8.119   7.492   4.425
31302WAT     H294149   8.186   7.579   4.304
31303WAT      O94150   8.580   4.260   0.824
31303WAT     H194151   8.636   4.299   0.896
31303WAT     H294152   8.499   4.317   0.810
31304WAT      O94153   8.313   1.605   7.147
31304WAT     H194154   8.259   1.534   7.191
31304WAT     H294155   8.410   1.594   7.172
31305WAT      O94156   2.375   8.582   5.606
31305WAT     H194157   2.454   8.561   5.548
31305WAT     H294158   2.292   8.545   5.563
31306WAT      O94159   4.370   5.212   6.248
31306WAT     H194160   4.452   5.205   6.304
31306WAT     H294161   4.301   5.267   6.295
31307WAT      O94162   5.540   7.576   1.811
31307WAT     H194163   5.518   7.668   1.846
31307WAT     H294164   5.482   7.509   1.857
31308WAT      O94165   1.032   7.689   0.186
31308WAT     H194166   0.998   7.596   0.168
31308WAT     H294167   1.124   7.684   0.224
31309WAT      O94168   1.183   3.555   1.369
31309WAT     H194169   1.210   3.635   1.423
31309WAT     H294170   1.243   3.478   1.391
31310WAT      O94171   0.840   4.329   4.239
31310WAT     H194172   0.928   4.288   4.218
31310WAT     H294173   0.841   4.426   4.213
31311WAT      O94174   8.901   7.717   8.846
31311WAT     H194175   8.872   7.739   8.939
31311WAT     H294176   8.992   7.675   8.849
31312WAT      O94177   8.094   1.921   8.060
31312WAT     H194178   8.110   2.009   8.104
31312WAT     H294179   8.152   1.913   7.979
31313WAT      O94180   9.487   0.459   2.814
31313WAT     H194181   9.580   0.490   2.834
31313WAT     H294182   9.474   0.366   2.848
31314WAT      O94183   8.825   3.348   6.372
31314WAT     H194184   8.767   3.414   6.419
31314WAT     H294185   8.910   3.392   6.345
31315WAT      O94186   9.852   3.096   2.069
31315WAT     H194187   9.840   3.020   2.133
31315WAT     H294188   9.891   3.174   2.118
31316WAT      O94189   5.496   6.369   1.499
31316WAT     H194190   5.509   6.450   1.556
31316WAT     H294191   5.403   6.369   1.462
31317WAT      O94192   7.694   0.285   4.525
31317WAT     H194193   7.667   0.268   4.431
31317WAT     H294194   7.635   0.356   4.564
31318WAT      O94195   4.804   8.048   7.072
31318WAT     H194196   4.766   8.052   6.980
31318WAT     H294197   4.879   7.981   7.075
31319WAT      O94198   4.517   5.579   0.783
31319WAT     H194199   4.607   5.539   0.767
31319WAT     H294200   4.520   5.638   0.864
31320WAT      O94201   1.217   7.280   8.827
31320WAT     H194202   1.176   7.239   8.746
31320WAT     H294203   1.147   7.326   8.881
31321WAT      O94204   2.203   6.659   0.028
31321WAT     H194205   2.195   6.690  -0.067
31321WAT     H294206   2.298   6.633   0.046
31322WAT      O94207   1.209   1.280   4.541
31322WAT     H194208   1.175   1.210   4.604
31322WAT     H294209   1.263   1.347   4.592
31323WAT      O94210   3.533   8.181   5.829
31323WAT     H194211   3.502   8.124   5.905
31323WAT     H294212   3.521   8.278   5.852
31324WAT      O94213   7.584   6.317   5.406
31324WAT     H194214   7.633   6.281   5.326
31324WAT     H294215   7.631   6.398   5.440
31325WAT      O94216   3.661   8.812   1.100
31325WAT     H194217   3.682   8.798   1.003
31325WAT     H294218   3.734   8.771   1.155
31326WAT      O94219   1.379   9.054   2.583
31326WAT     H194220   1.312   9.122   2.553
31326WAT     H294221   1.460   9.058   2.525
31327WAT      O94222   5.072   3.419   1.403
31327WAT     H194223   5.073   3.349   1.331
31327WAT     H294224   5.106   3.379   1.488
31328WAT      O94225   5.463   1.030   0.591
31328WAT     H194226   5.428   1.025   0.497
31328WAT     H294227   5.400   1.084   0.647
31329WAT      O94228   3.547   4.123   7.979
31329WAT     H194229   3.624   4.183   7.957
31329WAT     H294230   3.547   4.105   8.078
31330WAT      O94231   4.874   3.172   9.249
31330WAT     H194232   4.946   3.159   9.316
31330WAT     H294233   4.819   3.089   9.241
31331WAT      O94234   4.102   3.955   2.207
31331WAT     H194235   4.109   3.939   2.306
31331WAT     H294236   4.069   4.048   2.192
31332WAT      O94237   5.333   5.223   0.881
31332WAT     H194238   5.288   5.304   0.919
31332WAT     H294239   5.327   5.226   0.781
31333WAT      O94240   0.452   5.535   0.025
31333WAT     H194241   0.419   5.613   0.078
31333WAT     H294242   0.543   5.556  -0.012
31334WAT      O94243   5.752   0.336   7.933
31334WAT     H194244   5.709   0.406   7.875
31334WAT     H294245   5.690   0.258   7.942
31335WAT      O94246   5.491   6.215   4.805
31335WAT     H194247   5.538   6.161   4.875
31335WAT     H294248   5.538   6.303   4.794
31336WAT      O94249   0.504   3.825   0.608
31336WAT     H194250   0.495   3.726   0.618
31336WAT     H294251   0.421   3.870   0.643
31337WAT      O94252   8.644   1.368   0.314
31337WAT     H194253   8.669   1.465   0.310
31337WAT     H294254   8.596   1.350   0.401
31338WAT      O94255   4.055   5.127   0.488
31338WAT     H194256   3.971   5.095   0.532
31338WAT     H294257   4.134   5.093   0.538
31339WAT      O94258   7.081   7.446   6.806
31339WAT     H194259   7.037   7.450   6.895
31339WAT     H294260   7.099   7.539   6.773
31340WAT      O94261   4.964   1.787   4.149
31340WAT     H194262   4.989   1.880   4.178
31340WAT     H294263   4.961   1.783   4.049
31341WAT      O94264   6.190   5.880   1.409
31341WAT     H194265   6.289   5.889   1.418
31341WAT     H294266   6.145   5.962   1.444
31342WAT      O94267   5.621   8.023   2.146
31342WAT     H194268   5.573   7.939   2.120
31342WAT     H294269   5.615   8.036   2.245
31343WAT      O94270   0.920   5.991   9.529
31343WAT     H194271   0.951   5.906   9.572
31343WAT     H294272   0.879   6.050   9.598
31344WAT      O94273   9.351   4.179   2.135
31344WAT     H194274   9.423   4.246   2.121
31344WAT     H294275   9.384   4.088   2.109
31345WAT      O94276   3.016   1.940   4.260
31345WAT     H194277   3.005   1.840   4.257
31345WAT     H294278   3.018   1.975   4.166
31346WAT      O94279   2.596   2.559   3.564
31346WAT     H194280   2.629   2.566   3.470
31346WAT     H294281   2.570   2.465   3.583
31347WAT      O94282   9.422   3.754   8.247
31347WAT     H194283   9.398   3.829   8.185
31347WAT     H294284   9.445   3.673   8.193
31348WAT      O94285   6.602   0.209   3.798
31348WAT     H194286   6.588   0.307   3.784
31348WAT     H294287   6.649   0.194   3.886
31349WAT      O94288   4.910   5.440   7.539
31349WAT     H194289   4.997   5.458   7.586
31349WAT     H294290   4.928   5.398   7.450
31350WAT      O94291   8.305   5.037   5.565
31350WAT     H194292   8.324   5.109   5.631
31350WAT     H294293   8.376   4.966   5.572
31351WAT      O94294   6.518   4.770   4.486
31351WAT     H194295   6.441   4.809   4.536
31351WAT     H294296   6.488   4.687   4.438
31352WAT      O94297   8.012   6.762   8.647
31352WAT     H194298   8.071   6.683   8.630
31352WAT     H294299   8.063   6.846   8.633
31353WAT      O94300   7.874   0.597   7.660
31353WAT     H194301   7.832   0.688   7.652
31353WAT     H294302   7.967   0.601   7.623
31354WAT      O94303   2.961   0.470   4.043
31354WAT     H194304   2.882   0.473   4.105
31354WAT     H294305   2.929   0.449   3.951
31355WAT      O94306   8.827   8.461   1.332
31355WAT     H194307   8.924   8.449   1.353
31355WAT     H294308   8.793   8.541   1.381
31356WAT      O94309   4.973   8.695   1.827
31356WAT     H194310   5.018   8.693   1.738
31356WAT     H294311   4.881   8.732   1.817
31357WAT      O94312   7.617   0.808   1.840
31357WAT     H194313   7.591   0.876   1.908
31357WAT     H294314   7.622   0.717   1.882
31358WAT      O94315   6.142   0.348   9.051
31358WAT     H194316   6.221   0.372   8.995
31358WAT     H294317   6.076   0.423   9.049
31359WAT      O94318   4.706   1.919   6.425
31359WAT     H194319   4.699   1.884   6.518
31359WAT     H294320   4.716   1.843   6.361
31360WAT      O94321   0.500   6.654   1.671
31360WAT     H194322   0.595   6.622   1.666
31360WAT     H294323   0.444   6.584   1.716
31361WAT      O94324   1.475   8.970   2.022
31361WAT     H194325   1.426   8.937   1.941
31361WAT     H294326   1.545   9.036   1.993
31362WAT      O94327   8.795   5.755   0.551
31362WAT     H194328   8.785   5.855   0.553
31362WAT     H294329   8.740   5.718   0.476
31363WAT      O94330   6.070   3.868   8.637
31363WAT     H194331   6.149   3.820   8.675
31363WAT     H294332   5.992   3.856   8.698
31364WAT      O94333   8.854   6.389   9.696
31364WAT     H194334   8.757   6.407   9.684
31364WAT     H294335   8.901   6.395   9.608
31365WAT      O94336   3.393   3.792   5.136
31365WAT     H194337   3.301   3.776   5.172
31365WAT     H294338   3.453   3.820   5.211
31366WAT      O94339   9.030   9.157   7.446
31366WAT     H194340   8.943   9.134   7.490
31366WAT     H294341   9.105   9.119   7.499
31367WAT      O94342   7.283   6.557   5.309
31367WAT     H194343   7.186   6.534   5.305
31367WAT     H294344   7.296   6.635   5.371
31368WAT      O94345   5.814   1.426   2.824
31368WAT     H194346   5.775   1.451   2.736
31368WAT     H294347   5.862   1.339   2.817
31369WAT      O94348   0.110   3.463   4.141
31369WAT     H194349   0.156   3.377   4.166
31369WAT     H294350   0.049   3.447   4.064
31370WAT      O94351   2.146   3.519   6.007
31370WAT     H194352   2.106   3.513   5.915
31370WAT     H294353   2.085   3.571   6.067
31371WAT      O94354   3.577   8.722   6.442
31371WAT     H194355   3.563   8.729   6.343
31371WAT     H294356   3.510   8.779   6.490
31372WAT      O94357   0.041   5.317   7.474
31372WAT     H194358   0.072   5.304   7.568
31372WAT     H294359   0.056   5.413   7.447
31373WAT      O94360   3.904   2.860   7.086
31373WAT     H194361   3.855   2.844   7.000
31373WAT     H294362   3.873   2.946   7.126
31374WAT      O94363   5.592   5.950   8.287
31374WAT     H194364   5.539   6.032   8.269
31374WAT     H294365   5.535   5.883   8.335
31375WAT      O94366   9.200   9.603   8.770
31375WAT     H194367   9.169   9.683   8.821
31375WAT     H294368   9.290   9.574   8.805
31376WAT      O94369   2.527   2.131   9.420
31376WAT     H194370   2.518   2.032   9.428
31376WAT     H294371   2.451   2.176   9.468
31377WAT      O94372   6.260   5.979   8.038
31377WAT     H194373   6.171   6.003   8.075
31377WAT     H294374   6.264   6.004   7.941
31378WAT      O94375   9.786   6.829   9.612
31378WAT     H194376   9.695   6.846   9.649
31378WAT     H294377   9.841   6.913   9.617
31379WAT      O94378   0.499   8.513   4.108
31379WAT     H194379   0.552   8.593   4.135
31379WAT     H294380   0.531   8.480   4.019
31380WAT      O94381   2.266   8.873   6.835
31380WAT     H194382   2.305   8.860   6.926
31380WAT     H294383   2.167   8.877   6.840
31381WAT      O94384   6.400   2.929   1.117
31381WAT     H194385   6.424   2.954   1.211
31381WAT     H294386   6.326   2.862   1.119
31382WAT      O94387   3.093   4.424   1.304
31382WAT     H194388   3.114   4.507   1.354
31382WAT     H294389   3.174   4.365   1.301
31383WAT      O94390   2.713   1.511   5.691
31383WAT     H194391   2.776   1.488   5.765
31383WAT     H294392   2.720   1.442   5.619
31384WAT      O94393   6.132   5.611   9.700
31384WAT     H194394   6.075   5.665   9.762
31384WAT     H294395   6.101   5.516   9.702
31385WAT      O94396   1.616   0.872   2.968
31385WAT     H194397   1.662   0.960   2.983
31385WAT     H294398   1.626   0.844   2.873
31386WAT      O94399   3.446   5.645   0.558
31386WAT     H194400   3.526   5.706   0.561
31386WAT     H294401   3.444   5.599   0.469
31387WAT      O94402   8.077   2.078   1.689
31387WAT     H194403   8.159   2.136   1.692
31387WAT     H294404   8.048   2.067   1.594
31388WAT      O94405   1.722   5.505   4.504
31388WAT     H194406   1.721   5.463   4.595
31388WAT     H294407   1.628   5.521   4.473
31389WAT      O94408   5.863   1.213   9.791
31389WAT     H194409   5.858   1.197   9.693
31389WAT     H294410   5.956   1.192   9.824
31390WAT      O94411   1.713   9.189   5.899
31390WAT     H194412   1.713   9.160   5.994
31390WAT     H294413   1.620   9.189   5.863
31391WAT      O94414   3.745   7.171   8.663
31391WAT     H194415   3.649   7.195   8.648
31391WAT     H294416   3.773   7.100   8.598
31392WAT      O94417   8.681   6.899   2.690
31392WAT     H194418   8.697   6.929   2.784
31392WAT     H294419   8.630   6.969   2.641
31393WAT      O94420   8.684   2.051   0.072
31393WAT     H194421   8.680   1.951   0.062
31393WAT     H294422   8.591   2.088   0.066
31394WAT      O94423   8.290   3.467   7.057
31394WAT     H194424   8.202   3.447   7.098
31394WAT     H294425   8.300   3.416   6.972
31395WAT      O94426   3.894   3.386   6.817
31395WAT     H194427   3.875   3.440   6.735
31395WAT     H294428   3.936   3.300   6.791
31396WAT      O94429   5.757   2.326   0.388
31396WAT     H194430   5.769   2.341   0.289
31396WAT     H294431   5.665   2.354   0.415
31397WAT      O94432   5.586   9.173   6.692
31397WAT     H194433   5.625   9.208   6.607
31397WAT     H294434   5.624   9.221   6.770
31398WAT      O94435   3.543   8.136   9.076
31398WAT     H194436   3.511   8.124   8.983
31398WAT     H294437   3.596   8.056   9.104
31399WAT      O94438   1.203   0.209   8.532
31399WAT     H194439   1.216   0.112   8.550
31399WAT     H294440   1.224   0.262   8.614
31400WAT      O94441   8.094   2.960   4.216
31400WAT     H194442   8.182   2.970   4.169
31400WAT     H294443   8.039   3.043   4.201
31401WAT      O94444   3.354   2.293   0.919
31401WAT     H194445   3.338   2.268   1.015
31401WAT     H294446   3.275   2.343   0.884
31402WAT      O94447   1.017   0.744   5.066
31402WAT     H194448   0.929   0.792   5.071
31402WAT     H294449   1.028   0.705   4.974
31403WAT      O94450   8.905   5.625   8.842
31403WAT     H194451   8.866   5.712   8.813
31403WAT     H294452   8.864   5.550   8.790
31404WAT      O94453   5.903   7.388   5.026
31404WAT     H194454   5.829   7.328   5.056
31404WAT     H294455   5.963   7.407   5.103
31405WAT      O94456   2.927   3.399   4.319
31405WAT     H194457   2.952   3.488   4.358
31405WAT     H294458   2.828   3.397   4.301
31406WAT      O94459   8.052   6.955   3.893
31406WAT     H194460   7.974   6.893   3.895
31406WAT     H294461   8.135   6.904   3.917
31407WAT      O94462   5.685   6.352   3.442
31407WAT     H194463   5.649   6.310   3.359
31407WAT     H294464   5.647   6.443   3.453
31408WAT      O94465   3.117   9.685   7.373
31408WAT     H194466   3.149   9.607   7.319
31408WAT     H294467   3.037   9.726   7.327
31409WAT      O94468   8.172   8.921   7.526
31409WAT     H194469   8.086   8.875   7.547
31409WAT     H294470   8.246   8.877   7.576
31410WAT      O94471   6.463   6.241   6.642
31410WAT     H194472   6.371   6.242   6.680
31410WAT     H294473   6.464   6.187   6.558
31411WAT      O94474   1.830   4.896   2.265
31411WAT     H194475   1.742   4.852   2.284
31411WAT     H294476   1.817   4.968   2.197
31412WAT      O94477   0.457   1.038   6.787
31412WAT     H194478   0.455   0.946   6.825
31412WAT     H294479   0.533   1.045   6.721
31413WAT      O94480   1.966   8.513   7.224
31413WAT     H194481   2.027   8.453   7.275
31413WAT     H294482   1.934   8.586   7.284
31414WAT      O94483   5.836   0.476   5.326
31414WAT     H194484   5.778   0.461   5.245
31414WAT     H294485   5.930   0.494   5.297
31415WAT      O94486   7.627   9.355   4.031
31415WAT     H194487   7.580   9.283   4.082
31415WAT     H294488   7.585   9.444   4.051
31416WAT      O94489   4.245   8.216   9.587
31416WAT     H194490   4.164   8.275   9.586
31416WAT     H294491   4.326   8.270   9.562
31417WAT      O94492   4.346   6.718   4.131
31417WAT     H194493   4.350   6.626   4.171
31417WAT     H294494   4.396   6.782   4.189
31418WAT      O94495   7.918   5.769   7.721
31418WAT     H194496   7.938   5.686   7.774
31418WAT     H294497   7.849   5.748   7.652
31419WAT      O94498   4.327   9.214   7.165
31419WAT     H194499   4.240   9.165   7.174
31419WAT     H294500   4.336   9.278   7.241
31420WAT      O94501   3.276   7.774   3.888
31420WAT     H194502   3.258   7.873   3.896
31420WAT     H294503   3.302   7.752   3.795
31421WAT      O94504   5.195   9.467   3.563
31421WAT     H194505   5.149   9.408   3.497
31421WAT     H294506   5.162   9.561   3.554
31422WAT      O94507   8.441   2.217   4.694
31422WAT     H194508   8.417   2.297   4.639
31422WAT     H294509   8.540   2.200   4.687
31423WAT      O94510   5.630   2.264   9.081
31423WAT     H194511   5.661   2.353   9.048
31423WAT     H294512   5.681   2.191   9.035
31424WAT      O94513   2.295   4.756   3.717
31424WAT     H194514   2.310   4.786   3.623
31424WAT     H294515   2.302   4.834   3.779
31425WAT      O94516   3.010   5.686   7.482
31425WAT     H194517   2.998   5.741   7.564
31425WAT     H294518   2.955   5.724   7.408
31426WAT      O94519   7.556   6.912   8.875
31426WAT     H194520   7.603   6.926   8.788
31426WAT     H294521   7.566   6.817   8.903
31427WAT      O94522   7.105   2.173   1.869
31427WAT     H194523   7.015   2.202   1.838
31427WAT     H294524   7.159   2.253   1.896
31428WAT      O94525   5.722   3.000   3.408
31428WAT     H194526   5.819   3.019   3.420
31428WAT     H294527   5.710   2.913   3.360
31429WAT      O94528   9.189   2.550   9.204
31429WAT     H194529   9.229   2.545   9.112
31429WAT     H294530   9.144   2.464   9.225
31430WAT      O94531   6.248   3.028   9.728
31430WAT     H194532   6.206   2.956   9.672
31430WAT     H294533   6.177   3.089   9.762
31431WAT      O94534   3.361   5.974   0.631
31431WAT     H194535   3.297   6.002   0.559
31431WAT     H294536   3.433   6.043   0.640
31432WAT      O94537   8.840   5.110   0.772
31432WAT     H194538   8.841   5.179   0.700
31432WAT     H294539   8.747   5.097   0.805
31433WAT      O94540   4.186   8.335   1.937
31433WAT     H194541   4.188   8.235   1.932
31433WAT     H294542   4.097   8.365   1.972
31434WAT      O94543   8.492   2.488   4.279
31434WAT     H194544   8.417   2.525   4.225
31434WAT     H294545   8.570   2.550   4.275
31435WAT      O94546   9.231   3.338   0.967
31435WAT     H194547   9.146   3.355   1.018
31435WAT     H294548   9.297   3.293   1.027
31436WAT      O94549   7.908   0.089   8.852
31436WAT     H194550   7.954   0.046   8.775
31436WAT     H294551   7.870   0.178   8.823
31437WAT      O94552   2.653   2.828   6.216
31437WAT     H194553   2.688   2.784   6.299
31437WAT     H294554   2.611   2.916   6.241
31438WAT      O94555   5.463   1.471   0.705
31438WAT     H194556   5.511   1.397   0.658
31438WAT     H294557   5.509   1.558   0.685
31439WAT      O94558   9.670   0.171   3.408
31439WAT     H194559   9.688   0.196   3.313
31439WAT     H294560   9.617   0.243   3.452
31440WAT      O94561   9.859   3.794   7.331
31440WAT     H194562   9.816   3.723   7.387
31440WAT     H294563   9.856   3.882   7.380
31441WAT      O94564   6.644   3.626   2.900
31441WAT     H194565   6.713   3.587   2.961
31441WAT     H294566   6.679   3.628   2.807
31442WAT      O94567   6.872   5.232   7.497
31442WAT     H194568   6.866   5.301   7.570
31442WAT     H294569   6.800   5.249   7.430
31443WAT      O94570   2.565   7.266   4.962
31443WAT     H194571   2.544   7.198   4.892
31443WAT     H294572   2.660   7.256   4.991
31444WAT      O94573   1.098   2.446   4.039
31444WAT     H194574   1.131   2.488   4.124
31444WAT     H294575   0.998   2.444   4.039
31445WAT      O94576   5.897   4.195   8.873
31445WAT     H194577   5.885   4.097   8.854
31445WAT     H294578   5.977   4.207   8.932
31446WAT      O94579   4.406   3.324   2.539
31446WAT     H194580   4.448   3.240   2.505
31446WAT     H294581   4.477   3.392   2.558
31447WAT      O94582   6.498   3.564   8.627
31447WAT     H194583   6.595   3.580   8.643
31447WAT     H294584   6.463   3.499   8.693
31448WAT      O94585   3.505   0.192   3.132
31448WAT     H194586   3.406   0.205   3.125
31448WAT     H294587   3.529   0.102   3.096
31449WAT      O94588   9.060   0.418   1.285
31449WAT     H194589   9.048   0.375   1.196
31449WAT     H294590   8.977   0.407   1.339
31450WAT      O94591   4.179   1.857   8.421
31450WAT     H194592   4.204   1.946   8.385
31450WAT     H294593   4.079   1.849   8.425
31451WAT      O94594   4.004   5.758   7.497
31451WAT     H194595   3.996   5.857   7.498
31451WAT     H294596   4.056   5.729   7.416
31452WAT      O94597   4.179   7.250   6.804
31452WAT     H194598   4.245   7.185   6.841
31452WAT     H294599   4.224   7.338   6.787
31453WAT      O94600   9.838   8.599   1.102
31453WAT     H194601   9.913   8.567   1.160
31453WAT     H294602   9.851   8.565   1.009
31454WAT      O94603   9.773   2.650   6.692
31454WAT     H194604   9.712   2.726   6.716
31454WAT     H294605   9.737   2.604   6.611
31455WAT      O94606   0.511   1.329   9.844
31455WAT     H194607   0.521   1.411   9.787
31455WAT     H294608   0.575   1.258   9.813
31456WAT      O94609   6.898   1.658   7.569
31456WAT     H194610   6.956   1.651   7.488
31456WAT     H294611   6.826   1.588   7.564
31457WAT      O94612   8.890   1.056   3.558
31457WAT     H194613   8.822   0.997   3.601
31457WAT     H294614   8.846   1.140   3.527
31458WAT      O94615   2.168   1.658   2.439
31458WAT     H194616   2.140   1.581   2.382
31458WAT     H294617   2.168   1.742   2.384
31459WAT      O94618   5.108   0.916   9.655
31459WAT     H194619   5.194   0.875   9.624
31459WAT     H294620   5.060   0.955   9.576
31460WAT      O94621   7.693   4.808   3.449
31460WAT     H194622   7.719   4.885   3.508
31460WAT     H294623   7.648   4.738   3.504
31461WAT      O94624   8.619   8.233   9.279
31461WAT     H194625   8.527   8.271   9.264
31461WAT     H294626   8.625   8.195   9.371
31462WAT      O94627   2.727   4.945   4.375
31462WAT     H194628   2.771   4.874   4.320
31462WAT     H294629   2.685   4.904   4.456
31463WAT      O94630   4.320   4.122   8.997
31463WAT     H194631   4.397   4.141   8.936
31463WAT     H294632   4.354   4.094   9.087
31464WAT      O94633   9.212   3.267   4.420
31464WAT     H194634   9.208   3.261   4.320
31464WAT     H294635   9.190   3.178   4.460
31465WAT      O94636   2.356   1.332   9.851
31465WAT     H194637   2.343   1.242   9.810
31465WAT     H294638   2.381   1.398   9.780
31466WAT      O94639   7.914   7.676   2.389
31466WAT     H194640   7.963   7.679   2.477
31466WAT     H294641   7.879   7.584   2.374
31467WAT      O94642   0.266   2.649   6.368
31467WAT     H194643   0.274   2.682   6.462
31467WAT     H294644   0.357   2.640   6.328
31468WAT      O94645   0.166   4.245   0.315
31468WAT     H194646   0.163   4.328   0.369
31468WAT     H294647   0.257   4.204   0.322
31469WAT      O94648   6.570   8.932   9.338
31469WAT     H194649   6.565   8.926   9.438
31469WAT     H294650   6.662   8.907   9.308
31470WAT      O94651   4.883   7.966   9.358
31470WAT     H194652   4.801   8.017   9.332
31470WAT     H294653   4.879   7.944   9.455
31471WAT      O94654   2.337   8.970   8.601
31471WAT     H194655   2.338   8.976   8.501
31471WAT     H294656   2.343   8.874   8.629
31472WAT      O94657   8.570   5.812   3.227
31472WAT     H194658   8.470   5.810   3.229
31472WAT     H294659   8.606   5.739   3.284
31473WAT      O94660   8.063   0.652   5.571
31473WAT     H194661   8.076   0.558   5.539
31473WAT     H294662   7.986   0.694   5.522
31474WAT      O94663   7.909   4.272   9.339
31474WAT     H194664   7.893   4.298   9.434
31474WAT     H294665   7.890   4.174   9.328
31475WAT      O94666   4.322   0.047   1.536
31475WAT     H194667   4.249   0.111   1.515
31475WAT     H294668   4.286  -0.025   1.596
31476WAT      O94669   2.808   5.474   7.753
31476WAT     H194670   2.862   5.412   7.696
31476WAT     H294671   2.738   5.422   7.802
31477WAT      O94672   1.148   0.747   2.742
31477WAT     H194673   1.070   0.798   2.707
31477WAT     H294674   1.193   0.800   2.814
31478WAT      O94675   0.910   7.177   6.568
31478WAT     H194676   0.847   7.221   6.632
31478WAT     H294677   0.996   7.228   6.566
31479WAT      O94678   0.858   9.474   2.031
31479WAT     H194679   0.948   9.516   2.040
31479WAT     H294680   0.863   9.398   1.966
31480WAT      O94681   9.302   4.008   5.232
31480WAT     H194682   9.229   4.000   5.300
31480WAT     H294683   9.390   3.989   5.275
31481WAT      O94684   7.106   6.407   4.202
31481WAT     H194685   7.021   6.386   4.154
31481WAT     H294686   7.147   6.322   4.236
31482WAT      O94687   8.691   6.105   2.075
31482WAT     H194688   8.620   6.142   2.135
31482WAT     H294689   8.714   6.172   2.005
31483WAT      O94690   1.783   8.713   7.766
31483WAT     H194691   1.701   8.760   7.799
31483WAT     H294692   1.787   8.719   7.666
31484WAT      O94693   3.967   4.922   0.888
31484WAT     H194694   3.938   4.979   0.812
31484WAT     H294695   3.926   4.955   0.973
31485WAT      O94696   0.126   7.976   0.169
31485WAT     H194697   0.180   7.943   0.246
31485WAT     H294698   0.098   7.899   0.112
31486WAT      O94699   6.980   4.542   5.968
31486WAT     H194700   6.912   4.553   5.895
31486WAT     H294701   6.992   4.445   5.988
31487WAT      O94702   4.512   2.791   2.691
31487WAT     H194703   4.591   2.773   2.749
31487WAT     H294704   4.470   2.705   2.664
31488WAT      O94705   4.071   7.593   2.950
31488WAT     H194706   4.089   7.619   3.045
31488WAT     H294707   4.149   7.620   2.893
31489WAT      O94708   9.799   7.961   6.910
31489WAT     H194709   9.784   8.047   6.861
31489WAT     H294710   9.888   7.923   6.885
31490WAT      O94711   4.804   8.329   9.697
31490WAT     H194712   4.720   8.356   9.649
31490WAT     H294713   4.787   8.243   9.746
31491WAT      O94714   1.458   4.626   7.805
31491WAT     H194715   1.476   4.562   7.880
31491WAT     H294716   1.360   4.646   7.803
31492WAT      O94717   5.053   4.351   8.544
31492WAT     H194718   5.101   4.426   8.590
31492WAT     H294719   5.109   4.268   8.549
31493WAT      O94720   5.784   2.840   1.273
31493WAT     H194721   5.815   2.866   1.365
31493WAT     H294722   5.730   2.915   1.234
31494WAT      O94723   5.399   8.490   3.246
31494WAT     H194724   5.326   8.421   3.243
31494WAT     H294725   5.458   8.471   3.324
31495WAT      O94726   2.445   6.571   3.444
31495WAT     H194727   2.377   6.637   3.474
31495WAT     H294728   2.493   6.534   3.523
31496WAT      O94729   7.246   3.957   9.719
31496WAT     H194730   7.202   3.876   9.757
31496WAT     H294731   7.337   3.968   9.759
31497WAT      O94732   7.625   6.431   7.680
31497WAT     H194733   7.554   6.424   7.750
31497WAT     H294734   7.583   6.439   7.590
31498WAT      O94735   4.180   3.764   8.555
31498WAT     H194736   4.170   3.863   8.547
31498WAT     H294737   4.092   3.724   8.579
31499WAT      O94738   7.570   2.813   7.711
31499WAT     H194739   7.646   2.878   7.700
31499WAT     H294740   7.566   2.782   7.805
31500WAT      O94741   5.497   1.996   3.170
31500WAT     H194742   5.426   2.032   3.109
31500WAT     H294743   5.570   1.954   3.116
31501WAT      O94744   5.526   8.046   6.349
31501WAT     H194745   5.528   8.104   6.268
31501WAT     H294746   5.620   8.020   6.374
31502WAT      O94747   3.778   8.909   0.246
31502WAT     H194748   3.803   8.880   0.154
31502WAT     H294749   3.850   8.881   0.310
31503WAT      O94750   3.344   2.639   8.837
31503WAT     H194751   3.293   2.657   8.920
31503WAT     H294752   3.391   2.551   8.845
31504WAT      O94753   5.541   2.832   1.837
31504WAT     H194754   5.546   2.762   1.909
31504WAT     H294755   5.554   2.922   1.878
31505WAT      O94756   6.562   8.386   3.657
31505WAT     H194757   6.638   8.437   3.697
31505WAT     H294758   6.478   8.409   3.705
31506WAT      O94759   2.572   0.410   9.172
31506WAT     H194760   2.606   0.482   9.233
31506WAT     H294761   2.638   0.334   9.170
31507WAT      O94762   8.407   5.934   0.239
31507WAT     H194763   8.345   5.915   0.315
31507WAT     H294764   8.364   5.998   0.176
31508WAT      O94765   0.526   6.777   6.197
31508WAT     H194766   0.570   6.777   6.107
31508WAT     H294767   0.444   6.834   6.195
31509WAT      O94768   7.538   1.817   0.695
31509WAT     H194769   7.629   1.783   0.672
31509WAT     H294770   7.489   1.747   0.747
31510WAT      O94771   0.638   2.812   3.094
31510WAT     H194772   0.640   2.792   3.192
31510WAT     H294773   0.730   2.833   3.063
31511WAT      O94774   7.870   9.388   1.287
31511WAT     H194775   7.928   9.309   1.307
31511WAT     H294776   7.777   9.358   1.266
31512WAT      O94777   1.331   5.772   7.923
31512WAT     H194778   1.232   5.762   7.917
31512WAT     H294779   1.356   5.868   7.909
31513WAT      O94780   5.001   4.998   4.943
31513WAT     H194781   5.071   5.022   5.011
31513WAT     H294782   4.942   5.077   4.927
31514WAT      O94783   5.158   7.355   2.698
31514WAT     H194784   5.096   7.373   2.621
31514WAT     H294785   5.195   7.442   2.731
31515WAT      O94786   0.199   4.116   5.236
31515WAT     H194787   0.111   4.084   5.271
31515WAT     H294788   0.272   4.089   5.299
31516WAT      O94789   9.037   1.749   3.107
31516WAT     H194790   8.978   1.766   3.028
31516WAT     H294791   9.029   1.653   3.135
31517WAT      O94792   4.451   7.149   8.193
31517WAT     H194793   4.442   7.174   8.097
31517WAT     H294794   4.360   7.135   8.233
31518WAT      O94795   4.615   8.995   5.325
31518WAT     H194796   4.594   9.066   5.391
31518WAT     H294797   4.555   8.916   5.340
31519WAT      O94798   4.708   7.754   5.153
31519WAT     H194799   4.754   7.811   5.085
31519WAT     H294800   4.777   7.703   5.205
31520WAT      O94801   8.246   0.630   1.923
31520WAT     H194802   8.342   0.608   1.907
31520WAT     H294803   8.228   0.724   1.895
31521WAT      O94804   2.293   2.878   8.827
31521WAT     H194805   2.211   2.826   8.852
31521WAT     H294806   2.272   2.976   8.829
31522WAT      O94807   3.147   6.146   9.013
31522WAT     H194808   3.212   6.167   8.940
31522WAT     H294809   3.194   6.096   9.087
31523WAT      O94810   9.259   6.965   5.567
31523WAT     H194811   9.307   7.053   5.574
31523WAT     H294812   9.216   6.944   5.655
31524WAT      O94813   2.974   7.215   1.391
31524WAT     H194814   3.061   7.252   1.423
31524WAT     H294815   2.981   7.193   1.294
31525WAT      O94816   9.431   7.428   3.509
31525WAT     H194817   9.463   7.431   3.415
31525WAT     H294818   9.447   7.516   3.553
31526WAT      O94819   3.060   7.596   3.935
31526WAT     H194820   2.974   7.644   3.919
31526WAT     H294821   3.136   7.655   3.906
31527WAT      O94822   7.394   1.379   7.383
31527WAT     H194823   7.300   1.402   7.409
31527WAT     H294824   7.442   1.341   7.462
31528WAT      O94825   0.127   9.071   4.806
31528WAT     H194826   0.183   8.991   4.827
31528WAT     H294827   0.180   9.154   4.825
31529WAT      O94828   9.472   4.833   1.092
31529WAT     H194829   9.439   4.906   1.031
31529WAT     H294830   9.550   4.787   1.049
31530WAT      O94831   8.496   0.012   8.957
31530WAT     H194832   8.534   0.097   8.920
31530WAT     H294833   8.560  -0.027   9.023
31531WAT      O94834   2.061   8.833   8.837
31531WAT     H194835   2.068   8.744   8.882
31531WAT     H294836   2.116   8.900   8.887
31532WAT      O94837   4.055   8.585   5.543
31532WAT     H194838   4.014   8.672   5.572
31532WAT     H294839   4.148   8.602   5.510
31533WAT      O94840   9.803   8.419   9.319
31533WAT     H194841   9.812   8.412   9.418
31533WAT     H294842   9.726   8.479   9.297
31534WAT      O94843   5.623   7.906   5.153
31534WAT     H194844   5.631   7.933   5.249
31534WAT     H294845   5.529   7.878   5.134
31535WAT      O94846   8.930   5.917   7.778
31535WAT     H194847   8.915   6.015   7.787
31535WAT     H294848   8.924   5.891   7.682
31536WAT      O94849   6.684   7.560   5.258
31536WAT     H194850   6.776   7.570   5.218
31536WAT     H294851   6.682   7.602   5.348
31537WAT      O94852   2.876   6.622   1.317
31537WAT     H194853   2.798   6.650   1.262
31537WAT     H294854   2.870   6.664   1.408
31538WAT      O94855   0.703   9.004   1.052
31538WAT     H194856   0.762   8.928   1.026
31538WAT     H294857   0.656   9.039   0.970
31539WAT      O94858   6.897   3.643   4.629
31539WAT     H194859   6.884   3.700   4.710
31539WAT     H294860   6.835   3.673   4.556
31540WAT      O94861   2.209   1.343   6.331
31540WAT     H194862   2.295   1.376   6.368
31540WAT     H294863   2.172   1.411   6.267
31541WAT      O94864   0.013   6.658   6.188
31541WAT     H194865  -0.049   6.599   6.241
31541WAT     H294866   0.060   6.603   6.118
31542WAT      O94867   6.112   9.698   3.976
31542WAT     H194868   6.031   9.666   4.026
31542WAT     H294869   6.083   9.736   3.888
31543WAT      O94870   5.430   0.942   7.783
31543WAT     H194871   5.343   0.897   7.762
31543WAT     H294872   5.427   0.976   7.878
31544WAT      O94873   2.731   6.335   7.559
31544WAT     H194874   2.663   6.320   7.488
31544WAT     H294875   2.732   6.257   7.622
31545WAT      O94876   8.564   5.838   9.304
31545WAT     H194877   8.571   5.933   9.335
31545WAT     H294878   8.542   5.779   9.382
31546WAT      O94879   9.352   5.401   2.845
31546WAT     H194880   9.310   5.315   2.814
31546WAT     H294881   9.322   5.475   2.785
31547WAT      O94882   8.643   5.700   9.099
31547WAT     H194883   8.646   5.762   9.177
31547WAT     H294884   8.591   5.618   9.123
31548WAT      O94885   9.879   8.266   6.877
31548WAT     H194886   9.840   8.325   6.806
31548WAT     H294887   9.919   8.322   6.950
31549WAT      O94888   8.688   9.404   1.103
31549WAT     H194889   8.778   9.437   1.075
31549WAT     H294890   8.693   9.367   1.195
31550WAT      O94891   4.402   2.775   2.097
31550WAT     H194892   4.476   2.824   2.050
31550WAT     H294893   4.426   2.679   2.107
31551WAT      O94894   3.196   6.424   5.086
31551WAT     H194895   3.161   6.416   4.992
31551WAT     H294896   3.152   6.354   5.143
31552WAT      O94897   0.580   3.687   2.037
31552WAT     H194898   0.620   3.595   2.025
31552WAT     H294899   0.523   3.709   1.959
31553WAT      O94900   0.971   5.585   0.349
31553WAT     H194901   0.911   5.633   0.285
31553WAT     H294902   0.989   5.643   0.428
31554WAT      O94903   1.693   1.105   3.232
31554WAT     H194904   1.636   1.025   3.252
31554WAT     H294905   1.696   1.164   3.312
31555WAT      O94906   0.760   0.539   3.415
31555WAT     H194907   0.849   0.493   3.409
31555WAT     H294908   0.773   0.637   3.428
31556WAT      O94909   7.337   0.514   5.415
31556WAT     H194910   7.325   0.492   5.512
31556WAT     H294911   7.268   0.467   5.361
31557WAT      O94912   8.125   6.843   0.684
31557WAT     H194913   8.107   6.903   0.606
31557WAT     H294914   8.132   6.748   0.652
31558WAT      O94915   6.505   0.835   1.783
31558WAT     H194916   6.514   0.920   1.730
31558WAT     H294917   6.419   0.790   1.760
31559WAT      O94918   2.549   4.190   7.068
31559WAT     H194919   2.624   4.170   7.130
31559WAT     H294920   2.493   4.263   7.107
31560WAT      O94921   3.251   6.126   4.521
31560WAT     H194922   3.155   6.123   4.494
31560WAT     H294923   3.269   6.052   4.585
31561WAT      O94924   9.033   7.275   7.719
31561WAT     H194925   8.944   7.239   7.691
31561WAT     H294926   9.090   7.201   7.752
31562WAT      O94927   8.402   6.809   8.646
31562WAT     H194928   8.493   6.807   8.686
31562WAT     H294929   8.375   6.717   8.617
31563WAT      O94930   2.462   4.148   9.881
31563WAT     H194931   2.384   4.172   9.824
31563WAT     H294932   2.533   4.106   9.825
31564WAT      O94933   2.555   0.471   1.591
31564WAT     H194934   2.567   0.380   1.630
31564WAT     H294935   2.592   0.539   1.655
31565WAT      O94936   3.600   9.743   5.696
31565WAT     H194937   3.674   9.676   5.691
31565WAT     H294938   3.631   9.824   5.747
31566WAT      O94939   2.660   9.421   8.419
31566WAT     H194940   2.584   9.380   8.367
31566WAT     H294941   2.644   9.408   8.517
31567WAT      O94942   7.717   7.923   4.096
31567WAT     H194943   7.658   7.856   4.141
31567WAT     H294944   7.745   7.888   4.006
31568WAT      O94945   4.787  -0.001   7.171
31568WAT     H194946   4.876   0.032   7.202
31568WAT     H294947   4.726   0.077   7.157
31569WAT      O94948   0.821   9.484   7.123
31569WAT     H194949   0.729   9.446   7.137
31569WAT     H294950   0.882   9.452   7.195
31570WAT      O94951   0.063   0.398   0.219
31570WAT     H194952   0.062   0.344   0.303
31570WAT     H294953   0.006   0.354   0.150
31571WAT      O94954   7.006   0.488   9.700
31571WAT     H194955   6.914   0.483   9.664
31571WAT     H294956   7.067   0.531   9.633
31572WAT      O94957   7.734   7.188   5.164
31572WAT     H194958   7.778   7.104   5.196
31572WAT     H294959   7.679   7.168   5.083
31573WAT      O94960   7.860   2.893   6.468
31573WAT     H194961   7.865   2.992   6.483
31573WAT     H294962   7.850   2.874   6.370
31574WAT      O94963   5.513   9.260   3.325
31574WAT     H194964   5.588   9.298   3.379
31574WAT     H294965   5.439   9.233   3.385
31575WAT      O94966   1.127   9.720   1.164
31575WAT     H194967   1.161   9.703   1.072
31575WAT     H294968   1.075   9.641   1.196
31576WAT      O94969   4.735   2.939   6.395
31576WAT     H194970   4.637   2.931   6.414
31576WAT     H294971   4.749   2.962   6.299
31577WAT      O94972   9.786   7.283   2.037
31577WAT     H194973   9.828   7.322   1.955
31577WAT     H294974   9.771   7.356   2.105
31578WAT      O94975   0.463   3.813   3.693
31578WAT     H194976   0.489   3.901   3.734
31578WAT     H294977   0.531   3.787   3.624
31579WAT      O94978   9.647   2.083   6.122
31579WAT     H194979   9.725   2.141   6.147
31579WAT     H294980   9.568   2.141   6.102
31580WAT      O94981   2.927   5.832   8.282
31580WAT     H194982   3.003   5.896   8.296
31580WAT     H294983   2.960   5.738   8.290
31581WAT      O94984   2.291   7.993   2.264
31581WAT     H194985   2.247   7.908   2.236
31581WAT     H294986   2.369   8.012   2.204
31582WAT      O94987   0.223   3.958   2.153
31582WAT     H194988   0.243   4.023   2.226
31582WAT     H294989   0.277   3.982   2.072
31583WAT      O94990   3.365   9.586   3.253
31583WAT     H194991   3.345   9.678   3.285
31583WAT     H294992   3.282   9.531   3.254
31584WAT      O94993   3.990   7.400   5.346
31584WAT     H194994   3.940   7.480   5.314
31584WAT     H294995   3.958   7.374   5.437
31585WAT      O94996   5.479   0.829   2.570
31585WAT     H194997   5.459   0.888   2.648
31585WAT     H294998   5.408   0.759   2.562
31586WAT      O94999   0.398   5.334   1.584
31586WAT     H195000   0.465   5.287   1.641
31586WAT     H295001   0.333   5.383   1.643
31587WAT      O95002   7.561   8.940   7.102
31587WAT     H195003   7.620   8.880   7.049
31587WAT     H295004   7.543   8.899   7.192
31588WAT      O95005   6.906   0.397   4.069
31588WAT     H195006   6.806   0.393   4.069
31588WAT     H295007   6.934   0.493   4.064
31589WAT      O95008   4.195   0.794   3.477
31589WAT     H195009   4.241   0.824   3.561
31589WAT     H295010   4.255   0.731   3.427
31590WAT      O95011   2.917   2.856   6.101
31590WAT     H195012   2.825   2.860   6.138
31590WAT     H295013   2.964   2.943   6.118
31591WAT      O95014   7.567   6.402   8.930
31591WAT     H195015   7.529   6.345   9.003
31591WAT     H295016   7.503   6.403   8.853
31592WAT      O95017   1.401   2.339   6.186
31592WAT     H195018   1.312   2.340   6.140
31592WAT     H295019   1.462   2.403   6.140
31593WAT      O95020   3.972   0.932   3.954
31593WAT     H195021   3.972   0.981   3.867
31593WAT     H295022   3.923   0.986   4.023
31594WAT      O95023   1.178   0.206   1.583
31594WAT     H195024   1.167   0.122   1.636
31594WAT     H295025   1.274   0.234   1.584
31595WAT      O95026   0.995   2.888   0.115
31595WAT     H195027   0.975   2.799   0.156
31595WAT     H295028   1.093   2.895   0.097
31596WAT      O95029   7.902   9.121   6.915
31596WAT     H195030   7.845   9.172   6.980
31596WAT     H295031   7.850   9.101   6.833
31597WAT      O95032   8.689   6.986   7.181
31597WAT     H195033   8.737   7.022   7.261
31597WAT     H295034   8.716   6.891   7.165
31598WAT      O95035   5.468   3.743   3.870
31598WAT     H195036   5.403   3.674   3.902
31598WAT     H295037   5.467   3.746   3.770
31599WAT      O95038   0.391   8.056   7.230
31599WAT     H195039   0.428   8.088   7.143
31599WAT     H295040   0.454   7.989   7.271
31600WAT      O95041   6.448   0.554   6.734
31600WAT     H195042   6.459   0.599   6.646
31600WAT     H295043   6.353   0.565   6.766
31601WAT      O95044   3.438   6.353   1.987
31601WAT     H195045   3.387   6.327   2.069
31601WAT     H295046   3.526   6.306   1.987
31602WAT      O95047   2.724   8.700   4.854
31602WAT     H195048   2.819   8.691   4.824
31602WAT     H295049   2.696   8.796   4.846
31603WAT      O95050   8.262   4.138   5.564
31603WAT     H195051   8.315   4.201   5.507
31603WAT     H295052   8.208   4.078   5.506
31604WAT      O95053   2.161   7.998   2.658
31604WAT     H195054   2.226   8.061   2.617
31604WAT     H295055   2.071   8.010   2.616
31605WAT      O95056   8.057   0.573   3.340
31605WAT     H195057   8.026   0.590   3.434
31605WAT     H295058   8.094   0.657   3.301
31606WAT      O95059   2.318   5.152   5.816
31606WAT     H195060   2.242   5.207   5.783
31606WAT     H295061   2.402   5.206   5.813
31607WAT      O95062   1.422   3.227   7.830
31607WAT     H195063   1.494   3.166   7.797
31607WAT     H295064   1.395   3.289   7.757
31608WAT      O95065   1.693   6.010   0.853
31608WAT     H195066   1.613   6.058   0.818
31608WAT     H295067   1.697   5.919   0.811
31609WAT      O95068   0.284   2.041   4.940
31609WAT     H195069   0.212   1.973   4.951
31609WAT     H295070   0.365   1.997   4.899
31610WAT      O95071   8.999   6.510   7.693
31610WAT     H195072   8.959   6.470   7.610
31610WAT     H295073   8.928   6.549   7.750
31611WAT      O95074   3.505   2.877   9.327
31611WAT     H195075   3.506   2.966   9.282
31611WAT     H295076   3.412   2.853   9.352
31612WAT      O95077   1.361   2.567   5.032
31612WAT     H195078   1.293   2.514   4.981
31612WAT     H295079   1.392   2.514   5.110
31613WAT      O95080   6.682   7.720   3.771
31613WAT     H195081   6.681   7.621   3.784
31613WAT     H295082   6.711   7.765   3.855
31614WAT      O95083   0.807   8.967   9.682
31614WAT     H195084   0.796   9.064   9.661
31614WAT     H295085   0.721   8.929   9.715
31615WAT      O95086   3.165   8.469   8.416
31615WAT     H195087   3.122   8.554   8.450
31615WAT     H295088   3.232   8.492   8.346
31616WAT      O95089   0.404   1.325   1.125
31616WAT     H195090   0.352   1.363   1.202
31616WAT     H295091   0.370   1.233   1.105
31617WAT      O95092   1.788   1.517   4.000
31617WAT     H195093   1.884   1.536   4.021
31617WAT     H295094   1.778   1.499   3.902
31618WAT      O95095   8.370   2.534   4.886
31618WAT     H195096   8.454   2.573   4.923
31618WAT     H295097   8.382   2.515   4.789
31619WAT      O95098   5.364   0.164   0.963
31619WAT     H195099   5.313   0.126   0.886
31619WAT     H295100   5.400   0.254   0.939
31620WAT      O95101   6.674   7.876   2.915
31620WAT     H195102   6.602   7.852   2.980
31620WAT     H295103   6.655   7.966   2.876
31621WAT      O95104   8.788   6.930   0.037
31621WAT     H195105   8.733   6.847   0.049
31621WAT     H295106   8.873   6.906  -0.010
31622WAT      O95107   2.387   3.493   7.576
31622WAT     H195108   2.454   3.420   7.557
31622WAT     H295109   2.423   3.552   7.648
31623WAT      O95110   0.809   2.442   1.159
31623WAT     H195111   0.835   2.358   1.206
31623WAT     H295112   0.885   2.508   1.166
31624WAT      O95113   8.403   0.665   0.893
31624WAT     H195114   8.400   0.694   0.989
31624WAT     H295115   8.384   0.744   0.835
31625WAT      O95116   7.698   9.363   6.683
31625WAT     H195117   7.602   9.365   6.654
31625WAT     H295118   7.737   9.273   6.664
31626WAT      O95119   7.435   1.027   3.826
31626WAT     H195120   7.349   0.976   3.820
31626WAT     H295121   7.417   1.115   3.872
31627WAT      O95122   0.375   6.956   7.015
31627WAT     H195123   0.337   6.870   6.980
31627WAT     H295124   0.335   6.977   7.104
31628WAT      O95125   2.263   7.087   9.431
31628WAT     H195126   2.282   7.119   9.524
31628WAT     H295127   2.348   7.085   9.379
31629WAT      O95128   6.173   1.226   9.491
31629WAT     H195129   6.233   1.306   9.485
31629WAT     H295130   6.080   1.256   9.510
31630WAT      O95131   1.705   8.599   3.649
31630WAT     H195132   1.606   8.600   3.664
31630WAT     H295133   1.752   8.627   3.732
31631WAT      O95134   0.934   0.096   2.034
31631WAT     H195135   0.867   0.042   1.983
31631WAT     H295136   0.990   0.035   2.090
31632WAT      O95137   1.710   5.146   1.142
31632WAT     H195138   1.706   5.084   1.063
31632WAT     H295139   1.798   5.195   1.140
31633WAT      O95140   1.991   2.130   5.544
31633WAT     H195141   1.960   2.098   5.633
31633WAT     H295142   1.916   2.178   5.498
31634WAT      O95143   2.109   5.313   4.085
31634WAT     H195144   2.134   5.367   4.165
31634WAT     H295145   2.010   5.315   4.072
31635WAT      O95146   3.058   0.195   2.610
31635WAT     H195147   3.052   0.226   2.705
31635WAT     H295148   2.982   0.133   2.591
31636WAT      O95149   9.078   1.247   5.818
31636WAT     H195150   9.034   1.168   5.775
31636WAT     H295151   9.058   1.247   5.916
31637WAT      O95152   1.514   6.668   9.448
31637WAT     H195153   1.439   6.615   9.488
31637WAT     H295154   1.590   6.607   9.426
31638WAT      O95155   4.393   1.211   8.614
31638WAT     H195156   4.488   1.231   8.638
31638WAT     H295157   4.365   1.271   8.538
31639WAT      O95158   6.693   9.703   7.999
31639WAT     H195159   6.704   9.793   8.040
31639WAT     H295160   6.632   9.648   8.055
31640WAT      O95161   0.699   1.943   5.017
31640WAT     H195162   0.780   1.991   4.984
31640WAT     H295163   0.637   1.927   4.941
31641WAT      O95164   2.922   9.438   7.892
31641WAT     H195165   2.899   9.342   7.902
31641WAT     H295166   2.843   9.488   7.855
31642WAT      O95167   0.793   0.457   6.623
31642WAT     H195168   0.757   0.547   6.602
31642WAT     H295169   0.803   0.446   6.722
31643WAT      O95170   0.800   5.893   5.449
31643WAT     H195171   0.719   5.904   5.393
31643WAT     H295172   0.829   5.982   5.485
31644WAT      O95173   0.579   5.902   5.299
31644WAT     H195174   0.527   5.968   5.246
31644WAT     H295175   0.568   5.811   5.260
31645WAT      O95176   8.314   4.976   3.227
31645WAT     H195177   8.223   4.947   3.198
31645WAT     H295178   8.379   4.959   3.153
31646WAT      O95179   4.197   0.213   2.488
31646WAT     H195180   4.183   0.119   2.520
31646WAT     H295181   4.235   0.211   2.396
31647WAT      O95182   8.852   7.469   4.378
31647WAT     H195183   8.945   7.502   4.364
31647WAT     H295184   8.819   7.426   4.294
31648WAT      O95185   1.128   4.158   2.159
31648WAT     H195186   1.202   4.145   2.225
31648WAT     H295187   1.153   4.231   2.095
31649WAT      O95188   6.475   6.572   4.005
31649WAT     H195189   6.466   6.525   3.917
31649WAT     H295190   6.385   6.574   4.050
31650WAT      O95191   1.139   9.158   5.812
31650WAT     H195192   1.056   9.122   5.769
31650WAT     H295193   1.160   9.248   5.775
31651WAT      O95194   2.577   2.526   2.284
31651WAT     H195195   2.604   2.430   2.280
31651WAT     H295196   2.632   2.573   2.353
31652WAT      O95197   5.984   4.069   5.284
31652WAT     H195198   5.946   4.096   5.196
31652WAT     H295199   5.924   4.002   5.327
31653WAT      O95200   6.702   7.340   0.069
31653WAT     H195201   6.637   7.317  -0.003
31653WAT     H295202   6.653   7.348   0.156
31654WAT      O95203   8.062   1.473   0.669
31654WAT     H195204   8.117   1.413   0.611
31654WAT     H295205   8.062   1.566   0.632
31655WAT      O95206   5.231   1.871   1.061
31655WAT     H195207   5.243   1.944   1.128
31655WAT     H295208   5.319   1.843   1.024
31656WAT      O95209   8.007   0.224   2.157
31656WAT     H195210   8.064   0.231   2.239
31656WAT     H295211   7.911   0.224   2.182
31657WAT      O95212   1.479   5.541   5.474
31657WAT     H195213   1.476   5.553   5.573
31657WAT     H295214   1.558   5.591   5.437
31658WAT      O95215   3.125   0.611   0.783
31658WAT     H195216   3.063   0.600   0.705
31658WAT     H295217   3.086   0.679   0.846
31659WAT      O95218   9.132   6.697   3.831
31659WAT     H195219   9.230   6.686   3.816
31659WAT     H295220   9.098   6.621   3.887
31660WAT      O95221   4.438   6.356   3.546
31660WAT     H195222   4.423   6.289   3.618
31660WAT     H295223   4.377   6.434   3.560
31661WAT      O95224   8.244   5.710   5.914
31661WAT     H195225   8.187   5.788   5.890
31661WAT     H295226   8.340   5.735   5.910
31662WAT      O95227   7.828   5.954   5.159
31662WAT     H195228   7.883   5.903   5.225
31662WAT     H295229   7.878   5.963   5.073
31663WAT      O95230   2.605   1.950   0.288
31663WAT     H195231   2.610   1.851   0.302
31663WAT     H295232   2.599   1.969   0.190
31664WAT      O95233   8.557   4.175   0.253
31664WAT     H195234   8.623   4.156   0.326
31664WAT     H295235   8.476   4.119   0.266
31665WAT      O95236   0.591   2.336   8.490
31665WAT     H195237   0.595   2.373   8.583
31665WAT     H295238   0.514   2.272   8.483
31666WAT      O95239   5.622   4.339   2.554
31666WAT     H195240   5.721   4.325   2.547
31666WAT     H295241   5.599   4.372   2.645
31667WAT      O95242   8.175   1.159   8.306
31667WAT     H195243   8.157   1.079   8.249
31667WAT     H295244   8.093   1.216   8.309
31668WAT      O95245   8.344   0.845   0.688
31668WAT     H195246   8.264   0.867   0.632
31668WAT     H295247   8.417   0.809   0.630
31669WAT      O95248   9.705   0.351   8.329
31669WAT     H195249   9.782   0.360   8.392
31669WAT     H295250   9.713   0.419   8.257
31670WAT      O95251   1.117   4.941   2.606
31670WAT     H195252   1.094   4.904   2.696
31670WAT     H295253   1.035   4.981   2.565
31671WAT      O95254   2.570   5.694   4.954
31671WAT     H195255   2.659   5.691   4.907
31671WAT     H295256   2.504   5.742   4.896
31672WAT      O95257   2.549   0.513   8.497
31672WAT     H195258   2.615   0.439   8.505
31672WAT     H295259   2.482   0.491   8.426
31673WAT      O95260   9.054   4.509   5.023
31673WAT     H195261   9.039   4.449   5.101
31673WAT     H295262   9.152   4.523   5.010
31674WAT      O95263   6.512   8.296   4.288
31674WAT     H195264   6.506   8.390   4.255
31674WAT     H295265   6.488   8.233   4.213
31675WAT      O95266   8.107   7.979   5.162
31675WAT     H195267   8.064   7.991   5.251
31675WAT     H295268   8.143   8.067   5.130
31676WAT      O95269   7.837   5.067   6.646
31676WAT     H195270   7.799   4.988   6.693
31676WAT     H295271   7.895   5.037   6.570
31677WAT      O95272   0.298   7.932   6.465
31677WAT     H195273   0.326   7.877   6.386
31677WAT     H295274   0.314   8.029   6.446
31678WAT      O95275   4.525   9.239   8.281
31678WAT     H195276   4.478   9.320   8.315
31678WAT     H295277   4.610   9.266   8.237
31679WAT      O95278   8.755   4.121   1.751
31679WAT     H195279   8.751   4.022   1.734
31679WAT     H295280   8.841   4.158   1.716
31680WAT      O95281   0.317   1.141   4.007
31680WAT     H195282   0.277   1.055   4.040
31680WAT     H295283   0.357   1.126   3.917
31681WAT      O95284   2.942   6.953   1.946
31681WAT     H195285   2.961   6.872   1.891
31681WAT     H295286   3.019   7.017   1.939
31682WAT      O95287   1.463   5.546   2.094
31682WAT     H195288   1.448   5.640   2.124
31682WAT     H295289   1.538   5.543   2.029
31683WAT      O95290   7.559   6.081   1.414
31683WAT     H195291   7.652   6.058   1.443
31683WAT     H295292   7.523   6.008   1.356
31684WAT      O95293   4.333   5.803   0.351
31684WAT     H195294   4.238   5.829   0.336
31684WAT     H295295   4.347   5.782   0.448
31685WAT      O95296   7.757   3.063   2.894
31685WAT     H195297   7.798   3.139   2.845
31685WAT     H295298   7.826   3.016   2.948
31686WAT      O95299   8.313   7.421   6.860
31686WAT     H195300   8.330   7.498   6.922
31686WAT     H295301   8.400   7.377   6.838
31687WAT      O95302   1.878   0.652   0.195
31687WAT     H195303   1.928   0.628   0.279
31687WAT     H295304   1.940   0.647   0.117
31688WAT      O95305   3.755   4.868   6.563
31688WAT     H195306   3.701   4.807   6.622
31688WAT     H295307   3.797   4.814   6.490
31689WAT      O95308   4.349   1.407   4.431
31689WAT     H195309   4.375   1.490   4.381
31689WAT     H295310   4.403   1.330   4.397
31690WAT      O95311   0.677   3.183   7.439
31690WAT     H195312   0.675   3.141   7.529
31690WAT     H295313   0.676   3.112   7.369
31691WAT      O95314   0.426   5.362   2.481
31691WAT     H195315   0.384   5.272   2.490
31691WAT     H295316   0.514   5.363   2.527
31692WAT      O95317   8.668   0.542   9.000
31692WAT     H195318   8.668   0.639   8.976
31692WAT     H295319   8.577   0.504   8.985
31693WAT      O95320   0.155   2.274   1.594
31693WAT     H195321   0.241   2.256   1.547
31693WAT     H295322   0.103   2.189   1.603
31694WAT      O95323   8.663   4.714   8.159
31694WAT     H195324   8.664   4.654   8.239
31694WAT     H295325   8.571   4.752   8.148
31695WAT      O95326   5.559   6.217   3.652
31695WAT     H195327   5.539   6.119   3.654
31695WAT     H295328   5.605   6.239   3.566
31696WAT      O95329   2.879   4.102   4.199
31696WAT     H195330   2.910   4.018   4.154
31696WAT     H295331   2.835   4.161   4.132
31697WAT      O95332   0.317   0.204   2.276
31697WAT     H195333   0.326   0.164   2.185
31697WAT     H295334   0.301   0.302   2.268
31698WAT      O95335   4.425   5.690   6.524
31698WAT     H195336   4.382   5.773   6.560
31698WAT     H295337   4.384   5.668   6.435
31699WAT      O95338   2.353   9.775   0.889
31699WAT     H195339   2.334   9.684   0.927
31699WAT     H295340   2.430   9.769   0.826
31700WAT      O95341   6.611   4.923   5.742
31700WAT     H195342   6.650   4.994   5.800
31700WAT     H295343   6.511   4.935   5.738
31701WAT      O95344   3.796   7.429   2.216
31701WAT     H195345   3.761   7.362   2.150
31701WAT     H295346   3.746   7.515   2.206
31702WAT      O95347   1.559   9.504   4.565
31702WAT     H195348   1.509   9.443   4.504
31702WAT     H295349   1.496   9.543   4.632
31703WAT      O95350   8.430   2.178   8.620
31703WAT     H195351   8.372   2.173   8.702
31703WAT     H295352   8.434   2.273   8.589
31704WAT      O95353   5.918   6.520   3.966
31704WAT     H195354   6.010   6.559   3.959
31704WAT     H295355   5.888   6.488   3.876
31705WAT      O95356   7.252   9.814   1.500
31705WAT     H195357   7.261   9.755   1.580
31705WAT     H295358   7.187   9.773   1.436
31706WAT      O95359   9.425   4.659   7.170
31706WAT     H195360   9.330   4.639   7.197
31706WAT     H295361   9.474   4.697   7.248
31707WAT      O95362   1.107   8.110   9.646
31707WAT     H195363   1.142   8.190   9.695
31707WAT     H295364   1.180   8.042   9.638
31708WAT      O95365   6.187   4.652   0.888
31708WAT     H195366   6.120   4.668   0.815
31708WAT     H295367   6.248   4.578   0.861
31709WAT      O95368   6.807   6.001   7.383
31709WAT     H195369   6.846   6.061   7.453
31709WAT     H295370   6.778   6.056   7.305
31710WAT      O95371   2.104   2.584   5.506
31710WAT     H195372   2.105   2.600   5.408
31710WAT     H295373   2.135   2.490   5.524
31711WAT      O95374   5.586   2.233   0.642
31711WAT     H195375   5.523   2.156   0.658
31711WAT     H295376   5.678   2.207   0.668
31712WAT      O95377   2.698   1.090   7.387
31712WAT     H195378   2.651   1.164   7.434
31712WAT     H295379   2.659   1.078   7.295
31713WAT      O95380   8.551   9.224   9.617
31713WAT     H195381   8.544   9.258   9.711
31713WAT     H295382   8.573   9.300   9.555
31714WAT      O95383   6.263   9.363   8.084
31714WAT     H195384   6.345   9.396   8.037
31714WAT     H295385   6.275   9.267   8.110
31715WAT      O95386   8.878   6.700   7.368
31715WAT     H195387   8.865   6.723   7.465
31715WAT     H295388   8.788   6.695   7.323
31716WAT      O95389   3.787   8.137   5.101
31716WAT     H195390   3.788   8.226   5.147
31716WAT     H295391   3.881   8.104   5.091
31717WAT      O95392   6.979   1.115   0.731
31717WAT     H195393   6.893   1.123   0.782
31717WAT     H295394   6.996   1.018   0.712
31718WAT      O95395   5.456   4.731   2.773
31718WAT     H195396   5.420   4.686   2.691
31718WAT     H295397   5.548   4.696   2.792
31719WAT      O95398   6.987   5.003   7.584
31719WAT     H195399   7.041   4.969   7.507
31719WAT     H295400   6.936   5.084   7.556
31720WAT      O95401   7.704   6.619   8.929
31720WAT     H195402   7.764   6.636   9.007
31720WAT     H295403   7.651   6.535   8.945
31721WAT      O95404   3.650   0.334   4.656
31721WAT     H195405   3.605   0.390   4.586
31721WAT     H295406   3.585   0.314   4.729
31722WAT      O95407   4.566   6.994   3.361
31722WAT     H195408   4.577   6.931   3.284
31722WAT     H295409   4.475   6.984   3.399
31723WAT      O95410   8.990   0.279   3.353
31723WAT     H195411   8.901   0.318   3.329
31723WAT     H295412   9.063   0.342   3.323
31724WAT      O95413   5.651   3.233   4.018
31724WAT     H195414   5.662   3.139   4.051
31724WAT     H295415   5.627   3.231   3.921
31725WAT      O95416   3.419   2.417   3.835
31725WAT     H195417   3.345   2.358   3.868
31725WAT     H295418   3.406   2.436   3.738
31726WAT      O95419   9.148   6.483   7.928
31726WAT     H195420   9.214   6.408   7.932
31726WAT     H295421   9.088   6.471   7.849
31727WAT      O95422   9.024   4.596   2.525
31727WAT     H195423   9.009   4.599   2.426
31727WAT     H295424   9.030   4.689   2.561
31728WAT      O95425   1.886   4.648   3.569
31728WAT     H195426   1.946   4.638   3.648
31728WAT     H295427   1.856   4.743   3.562
31729WAT      O95428   2.760   4.149   7.228
31729WAT     H195429   2.789   4.078   7.163
31729WAT     H295430   2.768   4.113   7.321
31730WAT      O95431   6.790   0.664   3.555
31730WAT     H195432   6.823   0.570   3.566
31730WAT     H295433   6.766   0.702   3.644
31731WAT      O95434   3.246   6.767   5.555
31731WAT     H195435   3.167   6.815   5.516
31731WAT     H295436   3.290   6.712   5.485
31732WAT      O95437   6.279   0.758   1.454
31732WAT     H195438   6.212   0.801   1.393
31732WAT     H295439   6.348   0.710   1.399
31733WAT      O95440   3.357   5.754   5.376
31733WAT     H195441   3.374   5.661   5.409
31733WAT     H295442   3.425   5.816   5.415
31734WAT      O95443   6.581   6.117   2.802
31734WAT     H195444   6.562   6.215   2.795
31734WAT     H295445   6.605   6.095   2.897
31735WAT      O95446   9.131   8.839   0.483
31735WAT     H195447   9.189   8.911   0.520
31735WAT     H295448   9.106   8.860   0.389
31736WAT      O95449   2.664   8.057   6.264
31736WAT     H195450   2.650   8.107   6.179
31736WAT     H295451   2.576   8.020   6.296
31737WAT      O95452   9.559   5.358   2.001
31737WAT     H195453   9.511   5.270   2.007
31737WAT     H295454   9.497   5.431   2.028
31738WAT      O95455   2.381   4.799   0.289
31738WAT     H195456   2.335   4.779   0.203
31738WAT     H295457   2.480   4.796   0.275
31739WAT      O95458   4.492   0.586   0.754
31739WAT     H195459   4.422   0.621   0.692
31739WAT     H295460   4.470   0.492   0.781
31740WAT      O95461   2.562   2.222   2.301
31740WAT     H195462   2.492   2.186   2.240
31740WAT     H295463   2.652   2.213   2.258
31741WAT      O95464   3.923   8.339   7.639
31741WAT     H195465   3.879   8.402   7.575
31741WAT     H295466   3.967   8.391   7.712
31742WAT      O95467   6.818   8.885   7.421
31742WAT     H195468   6.737   8.945   7.416
31742WAT     H295469   6.838   8.863   7.516
31743WAT      O95470   9.315   6.728   5.441
31743WAT     H195471   9.346   6.816   5.477
31743WAT     H295472   9.393   6.678   5.403
31744WAT      O95473   1.169   7.060   1.761
31744WAT     H195474   1.261   7.089   1.788
31744WAT     H295475   1.160   6.961   1.770
31745WAT      O95476   8.346   6.130   5.870
31745WAT     H195477   8.406   6.145   5.792
31745WAT     H295478   8.341   6.032   5.890
31746WAT      O95479   3.587   9.836   6.995
31746WAT     H195480   3.632   9.800   6.913
31746WAT     H295481   3.496   9.870   6.970
31747WAT      O95482   4.432   7.068   6.695
31747WAT     H195483   4.458   7.139   6.629
31747WAT     H295484   4.476   6.982   6.670
31748WAT      O95485   4.211   1.342   0.848
31748WAT     H195486   4.140   1.349   0.918
31748WAT     H295487   4.169   1.350   0.757
31749WAT      O95488   6.340   8.540   2.453
31749WAT     H195489   6.275   8.485   2.505
31749WAT     H295490   6.425   8.549   2.505
31750WAT      O95491   6.785   0.990   4.305
31750WAT     H195492   6.790   0.908   4.248
31750WAT     H295493   6.710   1.048   4.272
31751WAT      O95494   1.452   8.917   4.243
31751WAT     H195495   1.513   8.970   4.184
31751WAT     H295496   1.357   8.935   4.218
31752WAT      O95497   2.487   1.471   7.835
31752WAT     H195498   2.435   1.424   7.906
31752WAT     H295499   2.448   1.448   7.745
31753WAT      O95500   8.045   1.347   5.407
31753WAT     H195501   8.011   1.280   5.473
31753WAT     H295502   8.050   1.437   5.450
31754WAT      O95503   3.119   4.961   9.176
31754WAT     H195504   3.146   5.024   9.104
31754WAT     H295505   3.200   4.930   9.226
31755WAT      O95506   0.851   6.740   3.637
31755WAT     H195507   0.867   6.799   3.558
31755WAT     H295508   0.773   6.680   3.619
31756WAT      O95509   1.100   4.636   6.299
31756WAT     H195510   1.024   4.699   6.282
31756WAT     H295511   1.171   4.651   6.230
31757WAT      O95512   7.747   8.669   7.726
31757WAT     H195513   7.667   8.676   7.786
31757WAT     H295514   7.722   8.617   7.645
31758WAT      O95515   0.763   9.245   2.587
31758WAT     H195516   0.829   9.276   2.520
31758WAT     H295517   0.715   9.323   2.626
31759WAT      O95518   6.823   5.296   6.143
31759WAT     H195519   6.873   5.217   6.179
31759WAT     H295520   6.772   5.269   6.062
31760WAT      O95521   5.746   9.744   4.722
31760WAT     H195522   5.696   9.796   4.653
31760WAT     H295523   5.811   9.682   4.678
31761WAT      O95524   3.088   1.102   9.656
31761WAT     H195525   3.050   1.026   9.603
31761WAT     H295526   3.152   1.067   9.725
31762WAT      O95527   1.873   2.289   2.794
31762WAT     H195528   1.860   2.235   2.711
31762WAT     H295529   1.787   2.297   2.844
31763WAT      O95530   7.257   0.528   3.190
31763WAT     H195531   7.286   0.523   3.094
31763WAT     H295532   7.275   0.440   3.234
31764WAT      O95533   3.750   2.779   6.295
31764WAT     H195534   3.691   2.829   6.357
31764WAT     H295535   3.696   2.743   6.219
31765WAT      O95536   8.723   3.469   5.674
31765WAT     H195537   8.753   3.466   5.579
31765WAT     H295538   8.628   3.437   5.680
31766WAT      O95539   6.607   1.360   4.792
31766WAT     H195540   6.538   1.327   4.728
31766WAT     H295541   6.585   1.329   4.884
31767WAT      O95542   0.073   1.348   7.907
31767WAT     H195543  -0.019   1.323   7.877
31767WAT     H295544   0.108   1.421   7.849
31768WAT      O95545   2.214   7.329   6.096
31768WAT     H195546   2.294   7.279   6.129
31768WAT     H295547   2.241   7.385   6.017
31769WAT      O95548   4.578   5.071   2.139
31769WAT     H195549   4.482   5.086   2.164
31769WAT     H295550   4.604   5.134   2.066
31770WAT      O95551   6.519   5.961   1.178
31770WAT     H195552   6.477   5.970   1.088
31770WAT     H295553   6.615   5.934   1.167
31771WAT      O95554   9.529   7.482   2.712
31771WAT     H195555   9.445   7.429   2.721
31771WAT     H295556   9.572   7.462   2.623
31772WAT      O95557   6.120   7.641   4.290
31772WAT     H195558   6.082   7.712   4.230
31772WAT     H295559   6.100   7.663   4.385
31773WAT      O95560   2.757   7.371   1.346
31773WAT     H195561   2.732   7.373   1.249
31773WAT     H295562   2.841   7.317   1.358
31774WAT      O95563   9.662   3.841   7.648
31774WAT     H195564   9.741   3.795   7.688
31774WAT     H295565   9.692   3.912   7.585
31775WAT      O95566   7.562   9.194   4.536
31775WAT     H195567   7.481   9.252   4.526
31775WAT     H295568   7.610   9.188   4.448
31776WAT      O95569   6.556   8.865   5.355
31776WAT     H195570   6.590   8.958   5.342
31776WAT     H295571   6.542   8.847   5.452
31777WAT      O95572   5.228   9.630   0.394
31777WAT     H195573   5.237   9.728   0.414
31777WAT     H295574   5.314   9.596   0.355
31778WAT      O95575   3.707   8.245   0.264
31778WAT     H195576   3.696   8.186   0.344
31778WAT     H295577   3.661   8.204   0.185
31779WAT      O95578   1.735   3.819   0.663
31779WAT     H195579   1.646   3.865   0.658
31779WAT     H295580   1.808   3.887   0.663
31780WAT      O95581   4.922   8.924   5.991
31780WAT     H195582   4.994   8.931   5.922
31780WAT     H295583   4.860   8.849   5.967
31781WAT      O95584   6.081   2.274   6.029
31781WAT     H195585   6.009   2.295   6.095
31781WAT     H295586   6.170   2.275   6.075
31782WAT      O95587   1.030   2.443   9.308
31782WAT     H195588   0.978   2.527   9.296
31782WAT     H295589   1.035   2.394   9.221
31783WAT      O95590   8.377   9.521   1.172
31783WAT     H195591   8.344   9.429   1.151
31783WAT     H295592   8.326   9.558   1.249
31784WAT      O95593   8.947   8.473   7.256
31784WAT     H195594   8.943   8.380   7.221
31784WAT     H295595   8.859   8.498   7.295
31785WAT      O95596   3.682   0.003   9.447
31785WAT     H195597   3.621   0.064   9.397
31785WAT     H295598   3.629  -0.064   9.498
31786WAT      O95599   1.962   6.326   7.688
31786WAT     H195600   1.955   6.311   7.786
31786WAT     H295601   2.000   6.244   7.645
31787WAT      O95602   4.234   4.374   9.253
31787WAT     H195603   4.215   4.425   9.337
31787WAT     H295604   4.333   4.369   9.239
31788WAT      O95605   3.790   5.495   0.412
31788WAT     H195606   3.795   5.528   0.506
31788WAT     H295607   3.702   5.450   0.397
31789WAT      O95608   5.988   5.933   3.101
31789WAT     H195609   6.010   6.030   3.103
31789WAT     H295610   5.890   5.921   3.086
31790WAT      O95611   8.564   8.579   5.533
31790WAT     H195612   8.482   8.627   5.501
31790WAT     H295613   8.634   8.585   5.462
31791WAT      O95614   2.268   2.289   2.878
31791WAT     H195615   2.282   2.346   2.797
31791WAT     H295616   2.340   2.220   2.884
31792WAT      O95617   7.304   0.211   7.985
31792WAT     H195618   7.208   0.194   7.965
31792WAT     H295619   7.312   0.260   8.071
31793WAT      O95620   5.890   3.431   4.855
31793WAT     H195621   5.932   3.499   4.916
31793WAT     H295622   5.797   3.411   4.885
31794WAT      O95623   3.240   8.744   5.364
31794WAT     H195624   3.328   8.721   5.322
31794WAT     H295625   3.235   8.843   5.377
31795WAT      O95626   9.446   7.022   0.976
31795WAT     H195627   9.380   6.955   1.010
31795WAT     H295628   9.450   7.017   0.876
31796WAT      O95629   7.679   3.095   2.347
31796WAT     H195630   7.740   3.097   2.268
31796WAT     H295631   7.585   3.079   2.317
31797WAT      O95632   3.006   2.999   3.210
31797WAT     H195633   3.077   2.929   3.198
31797WAT     H295634   3.042   3.071   3.270
31798WAT      O95635   0.861   0.970   4.776
31798WAT     H195636   0.791   0.994   4.708
31798WAT     H295637   0.833   0.887   4.824
31799WAT      O95638   2.823   6.772   5.043
31799WAT     H195639   2.833   6.847   5.108
31799WAT     H295640   2.805   6.810   4.952
31800WAT      O95641   9.397   4.426   6.911
31800WAT     H195642   9.452   4.380   6.842
31800WAT     H295643   9.433   4.518   6.927
31801WAT      O95644   5.107   0.781   9.337
31801WAT     H195645   5.118   0.876   9.367
31801WAT     H295646   5.054   0.731   9.405
31802WAT      O95647   7.102   0.078   9.132
31802WAT     H195648   7.117   0.074   9.231
31802WAT     H295649   7.076   0.171   9.107
31803WAT      O95650   2.950   3.604   6.234
31803WAT     H195651   3.013   3.639   6.164
31803WAT     H295652   2.856   3.624   6.207
31804WAT      O95653   1.608   4.979   6.627
31804WAT     H195654   1.667   5.056   6.648
31804WAT     H295655   1.586   4.929   6.711
31805WAT      O95656   8.894   9.729   3.944
31805WAT     H195657   8.804   9.761   3.974
31805WAT     H295658   8.965   9.770   4.002
31806WAT      O95659   4.108   6.415   2.765
31806WAT     H195660   4.200   6.416   2.803
31806WAT     H295661   4.054   6.488   2.806
31807WAT      O95662   1.141   6.015   0.985
31807WAT     H195663   1.158   6.006   0.887
31807WAT     H295664   1.194   5.946   1.035
31808WAT      O95665   5.138   5.634   2.289
31808WAT     H195666   5.049   5.661   2.252
31808WAT     H295667   5.189   5.715   2.318
31809WAT      O95668   6.889   8.475   1.113
31809WAT     H195669   6.928   8.506   1.200
31809WAT     H295670   6.871   8.555   1.055
31810WAT      O95671   7.326   1.031   5.419
31810WAT     H195672   7.425   1.033   5.412
31810WAT     H295673   7.297   1.085   5.499
31811WAT      O95674   8.003   7.468   0.008
31811WAT     H195675   7.908   7.443  -0.008
31811WAT     H295676   8.036   7.525  -0.068
31812WAT      O95677   0.925   0.351   7.752
31812WAT     H195678   1.019   0.384   7.747
31812WAT     H295679   0.926   0.252   7.772
31813WAT      O95680   9.402   0.878   9.519
31813WAT     H195681   9.465   0.882   9.598
31813WAT     H295682   9.312   0.850   9.551
31814WAT      O95683   1.551   1.386   7.166
31814WAT     H195684   1.587   1.462   7.111
31814WAT     H295685   1.621   1.314   7.172
31815WAT      O95686   0.354   6.605   8.209
31815WAT     H195687   0.367   6.703   8.225
31815WAT     H295688   0.430   6.554   8.251
31816WAT      O95689   6.498   9.738   7.460
31816WAT     H195690   6.577   9.750   7.520
31816WAT     H295691   6.501   9.807   7.388
31817WAT      O95692   7.400   4.076   9.159
31817WAT     H195693   7.305   4.088   9.190
31817WAT     H295694   7.460   4.066   9.238
31818WAT      O95695   5.907   1.741   4.557
31818WAT     H195696   5.854   1.692   4.626
31818WAT     H295697   5.845   1.774   4.485
31819WAT      O95698   1.635   2.958   5.317
31819WAT     H195699   1.637   2.924   5.223
31819WAT     H295700   1.725   2.991   5.343
31820WAT      O95701   0.893   3.328   9.026
31820WAT     H195702   0.955   3.261   9.067
31820WAT     H295703   0.814   3.340   9.085
31821WAT      O95704   5.975   6.992   6.827
31821WAT     H195705   6.038   7.018   6.754
31821WAT     H295706   5.902   7.059   6.835
31822WAT      O95707   6.852   5.809   2.207
31822WAT     H195708   6.780   5.835   2.271
31822WAT     H295709   6.837   5.715   2.176
31823WAT      O95710   1.001   3.194   1.339
31823WAT     H195711   0.913   3.208   1.384
31823WAT     H295712   0.997   3.232   1.247
31824WAT      O95713   4.540   1.706   2.444
31824WAT     H195714   4.568   1.801   2.439
31824WAT     H295715   4.531   1.668   2.352
31825WAT      O95716   1.087   1.508   2.095
31825WAT     H195717   1.171   1.547   2.060
31825WAT     H295718   1.019   1.580   2.109
31826WAT      O95719   8.543   1.423   5.180
31826WAT     H195720   8.507   1.449   5.269
31826WAT     H295721   8.532   1.499   5.116
31827WAT      O95722   1.957   0.253   6.180
31827WAT     H195723   1.908   0.298   6.255
31827WAT     H295724   1.911   0.168   6.156
31828WAT      O95725   8.221   4.915   8.107
31828WAT     H195726   8.273   4.869   8.179
31828WAT     H295727   8.124   4.917   8.132
31829WAT      O95728   1.443   8.822   5.943
31829WAT     H195729   1.391   8.796   6.025
31829WAT     H295730   1.382   8.825   5.864
31830WAT      O95731   8.243   3.248   6.878
31830WAT     H195732   8.310   3.242   6.803
31830WAT     H295733   8.190   3.164   6.882
31831WAT      O95734   2.438   6.022   8.294
31831WAT     H195735   2.389   6.109   8.303
31831WAT     H295736   2.426   5.968   8.378
31832WAT      O95737   9.893   1.401   7.172
31832WAT     H195738   9.826   1.362   7.109
31832WAT     H295739   9.848   1.470   7.230
31833WAT      O95740   4.636   4.216   4.990
31833WAT     H195741   4.587   4.140   5.032
31833WAT     H295742   4.685   4.184   4.909
31834WAT      O95743   1.612   0.516   0.495
31834WAT     H195744   1.546   0.528   0.420
31834WAT     H295745   1.585   0.436   0.549
31835WAT      O95746   7.162   2.020   6.615
31835WAT     H195747   7.114   1.958   6.554
31835WAT     H295748   7.206   1.967   6.688
31836WAT      O95749   1.976   6.866   8.304
31836WAT     H195750   2.039   6.850   8.228
31836WAT     H295751   1.962   6.964   8.315
31837WAT      O95752   9.514   3.936   0.240
31837WAT     H195753   9.589   3.973   0.185
31837WAT     H295754   9.441   4.004   0.247
31838WAT      O95755   5.152   6.361   7.679
31838WAT     H195756   5.075   6.424   7.684
31838WAT     H295757   5.163   6.314   7.766
31839WAT      O95758   1.260   1.501   1.501
31839WAT     H195759   1.348   1.477   1.540
31839WAT     H295760   1.245   1.448   1.417
31840WAT      O95761   8.101   2.864   1.865
31840WAT     H195762   8.187   2.878   1.816
31840WAT     H295763   8.114   2.792   1.934
31841WAT      O95764   3.554   0.586   0.057
31841WAT     H195765   3.645   0.578   0.098
31841WAT     H295766   3.484   0.571   0.127
31842WAT      O95767   5.709   3.699   1.162
31842WAT     H195768   5.762   3.782   1.142
31842WAT     H295769   5.689   3.651   1.077
31843WAT      O95770   8.327   8.684   0.770
31843WAT     H195771   8.307   8.684   0.869
31843WAT     H295772   8.365   8.773   0.744
31844WAT      O95773   7.452   6.561   9.152
31844WAT     H195774   7.455   6.660   9.152
31844WAT     H295775   7.397   6.528   9.075
31845WAT      O95776   1.242   0.333   0.563
31845WAT     H195777   1.263   0.422   0.523
31845WAT     H295778   1.223   0.343   0.661
31846WAT      O95779   2.191   1.870   1.524
31846WAT     H195780   2.184   1.924   1.607
31846WAT     H295781   2.287   1.853   1.503
31847WAT      O95782   5.069   9.040   0.744
31847WAT     H195783   4.991   8.979   0.759
31847WAT     H295784   5.053   9.094   0.661
31848WAT      O95785   5.280   9.828   7.443
31848WAT     H195786   5.315   9.741   7.476
31848WAT     H295787   5.192   9.847   7.487
31849WAT      O95788   3.116   4.309   9.393
31849WAT     H195789   3.074   4.262   9.471
31849WAT     H295790   3.164   4.390   9.425
31850WAT      O95791   8.485   3.028   8.410
31850WAT     H195792   8.498   3.081   8.494
31850WAT     H295793   8.552   2.954   8.407
31851WAT      O95794   4.774   5.604   6.397
31851WAT     H195795   4.732   5.544   6.329
31851WAT     H295796   4.823   5.550   6.465
31852WAT      O95797   0.901   4.662   8.605
31852WAT     H195798   0.904   4.665   8.505
31852WAT     H295799   0.882   4.569   8.635
31853WAT      O95800   2.763   7.090   9.316
31853WAT     H195801   2.801   7.145   9.391
31853WAT     H295802   2.837   7.037   9.274
31854WAT      O95803   8.976   1.797   0.120
31854WAT     H195804   8.887   1.833   0.147
31854WAT     H295805   9.024   1.864   0.064
31855WAT      O95806   3.920   6.059   8.395
31855WAT     H195807   3.997   6.078   8.455
31855WAT     H295808   3.941   6.092   8.303
31856WAT      O95809   2.724   3.032   4.565
31856WAT     H195810   2.702   3.129   4.573
31856WAT     H295811   2.708   3.001   4.471
31857WAT      O95812   7.802   4.563   4.325
31857WAT     H195813   7.743   4.588   4.402
31857WAT     H295814   7.886   4.521   4.359
31858WAT      O95815   3.928   0.682   7.903
31858WAT     H195816   3.946   0.677   8.001
31858WAT     H295817   3.851   0.624   7.880
31859WAT      O95818   5.933   1.226   8.137
31859WAT     H195819   5.874   1.244   8.058
31859WAT     H295820   6.005   1.296   8.140
31860WAT      O95821   1.655   5.018   1.381
31860WAT     H195822   1.662   5.082   1.458
31860WAT     H295823   1.683   5.065   1.297
31861WAT      O95824   6.721   4.185   4.456
31861WAT     H195825   6.661   4.112   4.487
31861WAT     H295826   6.801   4.191   4.517
31862WAT      O95827   8.197   6.171   8.818
31862WAT     H195828   8.142   6.200   8.740
31862WAT     H295829   8.148   6.190   8.903
31863WAT      O95830   6.409   1.286   5.484
31863WAT     H195831   6.413   1.187   5.474
31863WAT     H295832   6.401   1.329   5.394
31864WAT      O95833   9.023   5.445   9.821
31864WAT     H195834   9.011   5.346   9.829
31864WAT     H295835   9.042   5.469   9.726
31865WAT      O95836   8.105   2.296   7.721
31865WAT     H195837   8.065   2.383   7.693
31865WAT     H295838   8.126   2.241   7.639
31866WAT      O95839   4.365   6.029   3.216
31866WAT     H195840   4.266   6.032   3.232
31866WAT     H295841   4.404   6.119   3.233
31867WAT      O95842   5.875   0.964   4.743
31867WAT     H195843   5.959   0.910   4.732
31867WAT     H295844   5.829   0.971   4.654
31868WAT      O95845   1.830   6.003   6.836
31868WAT     H195846   1.738   5.968   6.855
31868WAT     H295847   1.888   5.988   6.916
31869WAT      O95848   1.924   4.977   6.899
31869WAT     H195849   1.983   5.040   6.948
31869WAT     H295850   1.899   5.016   6.810
31870WAT      O95851   2.486   6.586   4.291
31870WAT     H195852   2.468   6.543   4.379
31870WAT     H295853   2.581   6.617   4.287
31871WAT      O95854   8.028   9.210   1.644
31871WAT     H195855   8.090   9.144   1.602
31871WAT     H295856   7.936   9.196   1.607
31872WAT      O95857   2.397   4.407   7.761
31872WAT     H195858   2.401   4.449   7.852
31872WAT     H295859   2.303   4.379   7.742
31873WAT      O95860   2.525   2.434   0.600
31873WAT     H195861   2.619   2.441   0.632
31873WAT     H295862   2.524   2.420   0.502
31874WAT      O95863   4.079   0.581   0.465
31874WAT     H195864   3.999   0.566   0.523
31874WAT     H295865   4.155   0.613   0.521
31875WAT      O95866   0.947   7.796   8.309
31875WAT     H195867   0.903   7.864   8.368
31875WAT     H295868   1.045   7.794   8.329
31876WAT      O95869   7.288   5.236   1.365
31876WAT     H195870   7.378   5.211   1.400
31876WAT     H295871   7.235   5.280   1.438
31877WAT      O95872   6.321   1.662   2.823
31877WAT     H195873   6.300   1.625   2.732
31877WAT     H295874   6.236   1.668   2.876
31878WAT      O95875   5.916   6.353   0.322
31878WAT     H195876   5.967   6.272   0.351
31878WAT     H295877   5.884   6.339   0.228
31879WAT      O95878   7.709   8.446   7.469
31879WAT     H195879   7.669   8.392   7.395
31879WAT     H295880   7.771   8.389   7.523
31880WAT      O95881   8.224   7.122   1.295
31880WAT     H195882   8.182   7.032   1.283
31880WAT     H295883   8.303   7.129   1.233
31881WAT      O95884   8.760   8.373   6.142
31881WAT     H195885   8.746   8.294   6.202
31881WAT     H295886   8.815   8.442   6.190
31882WAT      O95887   8.440   7.346   7.156
31882WAT     H195888   8.390   7.429   7.132
31882WAT     H295889   8.412   7.316   7.247
31883WAT      O95890   5.369   5.697   8.337
31883WAT     H195891   5.299   5.632   8.309
31883WAT     H295892   5.336   5.750   8.415
31884WAT      O95893   4.918   5.257   6.485
31884WAT     H195894   4.883   5.179   6.536
31884WAT     H295895   4.909   5.340   6.540
31885WAT      O95896   4.730   9.722   4.970
31885WAT     H195897   4.702   9.733   5.065
31885WAT     H295898   4.691   9.795   4.915
31886WAT      O95899   1.627   0.086   6.935
31886WAT     H195900   1.564   0.016   6.971
31886WAT     H295901   1.713   0.083   6.985
31887WAT      O95902   4.775   3.612   8.300
31887WAT     H195903   4.703   3.543   8.309
31887WAT     H295904   4.845   3.580   8.236
31888WAT      O95905   0.480   3.566   9.027
31888WAT     H195906   0.433   3.490   8.981
31888WAT     H295907   0.459   3.651   8.980
31889WAT      O95908   3.449   3.312   2.490
31889WAT     H195909   3.382   3.369   2.538
31889WAT     H295910   3.452   3.221   2.531
31890WAT      O95911   4.204   4.468   7.883
31890WAT     H195912   4.218   4.448   7.786
31890WAT     H295913   4.281   4.521   7.918
31891WAT      O95914   6.186   1.437   9.204
31891WAT     H195915   6.123   1.471   9.273
31891WAT     H295916   6.246   1.512   9.175
31892WAT      O95917   8.499   8.419   2.061
31892WAT     H195918   8.403   8.399   2.083
31892WAT     H295919   8.510   8.421   1.962
31893WAT      O95920   4.204   2.199   3.237
31893WAT     H195921   4.179   2.225   3.144
31893WAT     H295922   4.247   2.108   3.236
31894WAT      O95923   5.234   6.430   8.534
31894WAT     H195924   5.233   6.381   8.621
31894WAT     H295925   5.269   6.522   8.548
31895WAT      O95926   1.382   1.709   7.580
31895WAT     H195927   1.352   1.799   7.547
31895WAT     H295928   1.474   1.716   7.618
31896WAT      O95929   1.443   2.755   7.929
31896WAT     H195930   1.542   2.765   7.917
31896WAT     H295931   1.402   2.845   7.943
31897WAT      O95932   7.293   7.462   5.106
31897WAT     H195933   7.284   7.506   5.016
31897WAT     H295934   7.299   7.532   5.177
31898WAT      O95935   3.308   5.015   7.095
31898WAT     H195936   3.230   5.046   7.150
31898WAT     H295937   3.285   5.022   6.998
31899WAT      O95938   1.442   8.309   4.980
31899WAT     H195939   1.357   8.308   4.928
31899WAT     H295940   1.422   8.304   5.078
   9.88928    9.84380    9.89279 
