GROningen MAchine for Chemical Simulation
95940
    1G5    HO5'    1   6.260   6.962   6.616
    1G5     O5'    2   6.355   6.948   6.615
    1G5     C5'    3   6.418   7.062   6.558
    1G5     H5'    4   6.459   7.123   6.639
    1G5    H5''    5   6.340   7.112   6.500
    1G5     C4'    6   6.540   7.037   6.458
    1G5     H4'    7   6.575   7.133   6.421
    1G5     O4'    8   6.638   6.964   6.524
    1G5     C1'    9   6.686   6.860   6.445
    1G5     H1'   10   6.793   6.878   6.445
    1G5      N9   11   6.663   6.720   6.497
    1G5      C8   12   6.631   6.682   6.621
    1G5      H8   13   6.603   6.755   6.695
    1G5      N7   14   6.643   6.554   6.644
    1G5      C5   15   6.701   6.506   6.523
    1G5      C6   16   6.754   6.376   6.491
    1G5      O6   17   6.740   6.270   6.551
    1G5      N1   18   6.813   6.361   6.369
    1G5      H1   19   6.857   6.277   6.336
    1G5      C2   20   6.814   6.472   6.289
    1G5      N2   21   6.882   6.467   6.185
    1G5     H21   22   6.919   6.382   6.146
    1G5     H22   23   6.897   6.546   6.124
    1G5      N3   24   6.769   6.592   6.317
    1G5      C4   25   6.711   6.606   6.438
    1G5     C3'   26   6.499   6.955   6.335
    1G5     H3'   27   6.418   6.889   6.366
    1G5     C2'   28   6.627   6.884   6.311
    1G5     H2'   29   6.605   6.789   6.262
    1G5     O2'   30   6.735   6.955   6.248
    1G5    HO2'   31   6.688   7.028   6.208
    1G5     O3'   32   6.472   7.034   6.223
    2G        P   33   6.355   6.990   6.121
    2G      OP1   34   6.350   7.101   6.022
    2G      OP2   35   6.235   6.953   6.192
    2G      O5'   36   6.411   6.859   6.047
    2G      C5'   37   6.508   6.862   5.947
    2G      H5'   38   6.598   6.909   5.984
    2G     H5''   39   6.465   6.922   5.867
    2G      C4'   40   6.542   6.717   5.914
    2G      H4'   41   6.610   6.722   5.829
    2G      O4'   42   6.619   6.656   6.016
    2G      C1'   43   6.594   6.513   6.009
    2G      H1'   44   6.691   6.465   5.999
    2G       N9   45   6.523   6.473   6.135
    2G       C8   46   6.462   6.549   6.238
    2G       H8   47   6.442   6.654   6.227
    2G       N7   48   6.421   6.472   6.338
    2G       C5   49   6.473   6.347   6.301
    2G       C6   50   6.471   6.221   6.376
    2G       O6   51   6.437   6.196   6.491
    2G       N1   52   6.526   6.117   6.309
    2G       H1   53   6.540   6.027   6.353
    2G       C2   54   6.574   6.128   6.185
    2G       N2   55   6.641   6.026   6.136
    2G      H21   56   6.672   5.946   6.188
    2G      H22   57   6.669   6.044   6.041
    2G       N3   58   6.583   6.236   6.112
    2G       C4   59   6.531   6.344   6.178
    2G      C3'   60   6.424   6.628   5.874
    2G      H3'   61   6.362   6.632   5.964
    2G      C2'   62   6.498   6.496   5.887
    2G      H2'   63   6.424   6.418   5.906
    2G      O2'   64   6.574   6.470   5.765
    2G     HO2'   65   6.595   6.377   5.753
    2G      O3'   66   6.355   6.652   5.753
    3G        P   67   6.203   6.595   5.739
    3G      OP1   68   6.156   6.636   5.607
    3G      OP2   69   6.119   6.632   5.858
    3G      O5'   70   6.222   6.438   5.730
    3G      C5'   71   6.294   6.372   5.624
    3G      H5'   72   6.384   6.431   5.608
    3G     H5''   73   6.234   6.375   5.534
    3G      C4'   74   6.328   6.221   5.656
    3G      H4'   75   6.391   6.170   5.584
    3G      O4'   76   6.389   6.200   5.787
    3G      C1'   77   6.334   6.093   5.858
    3G      H1'   78   6.415   6.022   5.876
    3G       N9   79   6.267   6.126   5.981
    3G       C8   80   6.201   6.244   6.004
    3G       H8   81   6.187   6.325   5.934
    3G       N7   82   6.181   6.259   6.130
    3G       C5   83   6.207   6.135   6.190
    3G       C6   84   6.188   6.093   6.326
    3G       O6   85   6.138   6.150   6.419
    3G       N1   86   6.224   5.960   6.343
    3G       H1   87   6.232   5.925   6.437
    3G       C2   88   6.268   5.877   6.242
    3G       N2   89   6.281   5.755   6.269
    3G      H21   90   6.275   5.726   6.366
    3G      H22   91   6.324   5.696   6.200
    3G       N3   92   6.281   5.916   6.114
    3G       C4   93   6.250   6.047   6.094
    3G      C3'   94   6.206   6.141   5.663
    3G      H3'   95   6.117   6.193   5.698
    3G      C2'   96   6.243   6.026   5.760
    3G      H2'   97   6.160   5.983   5.815
    3G      O2'   98   6.317   5.920   5.702
    3G     HO2'   99   6.321   5.849   5.765
    3G      O3'  100   6.167   6.094   5.527
    4U        P  101   6.015   6.050   5.497
    4U      OP1  102   5.995   5.999   5.363
    4U      OP2  103   5.925   6.150   5.551
    4U      O5'  104   5.998   5.927   5.587
    4U      C5'  105   6.047   5.795   5.558
    4U      H5'  106   6.153   5.804   5.538
    4U     H5''  107   5.993   5.757   5.471
    4U      C4'  108   6.036   5.695   5.679
    4U      H4'  109   6.107   5.615   5.661
    4U      O4'  110   6.062   5.757   5.808
    4U      C1'  111   6.002   5.674   5.910
    4U      H1'  112   6.088   5.612   5.938
    4U       N1  113   5.956   5.758   6.028
    4U       C6  114   5.931   5.895   6.028
    4U       H6  115   5.930   5.943   5.932
    4U       C5  116   5.887   5.972   6.130
    4U       H5  117   5.866   6.078   6.121
    4U       C4  118   5.856   5.901   6.250
    4U       O4  119   5.791   5.944   6.343
    4U       N3  120   5.882   5.767   6.247
    4U       H3  121   5.862   5.719   6.334
    4U       C2  122   5.950   5.697   6.150
    4U       O2  123   5.994   5.583   6.169
    4U      C3'  124   5.892   5.642   5.692
    4U      H3'  125   5.817   5.720   5.678
    4U      C2'  126   5.888   5.593   5.839
    4U      H2'  127   5.788   5.617   5.875
    4U      O2'  128   5.918   5.452   5.855
    4U     HO2'  129   5.838   5.410   5.823
    4U      O3'  130   5.876   5.530   5.609
    5U        P  131   5.736   5.460   5.583
    5U      OP1  132   5.736   5.388   5.458
    5U      OP2  133   5.638   5.576   5.594
    5U      O5'  134   5.719   5.364   5.708
    5U      C5'  135   5.748   5.222   5.700
    5U      H5'  136   5.856   5.213   5.693
    5U     H5''  137   5.721   5.184   5.601
    5U      C4'  138   5.689   5.135   5.810
    5U      H4'  139   5.705   5.028   5.792
    5U      O4'  140   5.751   5.185   5.927
    5U      C1'  141   5.666   5.153   6.035
    5U      H1'  142   5.710   5.066   6.083
    5U       N1  143   5.674   5.269   6.137
    5U       C6  144   5.636   5.395   6.107
    5U       H6  145   5.609   5.426   6.007
    5U       C5  146   5.641   5.492   6.203
    5U       H5  147   5.626   5.595   6.173
    5U       C4  148   5.712   5.468   6.326
    5U       O4  149   5.744   5.556   6.397
    5U       N3  150   5.749   5.342   6.348
    5U       H3  151   5.815   5.329   6.424
    5U       C2  152   5.729   5.240   6.263
    5U       O2  153   5.759   5.132   6.307
    5U      C3'  154   5.542   5.151   5.828
    5U      H3'  155   5.514   5.254   5.806
    5U      C2'  156   5.526   5.132   5.977
    5U      H2'  157   5.458   5.207   6.015
    5U      O2'  158   5.482   5.003   6.000
    5U     HO2'  159   5.456   4.968   5.914
    5U      O3'  160   5.469   5.058   5.749
    6A        P  161   5.433   5.090   5.604
    6A      OP1  162   5.488   4.990   5.516
    6A      OP2  163   5.468   5.232   5.580
    6A      O5'  164   5.276   5.090   5.622
    6A      C5'  165   5.214   4.962   5.625
    6A      H5'  166   5.271   4.891   5.685
    6A     H5''  167   5.204   4.918   5.526
    6A      C4'  168   5.082   4.971   5.705
    6A      H4'  169   5.050   4.866   5.704
    6A      O4'  170   5.082   5.021   5.839
    6A      C1'  171   4.985   5.132   5.844
    6A      H1'  172   4.950   5.134   5.947
    6A       N9  173   5.056   5.258   5.827
    6A       C8  174   5.194   5.274   5.822
    6A       H8  175   5.267   5.195   5.828
    6A       N7  176   5.232   5.405   5.813
    6A       C5  177   5.109   5.467   5.799
    6A       C6  178   5.080   5.604   5.780
    6A       N6  179   5.178   5.697   5.766
    6A      H61  180   5.147   5.792   5.751
    6A      H62  181   5.267   5.670   5.804
    6A       N1  182   4.954   5.644   5.763
    6A       C2  183   4.861   5.553   5.784
    6A       H2  184   4.757   5.581   5.784
    6A       N3  185   4.873   5.421   5.814
    6A       C4  186   5.004   5.386   5.817
    6A      C3'  187   4.977   5.042   5.635
    6A      H3'  188   5.010   5.132   5.584
    6A      C2'  189   4.884   5.094   5.739
    6A      H2'  190   4.830   5.183   5.706
    6A      O2'  191   4.801   4.981   5.792
    6A     HO2'  192   4.745   4.945   5.723
    6A      O3'  193   4.911   4.960   5.539
    7G        P  194   4.908   5.000   5.385
    7G      OP1  195   4.833   4.891   5.314
    7G      OP2  196   5.046   5.030   5.344
    7G      O5'  197   4.835   5.136   5.373
    7G      C5'  198   4.697   5.136   5.389
    7G      H5'  199   4.684   5.111   5.494
    7G     H5''  200   4.651   5.069   5.316
    7G      C4'  201   4.648   5.281   5.363
    7G      H4'  202   4.541   5.299   5.373
    7G      O4'  203   4.705   5.371   5.452
    7G      C1'  204   4.744   5.490   5.384
    7G      H1'  205   4.705   5.582   5.429
    7G       N9  206   4.889   5.501   5.390
    7G       C8  207   4.980   5.429   5.458
    7G       H8  208   4.953   5.328   5.487
    7G       N7  209   5.104   5.474   5.461
    7G       C5  210   5.086   5.603   5.415
    7G       C6  211   5.186   5.706   5.409
    7G       O6  212   5.304   5.701   5.443
    7G       N1  213   5.145   5.809   5.326
    7G       H1  214   5.215   5.878   5.300
    7G       C2  215   5.027   5.814   5.264
    7G       N2  216   5.028   5.898   5.160
    7G      H21  217   5.108   5.948   5.125
    7G      H22  218   4.946   5.892   5.101
    7G       N3  219   4.927   5.719   5.270
    7G       C4  220   4.964   5.615   5.352
    7G      C3'  221   4.684   5.324   5.224
    7G      H3'  222   4.783   5.281   5.207
    7G      C2'  223   4.700   5.473   5.240
    7G      H2'  224   4.773   5.514   5.170
    7G      O2'  225   4.563   5.528   5.225
    7G     HO2'  226   4.527   5.475   5.154
    7G      O3'  227   4.595   5.287   5.127
    8G        P  228   4.644   5.255   4.980
    8G      OP1  229   4.518   5.256   4.908
    8G      OP2  230   4.737   5.142   4.982
    8G      O5'  231   4.729   5.385   4.938
    8G      C5'  232   4.671   5.503   4.899
    8G      H5'  233   4.616   5.562   4.973
    8G     H5''  234   4.598   5.478   4.821
    8G      C4'  235   4.780   5.592   4.844
    8G      H4'  236   4.738   5.675   4.787
    8G      O4'  237   4.862   5.651   4.949
    8G      C1'  238   4.998   5.649   4.902
    8G      H1'  239   5.032   5.752   4.914
    8G       N9  240   5.072   5.559   4.993
    8G       C8  241   5.047   5.438   5.048
    8G       H8  242   4.956   5.381   5.035
    8G       N7  243   5.135   5.385   5.135
    8G       C5  244   5.235   5.484   5.135
    8G       C6  245   5.346   5.494   5.220
    8G       O6  246   5.389   5.424   5.305
    8G       N1  247   5.433   5.593   5.175
    8G       H1  248   5.516   5.617   5.227
    8G       C2  249   5.390   5.697   5.100
    8G       N2  250   5.481   5.793   5.086
    8G      H21  251   5.575   5.773   5.116
    8G      H22  252   5.455   5.879   5.040
    8G       N3  253   5.274   5.704   5.040
    8G       C4  254   5.200   5.588   5.052
    8G      C3'  255   4.875   5.515   4.749
    8G      H3'  256   4.910   5.418   4.784
    8G      C2'  257   4.997   5.610   4.751
    8G      H2'  258   5.086   5.555   4.720
    8G      O2'  259   4.973   5.732   4.679
    8G     HO2'  260   4.902   5.717   4.616
    8G      O3'  261   4.822   5.506   4.614
    9G        P  262   4.886   5.413   4.495
    9G      OP1  263   4.827   5.438   4.361
    9G      OP2  264   4.896   5.274   4.546
    9G      O5'  265   5.034   5.472   4.488
    9G      C5'  266   5.088   5.555   4.382
    9G      H5'  267   5.037   5.652   4.375
    9G     H5''  268   5.069   5.507   4.286
    9G      C4'  269   5.238   5.578   4.395
    9G      H4'  270   5.273   5.649   4.320
    9G      O4'  271   5.277   5.628   4.520
    9G      C1'  272   5.398   5.564   4.558
    9G      H1'  273   5.459   5.647   4.594
    9G       N9  274   5.392   5.470   4.668
    9G       C8  275   5.301   5.376   4.711
    9G       H8  276   5.212   5.353   4.656
    9G       N7  277   5.327   5.304   4.814
    9G       C5  278   5.451   5.364   4.855
    9G       C6  279   5.536   5.355   4.970
    9G       O6  280   5.520   5.283   5.070
    9G       N1  281   5.649   5.434   4.973
    9G       H1  282   5.714   5.422   5.050
    9G       C2  283   5.674   5.527   4.881
    9G       N2  284   5.777   5.606   4.890
    9G      H21  285   5.829   5.629   4.974
    9G      H22  286   5.776   5.679   4.821
    9G       N3  287   5.606   5.540   4.772
    9G       C4  288   5.494   5.456   4.762
    9G      C3'  289   5.313   5.448   4.371
    9G      H3'  290   5.263   5.370   4.429
    9G      C2'  291   5.442   5.487   4.432
    9G      H2'  292   5.504   5.405   4.469
    9G      O2'  293   5.522   5.573   4.352
    9G     HO2'  294   5.523   5.537   4.263
    9G      O3'  295   5.323   5.425   4.232
   10U        P  296   5.319   5.273   4.174
   10U      OP1  297   5.329   5.278   4.023
   10U      OP2  298   5.204   5.210   4.240
   10U      O5'  299   5.455   5.199   4.228
   10U      C5'  300   5.581   5.234   4.181
   10U      H5'  301   5.598   5.340   4.200
   10U     H5''  302   5.587   5.212   4.075
   10U      C4'  303   5.702   5.163   4.246
   10U      H4'  304   5.794   5.186   4.192
   10U      O4'  305   5.714   5.206   4.378
   10U      C1'  306   5.773   5.099   4.451
   10U      H1'  307   5.871   5.134   4.483
   10U       N1  308   5.689   5.065   4.567
   10U       C6  309   5.549   5.065   4.567
   10U       H6  310   5.494   5.086   4.477
   10U       C5  311   5.483   5.048   4.686
   10U       H5  312   5.375   5.045   4.679
   10U       C4  313   5.552   5.035   4.814
   10U       O4  314   5.500   5.006   4.919
   10U       N3  315   5.689   5.036   4.805
   10U       H3  316   5.749   5.013   4.882
   10U       C2  317   5.755   5.041   4.693
   10U       O2  318   5.874   5.026   4.701
   10U      C3'  319   5.697   5.014   4.246
   10U      H3'  320   5.598   4.976   4.270
   10U      C2'  321   5.789   4.977   4.361
   10U      H2'  322   5.747   4.891   4.414
   10U      O2'  323   5.921   4.955   4.324
   10U     HO2'  324   5.936   4.886   4.259
   10U      O3'  325   5.737   4.970   4.114
   11U        P  326   5.713   4.834   4.047
   11U      OP1  327   5.759   4.849   3.905
   11U      OP2  328   5.576   4.782   4.070
   11U      O5'  329   5.806   4.742   4.141
   11U      C5'  330   5.920   4.685   4.086
   11U      H5'  331   6.001   4.757   4.072
   11U     H5''  332   5.887   4.638   3.994
   11U      C4'  333   5.967   4.574   4.181
   11U      H4'  334   6.059   4.532   4.140
   11U      O4'  335   5.985   4.640   4.315
   11U      C1'  336   5.951   4.543   4.415
   11U      H1'  337   6.040   4.519   4.472
   11U       N1  338   5.842   4.589   4.506
   11U       C6  339   5.722   4.634   4.462
   11U       H6  340   5.705   4.638   4.355
   11U       C5  341   5.621   4.675   4.544
   11U       H5  342   5.526   4.714   4.512
   11U       C4  343   5.643   4.683   4.685
   11U       O4  344   5.560   4.722   4.762
   11U       N3  345   5.769   4.646   4.722
   11U       H3  346   5.802   4.659   4.816
   11U       C2  347   5.869   4.600   4.642
   11U       O2  348   5.976   4.565   4.693
   11U      C3'  349   5.861   4.464   4.197
   11U      H3'  350   5.758   4.500   4.193
   11U      C2'  351   5.899   4.421   4.336
   11U      H2'  352   5.814   4.381   4.390
   11U      O2'  353   5.999   4.324   4.333
   11U     HO2'  354   5.963   4.246   4.290
   11U      O3'  355   5.870   4.358   4.098
   12A        P  356   5.749   4.255   4.069
   12A      OP1  357   5.783   4.165   3.959
   12A      OP2  358   5.620   4.330   4.071
   12A      O5'  359   5.754   4.157   4.201
   12A      C5'  360   5.852   4.053   4.215
   12A      H5'  361   5.951   4.097   4.226
   12A     H5''  362   5.846   3.998   4.121
   12A      C4'  363   5.817   3.971   4.343
   12A      H4'  364   5.877   3.880   4.336
   12A      O4'  365   5.860   4.051   4.455
   12A      C1'  366   5.770   4.025   4.560
   12A      H1'  367   5.820   3.992   4.651
   12A       N9  368   5.684   4.140   4.595
   12A       C8  369   5.622   4.237   4.514
   12A       H8  370   5.615   4.236   4.406
   12A       N7  371   5.576   4.339   4.581
   12A       C5  372   5.591   4.303   4.713
   12A       C6  373   5.536   4.357   4.843
   12A       N6  374   5.453   4.452   4.852
   12A      H61  375   5.413   4.486   4.938
   12A      H62  376   5.417   4.486   4.764
   12A       N1  377   5.578   4.299   4.956
   12A       C2  378   5.651   4.193   4.948
   12A       H2  379   5.694   4.155   5.040
   12A       N3  380   5.689   4.125   4.838
   12A       C4  381   5.659   4.187   4.724
   12A      C3'  382   5.671   3.935   4.363
   12A      H3'  383   5.607   4.016   4.329
   12A      C2'  384   5.675   3.904   4.520
   12A      H2'  385   5.580   3.910   4.573
   12A      O2'  386   5.750   3.784   4.542
   12A     HO2'  387   5.721   3.719   4.478
   12A      O3'  388   5.639   3.819   4.295
   13G        P  389   5.491   3.787   4.239
   13G      OP1  390   5.500   3.657   4.170
   13G      OP2  391   5.451   3.915   4.167
   13G      O5'  392   5.405   3.776   4.375
   13G      C5'  393   5.401   3.649   4.442
   13G      H5'  394   5.506   3.623   4.453
   13G     H5''  395   5.347   3.580   4.378
   13G      C4'  396   5.323   3.672   4.576
   13G      H4'  397   5.320   3.577   4.628
   13G      O4'  398   5.382   3.773   4.660
   13G      C1'  399   5.281   3.852   4.717
   13G      H1'  400   5.297   3.849   4.824
   13G       N9  401   5.279   3.992   4.679
   13G       C8  402   5.319   4.046   4.562
   13G       H8  403   5.377   3.992   4.489
   13G       N7  404   5.294   4.169   4.548
   13G       C5  405   5.225   4.208   4.666
   13G       C6  406   5.196   4.339   4.727
   13G       O6  407   5.217   4.449   4.676
   13G       N1  408   5.142   4.319   4.859
   13G       H1  409   5.094   4.396   4.903
   13G       C2  410   5.134   4.200   4.919
   13G       N2  411   5.074   4.191   5.035
   13G      H21  412   5.034   4.269   5.086
   13G      H22  413   5.053   4.096   5.062
   13G       N3  414   5.183   4.085   4.873
   13G       C4  415   5.228   4.092   4.751
   13G      C3'  416   5.180   3.715   4.558
   13G      H3'  417   5.192   3.789   4.480
   13G      C2'  418   5.152   3.789   4.693
   13G      H2'  419   5.080   3.871   4.686
   13G      O2'  420   5.131   3.696   4.799
   13G     HO2'  421   5.042   3.661   4.795
   13G      O3'  422   5.083   3.623   4.519
   14G        P  423   4.953   3.664   4.441
   14G      OP1  424   4.879   3.538   4.411
   14G      OP2  425   4.992   3.756   4.330
   14G      O5'  426   4.875   3.754   4.534
   14G      C5'  427   4.785   3.705   4.633
   14G      H5'  428   4.831   3.623   4.689
   14G     H5''  429   4.700   3.666   4.579
   14G      C4'  430   4.750   3.813   4.737
   14G      H4'  431   4.709   3.767   4.827
   14G      O4'  432   4.860   3.896   4.775
   14G      C1'  433   4.817   4.031   4.785
   14G      H1'  434   4.848   4.063   4.884
   14G       N9  435   4.879   4.118   4.684
   14G       C8  436   4.939   4.078   4.567
   14G       H8  437   4.964   3.976   4.544
   14G       N7  438   4.977   4.177   4.487
   14G       C5  439   4.923   4.287   4.551
   14G       C6  440   4.941   4.428   4.522
   14G       O6  441   5.013   4.485   4.439
   14G       N1  442   4.877   4.509   4.612
   14G       H1  443   4.866   4.604   4.580
   14G       C2  444   4.804   4.461   4.718
   14G       N2  445   4.749   4.545   4.796
   14G      H21  446   4.774   4.641   4.778
   14G      H22  447   4.720   4.509   4.886
   14G       N3  448   4.809   4.332   4.757
   14G       C4  449   4.864   4.254   4.667
   14G      C3'  450   4.646   3.915   4.689
   14G      H3'  451   4.673   3.943   4.587
   14G      C2'  452   4.660   4.031   4.783
   14G      H2'  453   4.614   4.120   4.740
   14G      O2'  454   4.610   4.008   4.918
   14G     HO2'  455   4.666   3.942   4.960
   14G      O3'  456   4.519   3.861   4.695
   15G        P  457   4.397   3.888   4.590
   15G      OP1  458   4.279   3.804   4.624
   15G      OP2  459   4.459   3.865   4.456
   15G      O5'  460   4.350   4.041   4.604
   15G      C5'  461   4.275   4.083   4.718
   15G      H5'  462   4.313   4.032   4.807
   15G     H5''  463   4.169   4.069   4.697
   15G      C4'  464   4.300   4.234   4.751
   15G      H4'  465   4.243   4.257   4.841
   15G      O4'  466   4.434   4.283   4.750
   15G      C1'  467   4.448   4.405   4.676
   15G      H1'  468   4.510   4.483   4.720
   15G       N9  469   4.520   4.384   4.548
   15G       C8  470   4.568   4.258   4.501
   15G       H8  471   4.541   4.166   4.552
   15G       N7  472   4.645   4.277   4.400
   15G       C5  473   4.652   4.420   4.377
   15G       C6  474   4.739   4.503   4.293
   15G       O6  475   4.824   4.472   4.214
   15G       N1  476   4.727   4.642   4.317
   15G       H1  477   4.779   4.707   4.260
   15G       C2  478   4.625   4.690   4.393
   15G       N2  479   4.632   4.817   4.416
   15G      H21  480   4.690   4.878   4.360
   15G      H22  481   4.560   4.854   4.477
   15G       N3  482   4.549   4.617   4.476
   15G       C4  483   4.574   4.486   4.472
   15G      C3'  484   4.234   4.316   4.643
   15G      H3'  485   4.252   4.272   4.545
   15G      C2'  486   4.306   4.449   4.647
   15G      H2'  487   4.287   4.505   4.556
   15G      O2'  488   4.265   4.519   4.767
   15G     HO2'  489   4.171   4.537   4.756
   15G      O3'  490   4.089   4.321   4.667
   16U        P  491   3.985   4.322   4.553
   16U      OP1  492   3.854   4.328   4.623
   16U      OP2  493   3.998   4.211   4.458
   16U      O5'  494   4.014   4.463   4.482
   16U      C5'  495   4.001   4.591   4.547
   16U      H5'  496   4.071   4.589   4.631
   16U     H5''  497   3.900   4.609   4.585
   16U      C4'  498   4.037   4.706   4.457
   16U      H4'  499   4.036   4.797   4.518
   16U      O4'  500   4.168   4.677   4.412
   16U      C1'  501   4.171   4.671   4.265
   16U      H1'  502   4.195   4.767   4.220
   16U       N1  503   4.277   4.577   4.207
   16U       C6  504   4.276   4.444   4.246
   16U       H6  505   4.204   4.404   4.316
   16U       C5  506   4.370   4.362   4.199
   16U       H5  507   4.353   4.258   4.224
   16U       C4  508   4.474   4.402   4.104
   16U       O4  509   4.559   4.332   4.054
   16U       N3  510   4.483   4.543   4.090
   16U       H3  511   4.565   4.583   4.049
   16U       C2  512   4.381   4.628   4.128
   16U       O2  513   4.397   4.748   4.105
   16U      C3'  514   3.948   4.721   4.332
   16U      H3'  515   3.852   4.678   4.360
   16U      C2'  516   4.025   4.636   4.235
   16U      H2'  517   4.014   4.528   4.252
   16U      O2'  518   3.990   4.668   4.100
   16U     HO2'  519   3.929   4.742   4.110
   16U      O3'  520   3.936   4.848   4.271
   17U        P  521   3.847   4.963   4.322
   17U      OP1  522   3.905   5.091   4.274
   17U      OP2  523   3.806   4.932   4.462
   17U      O5'  524   3.722   4.924   4.230
   17U      C5'  525   3.599   4.996   4.228
   17U      H5'  526   3.612   5.090   4.175
   17U     H5''  527   3.569   5.018   4.331
   17U      C4'  528   3.483   4.920   4.156
   17U      H4'  529   3.392   4.978   4.172
   17U      O4'  530   3.517   4.903   4.020
   17U      C1'  531   3.530   4.762   3.988
   17U      H1'  532   3.436   4.728   3.945
   17U       N1  533   3.641   4.752   3.893
   17U       C6  534   3.756   4.821   3.906
   17U       H6  535   3.769   4.892   3.987
   17U       C5  536   3.853   4.811   3.810
   17U       H5  537   3.935   4.880   3.800
   17U       C4  538   3.841   4.715   3.702
   17U       O4  539   3.926   4.707   3.612
   17U       N3  540   3.726   4.644   3.697
   17U       H3  541   3.710   4.592   3.612
   17U       C2  542   3.625   4.666   3.784
   17U       O2  543   3.518   4.603   3.760
   17U      C3'  544   3.457   4.782   4.211
   17U      H3'  545   3.493   4.779   4.314
   17U      C2'  546   3.543   4.690   4.126
   17U      H2'  547   3.647   4.699   4.159
   17U      O2'  548   3.492   4.554   4.120
   17U     HO2'  549   3.403   4.562   4.083
   17U      O3'  550   3.326   4.740   4.196
   18A        P  551   3.214   4.752   4.313
   18A      OP1  552   3.169   4.892   4.313
   18A      OP2  553   3.276   4.695   4.434
   18A      O5'  554   3.103   4.652   4.260
   18A      C5'  555   2.961   4.668   4.284
   18A      H5'  556   2.935   4.773   4.268
   18A     H5''  557   2.947   4.644   4.389
   18A      C4'  558   2.867   4.585   4.197
   18A      H4'  559   2.764   4.610   4.225
   18A      O4'  560   2.877   4.608   4.055
   18A      C1'  561   2.902   4.488   3.986
   18A      H1'  562   2.847   4.480   3.893
   18A       N9  563   3.052   4.465   3.957
   18A       C8  564   3.147   4.567   3.966
   18A       H8  565   3.137   4.657   4.025
   18A       N7  566   3.268   4.531   3.942
   18A       C5  567   3.252   4.400   3.892
   18A       C6  568   3.340   4.296   3.845
   18A       N6  569   3.474   4.296   3.848
   18A      H61  570   3.516   4.219   3.798
   18A      H62  571   3.518   4.386   3.859
   18A       N1  572   3.289   4.177   3.816
   18A       C2  573   3.159   4.157   3.835
   18A       H2  574   3.121   4.060   3.805
   18A       N3  575   3.069   4.240   3.875
   18A       C4  576   3.119   4.363   3.905
   18A      C3'  577   2.882   4.434   4.218
   18A      H3'  578   2.984   4.416   4.251
   18A      C2'  579   2.856   4.376   4.085
   18A      H2'  580   2.918   4.288   4.065
   18A      O2'  581   2.722   4.368   4.072
   18A     HO2'  582   2.696   4.344   4.162
   18A      O3'  583   2.803   4.381   4.316
   19G        P  584   2.853   4.258   4.403
   19G      OP1  585   2.748   4.205   4.499
   19G      OP2  586   2.973   4.322   4.470
   19G      O5'  587   2.891   4.134   4.313
   19G      C5'  588   2.793   4.041   4.250
   19G      H5'  589   2.719   4.087   4.184
   19G     H5''  590   2.750   3.986   4.333
   19G      C4'  591   2.881   3.936   4.178
   19G      H4'  592   2.804   3.867   4.142
   19G      O4'  593   2.959   3.984   4.072
   19G      C1'  594   3.092   3.924   4.081
   19G      H1'  595   3.123   3.880   3.986
   19G       N9  596   3.195   4.018   4.132
   19G       C8  597   3.181   4.138   4.197
   19G       H8  598   3.086   4.179   4.227
   19G       N7  599   3.297   4.195   4.226
   19G       C5  600   3.395   4.110   4.172
   19G       C6  601   3.538   4.111   4.164
   19G       O6  602   3.617   4.199   4.202
   19G       N1  603   3.599   4.000   4.111
   19G       H1  604   3.699   3.997   4.104
   19G       C2  605   3.525   3.904   4.053
   19G       N2  606   3.597   3.812   3.996
   19G      H21  607   3.697   3.813   4.005
   19G      H22  608   3.548   3.742   3.943
   19G       N3  609   3.396   3.898   4.043
   19G       C4  610   3.335   4.002   4.110
   19G      C3'  611   2.976   3.862   4.274
   19G      H3'  612   3.013   3.941   4.341
   19G      C2'  613   3.078   3.808   4.176
   19G      H2'  614   3.175   3.798   4.225
   19G      O2'  615   3.038   3.697   4.104
   19G     HO2'  616   2.974   3.647   4.154
   19G      O3'  617   2.898   3.756   4.336
   20G        P  618   2.949   3.685   4.463
   20G      OP1  619   2.865   3.563   4.462
   20G      OP2  620   2.948   3.778   4.579
   20G      O5'  621   3.100   3.649   4.430
   20G      C5'  622   3.136   3.528   4.372
   20G      H5'  623   3.083   3.501   4.281
   20G     H5''  624   3.117   3.446   4.440
   20G      C4'  625   3.286   3.517   4.343
   20G      H4'  626   3.310   3.428   4.285
   20G      O4'  627   3.346   3.632   4.272
   20G      C1'  628   3.476   3.670   4.323
   20G      H1'  629   3.549   3.682   4.243
   20G       N9  630   3.463   3.793   4.405
   20G       C8  631   3.348   3.865   4.432
   20G       H8  632   3.248   3.825   4.423
   20G       N7  633   3.365   3.992   4.462
   20G       C5  634   3.501   4.001   4.468
   20G       C6  635   3.586   4.110   4.502
   20G       O6  636   3.555   4.219   4.544
   20G       N1  637   3.715   4.083   4.486
   20G       H1  638   3.780   4.160   4.477
   20G       C2  639   3.769   3.964   4.452
   20G       N2  640   3.895   3.968   4.436
   20G      H21  641   3.952   4.051   4.432
   20G      H22  642   3.946   3.881   4.436
   20G       N3  643   3.690   3.856   4.434
   20G       C4  644   3.558   3.878   4.445
   20G      C3'  645   3.373   3.516   4.472
   20G      H3'  646   3.334   3.593   4.539
   20G      C2'  647   3.508   3.555   4.415
   20G      H2'  648   3.577   3.586   4.494
   20G      O2'  649   3.572   3.450   4.343
   20G     HO2'  650   3.600   3.382   4.405
   20G      O3'  651   3.366   3.387   4.530
   21G3       P  652   3.296   3.354   4.670
   21G3     OP1  653   3.267   3.209   4.670
   21G3     OP2  654   3.192   3.450   4.697
   21G3     O5'  655   3.419   3.378   4.775
   21G3     C5'  656   3.532   3.300   4.784
   21G3     H5'  657   3.551   3.261   4.683
   21G3    H5''  658   3.512   3.215   4.850
   21G3     C4'  659   3.660   3.381   4.831
   21G3     H4'  660   3.746   3.314   4.836
   21G3     O4'  661   3.685   3.485   4.735
   21G3     C1'  662   3.734   3.603   4.804
   21G3     H1'  663   3.827   3.633   4.756
   21G3      N9  664   3.637   3.712   4.791
   21G3      C8  665   3.501   3.704   4.779
   21G3      H8  666   3.444   3.612   4.767
   21G3      N7  667   3.441   3.818   4.790
   21G3      C5  668   3.545   3.913   4.804
   21G3      C6  669   3.548   4.053   4.810
   21G3      O6  670   3.453   4.132   4.827
   21G3      N1  671   3.670   4.107   4.826
   21G3      H1  672   3.677   4.207   4.812
   21G3      C2  673   3.783   4.037   4.835
   21G3      N2  674   3.898   4.092   4.850
   21G3     H21  675   3.904   4.193   4.851
   21G3     H22  676   3.976   4.029   4.850
   21G3      N3  677   3.787   3.904   4.826
   21G3      C4  678   3.666   3.847   4.810
   21G3     C3'  679   3.640   3.450   4.967
   21G3     H3'  680   3.539   3.491   4.971
   21G3     C2'  681   3.749   3.564   4.951
   21G3     H2'  682   3.716   3.639   5.023
   21G3     O2'  683   3.889   3.529   4.976
   21G3    HO2'  684   3.931   3.586   5.039
   21G3     O3'  685   3.675   3.365   5.081
   21G3    HO3'  686   3.672   3.432   5.150
   22Cl-    Cl-  687   3.143   0.079   6.154
   23Cl-    Cl-  688   1.055   2.252   1.895
   24Cl-    Cl-  689   1.544   1.096   5.423
   25Cl-    Cl-  690   7.632   4.401   6.788
   26Cl-    Cl-  691   8.436   6.012   5.066
   27Cl-    Cl-  692   5.493   5.535   1.352
   28Cl-    Cl-  693   3.917   6.323   5.847
   29Cl-    Cl-  694   0.751   3.533   9.795
   30Cl-    Cl-  695   2.819   1.635   4.955
   31Cl-    Cl-  696   4.308   4.633   6.106
   32Cl-    Cl-  697   8.608   7.928   8.822
   33Cl-    Cl-  698   0.783   7.467   0.821
   34Cl-    Cl-  699   8.013   0.773   0.323
   35Cl-    Cl-  700   0.582   3.464   0.608
   36Cl-    Cl-  701   1.488   9.037   5.789
   37Cl-    Cl-  702   8.676   9.106   3.478
   38Cl-    Cl-  703   2.888   5.633   1.435
   39Cl-    Cl-  704   3.991   4.062   6.684
   40Cl-    Cl-  705   3.731   0.679   2.339
   41Cl-    Cl-  706   4.863   9.202   1.143
   42Cl-    Cl-  707   8.992   3.489   4.674
   43Cl-    Cl-  708   7.039   0.896   7.876
   44Cl-    Cl-  709   8.853   0.237   6.356
   45Cl-    Cl-  710   4.735   4.977   8.170
   46Cl-    Cl-  711   9.633   6.186   9.455
   47Cl-    Cl-  712   4.130   0.298   5.135
   48Cl-    Cl-  713   7.015   3.843   9.688
   49Cl-    Cl-  714   4.418   8.565   3.122
   50Cl-    Cl-  715   5.790   3.172   3.550
   51Cl-    Cl-  716   7.200   4.206   6.817
   52Cl-    Cl-  717   8.431   5.436   0.071
   53Cl-    Cl-  718   0.267   8.242   7.145
   54Cl-    Cl-  719   1.897   1.882   3.156
   55Cl-    Cl-  720   8.960   0.133   2.470
   56Cl-    Cl-  721   5.144   7.329   3.779
   57Cl-    Cl-  722   3.522   7.573   2.786
   58Cl-    Cl-  723   1.220   2.261   2.614
   59Cl-    Cl-  724   5.323   6.566   7.828
   60Cl-    Cl-  725   8.624   8.708   0.842
   61Cl-    Cl-  726   1.020   6.848   5.951
   62Cl-    Cl-  727   0.832   7.973   2.391
   63Cl-    Cl-  728   3.724   9.375   7.546
   64Cl-    Cl-  729   1.290   8.719   2.557
   65Cl-    Cl-  730   2.395   8.656   7.512
   66Cl-    Cl-  731   9.282   1.564   2.655
   67Cl-    Cl-  732   6.168   0.954   1.354
   68Cl-    Cl-  733   1.462   3.752   6.151
   69Cl-    Cl-  734   0.051   9.169   7.940
   70Cl-    Cl-  735   1.071   2.174   8.880
   71Cl-    Cl-  736   5.582   4.335   9.733
   72Cl-    Cl-  737   0.275   5.305   1.616
   73Cl-    Cl-  738   4.149   0.666   7.420
   74Cl-    Cl-  739   4.743   7.355   6.775
   75Cl-    Cl-  740   7.910   3.316   5.608
   76Cl-    Cl-  741   2.974   3.682   0.720
   77Cl-    Cl-  742   5.082   2.476   6.328
   78Cl-    Cl-  743   6.680   5.814   3.734
   79Cl-    Cl-  744   0.593   5.521   4.006
   80Cl-    Cl-  745   6.502   2.824   2.166
   81Cl-    Cl-  746   3.518   8.482   8.078
   82Cl-    Cl-  747   0.054   9.693   5.743
   83Cl-    Cl-  748   2.099   6.403   9.205
   84Cl-    Cl-  749   1.943   4.326   9.603
   85Cl-    Cl-  750   3.807   0.352   7.650
   86Cl-    Cl-  751   6.774   0.868   1.557
   87Cl-    Cl-  752   3.077   8.798   0.110
   88Cl-    Cl-  753   5.489   3.761   8.935
   89Cl-    Cl-  754   5.098   1.696   3.775
   90Cl-    Cl-  755   5.096   0.265   9.718
   91Cl-    Cl-  756   5.060   1.920   7.594
   92Cl-    Cl-  757   1.071   2.904   6.507
   93Cl-    Cl-  758   6.641   0.005   9.350
   94Cl-    Cl-  759   8.972   0.755   5.290
   95Cl-    Cl-  760   2.797   4.307   5.237
   96Cl-    Cl-  761   9.677   6.548   2.905
   97Cl-    Cl-  762   0.562   1.210   1.921
   98Cl-    Cl-  763   6.605   7.860   5.535
   99Cl-    Cl-  764   0.088   8.261   2.925
  100Cl-    Cl-  765   9.466   3.579   9.431
  101Cl-    Cl-  766   0.448   3.840   4.610
  102Cl-    Cl-  767   1.139   0.071   9.647
  103Cl-    Cl-  768   0.100   5.831   6.360
  104Cl-    Cl-  769   1.937   7.077   0.158
  105Cl-    Cl-  770   0.400   3.810   3.479
  106Cl-    Cl-  771   7.905   0.194   3.105
  107K+      K+  772   0.022   4.840   0.786
  108K+      K+  773   0.740   8.181   2.967
  109K+      K+  774   6.068   1.495   9.269
  110K+      K+  775   1.363   6.199   8.704
  111K+      K+  776   4.963   3.859   3.835
  112K+      K+  777   4.228   4.340   5.537
  113K+      K+  778   3.850   1.334   0.554
  114K+      K+  779   3.587   7.415   4.121
  115K+      K+  780   5.231   6.287   1.248
  116K+      K+  781   2.510   4.121   0.931
  117K+      K+  782   6.451   3.013   5.839
  118K+      K+  783   0.649   1.307   4.041
  119K+      K+  784   8.922   8.081   9.524
  120K+      K+  785   4.748   4.141   4.149
  121K+      K+  786   3.213   9.084   1.717
  122K+      K+  787   2.302   7.463   0.093
  123K+      K+  788   5.252   6.739   3.167
  124K+      K+  789   4.242   7.262   9.215
  125K+      K+  790   1.728   2.761   9.229
  126K+      K+  791   6.154   2.550   2.055
  127K+      K+  792   3.817   4.618   7.350
  128K+      K+  793   2.917   6.204   4.115
  129K+      K+  794   8.679   0.291   5.735
  130K+      K+  795   0.866   9.269   1.756
  131K+      K+  796   0.645   0.669   8.598
  132K+      K+  797   8.536   5.588   9.399
  133K+      K+  798   5.660   3.272   7.828
  134K+      K+  799   0.464   9.636   5.901
  135K+      K+  800   3.364   4.357   4.703
  136K+      K+  801   1.352   0.806   6.655
  137K+      K+  802   0.249   3.627   1.136
  138K+      K+  803   5.594   8.075   1.707
  139K+      K+  804   5.453   4.639   3.092
  140K+      K+  805   7.628   8.236   3.848
  141K+      K+  806   8.183   4.227   2.917
  142K+      K+  807   0.407   9.452   3.626
  143K+      K+  808   7.003   0.326   9.552
  144K+      K+  809   0.166   6.097   6.175
  145K+      K+  810   5.356   5.465   5.563
  146K+      K+  811   4.187   8.916   7.610
  147K+      K+  812   6.482   2.648   6.730
  148K+      K+  813   5.268   5.114   5.027
  149K+      K+  814   7.206   4.753   8.348
  150K+      K+  815   7.303   9.412   0.947
  151K+      K+  816   8.753   2.974   2.987
  152K+      K+  817   7.045   1.196   7.796
  153K+      K+  818   7.223   5.632   4.428
  154K+      K+  819   3.814   8.984   4.010
  155K+      K+  820   6.523   1.127   0.943
  156K+      K+  821   0.210   3.192   2.726
  157K+      K+  822   0.102   6.206   2.214
  158K+      K+  823   5.165   4.294   4.304
  159K+      K+  824   1.528   7.553   5.926
  160K+      K+  825   7.071   4.910   6.149
  161K+      K+  826   7.922   9.119   2.800
  162K+      K+  827   2.257   5.086   2.232
  163K+      K+  828   3.450   4.369   4.363
  164K+      K+  829   0.503   2.562   3.012
  165K+      K+  830   4.642   3.389   2.661
  166K+      K+  831   7.667   2.277   1.991
  167K+      K+  832   2.738   2.852   3.224
  168K+      K+  833   3.223   3.957   4.842
  169K+      K+  834   4.306   0.770   6.135
  170K+      K+  835   6.234   6.401   6.523
  171K+      K+  836   5.249   8.666   5.212
  172K+      K+  837   3.329   2.697   6.405
  173K+      K+  838   4.048   1.066   1.602
  174K+      K+  839   3.975   2.038   6.426
  175K+      K+  840   1.189   3.564   6.229
  176K+      K+  841   0.419   5.239   3.537
  177K+      K+  842   1.520   4.561   4.840
  178K+      K+  843   1.294   5.109   7.496
  179K+      K+  844   5.829   1.013   5.699
  180K+      K+  845   0.873   2.750   4.546
  181K+      K+  846   3.831   8.282   3.329
  182K+      K+  847   5.886   6.583   5.950
  183K+      K+  848   8.066   0.796   2.521
  184K+      K+  849   3.465   0.304   7.041
  185K+      K+  850   9.306   2.818   8.794
  186K+      K+  851   5.442   1.377   6.864
  187K+      K+  852   3.117   1.700   3.698
  188K+      K+  853   3.214   8.205   7.611
  189K+      K+  854   5.554   5.208   5.335
  190K+      K+  855   5.220   4.665   4.464
  191K+      K+  856   4.308   9.623   0.987
  192K+      K+  857   5.571   5.395   8.412
  193K+      K+  858   3.722   2.917   7.352
  194K+      K+  859   1.669   2.083   5.700
  195K+      K+  860   3.005   9.052   7.377
  196K+      K+  861   9.225   1.344   0.818
  197K+      K+  862   1.449   0.883   8.895
  198K+      K+  863   4.677   8.610   4.385
  199K+      K+  864   7.147   7.099   9.251
  200K+      K+  865   8.993   8.826   0.270
  201K+      K+  866   0.762   8.810   4.863
  202K+      K+  867   2.291   4.513   4.658
  203K+      K+  868   3.327   7.598   7.874
  204K+      K+  869   7.829   4.463   1.177
  205K+      K+  870   8.595   7.665   6.463
  206K+      K+  871   2.429   6.002   8.749
  207K+      K+  872   7.428   7.265   5.416
  208K+      K+  873   5.514   3.596   3.131
  209K+      K+  874   9.777   6.168   4.315
  210K+      K+  875   1.473   7.108   7.939
  211K+      K+  876   3.809   6.614   4.307
  212WAT      O  877   2.891   7.988   0.767
  212WAT     H1  878   2.972   8.034   0.804
  212WAT     H2  879   2.890   7.996   0.668
  213WAT      O  880   6.135   4.321   8.355
  213WAT     H1  881   6.068   4.247   8.347
  213WAT     H2  882   6.226   4.282   8.374
  214WAT      O  883   3.206   1.771   2.658
  214WAT     H1  884   3.230   1.845   2.595
  214WAT     H2  885   3.122   1.794   2.706
  215WAT      O  886   6.265   7.815   7.538
  215WAT     H1  887   6.297   7.840   7.629
  215WAT     H2  888   6.170   7.784   7.543
  216WAT      O  889   9.886   4.295   2.257
  216WAT     H1  890   9.887   4.375   2.317
  216WAT     H2  891   9.813   4.305   2.189
  217WAT      O  892   5.993   9.728   2.721
  217WAT     H1  893   5.988   9.665   2.799
  217WAT     H2  894   5.936   9.808   2.739
  218WAT      O  895   9.758   6.484   1.686
  218WAT     H1  896   9.683   6.479   1.621
  218WAT     H2  897   9.820   6.558   1.660
  219WAT      O  898   2.550   6.697   7.563
  219WAT     H1  899   2.623   6.757   7.530
  219WAT     H2  900   2.512   6.736   7.647
  220WAT      O  901   2.778   3.713   8.289
  220WAT     H1  902   2.686   3.674   8.298
  220WAT     H2  903   2.771   3.811   8.270
  221WAT      O  904   9.390   0.214   1.887
  221WAT     H1  905   9.437   0.138   1.842
  221WAT     H2  906   9.378   0.195   1.984
  222WAT      O  907   0.736   5.453   3.571
  222WAT     H1  908   0.781   5.525   3.623
  222WAT     H2  909   0.675   5.402   3.631
  223WAT      O  910   7.094   0.405   1.372
  223WAT     H1  911   7.113   0.462   1.451
  223WAT     H2  912   7.163   0.333   1.366
  224WAT      O  913   1.160   1.637   8.333
  224WAT     H1  914   1.123   1.564   8.276
  224WAT     H2  915   1.084   1.694   8.366
  225WAT      O  916   8.199   8.730   4.169
  225WAT     H1  917   8.188   8.822   4.133
  225WAT     H2  918   8.296   8.706   4.171
  226WAT      O  919   1.643   6.740   5.500
  226WAT     H1  920   1.563   6.727   5.559
  226WAT     H2  921   1.703   6.660   5.507
  227WAT      O  922   2.279   4.892   0.648
  227WAT     H1  923   2.192   4.938   0.669
  227WAT     H2  924   2.329   4.945   0.579
  228WAT      O  925   8.733   1.252   2.966
  228WAT     H1  926   8.833   1.254   2.974
  228WAT     H2  927   8.707   1.267   2.871
  229WAT      O  928   5.186   7.917   0.963
  229WAT     H1  929   5.240   7.836   0.986
  229WAT     H2  930   5.237   7.974   0.899
  230WAT      O  931   7.634   1.544   2.157
  230WAT     H1  932   7.539   1.526   2.132
  230WAT     H2  933   7.694   1.483   2.104
  231WAT      O  934   5.536   5.271   6.786
  231WAT     H1  935   5.470   5.246   6.858
  231WAT     H2  936   5.499   5.345   6.731
  232WAT      O  937   9.591   1.977   9.308
  232WAT     H1  938   9.553   2.038   9.238
  232WAT     H2  939   9.599   1.884   9.271
  233WAT      O  940   0.960   6.570   9.057
  233WAT     H1  941   0.945   6.653   9.111
  233WAT     H2  942   1.051   6.533   9.077
  234WAT      O  943   4.627   6.565   3.124
  234WAT     H1  944   4.586   6.654   3.103
  234WAT     H2  945   4.580   6.494   3.072
  235WAT      O  946   1.736   9.651   1.344
  235WAT     H1  947   1.799   9.709   1.396
  235WAT     H2  948   1.706   9.699   1.261
  236WAT      O  949   5.891   1.659   1.198
  236WAT     H1  950   5.967   1.624   1.143
  236WAT     H2  951   5.839   1.582   1.235
  237WAT      O  952   9.671   3.365   7.598
  237WAT     H1  953   9.656   3.284   7.542
  237WAT     H2  954   9.765   3.364   7.634
  238WAT      O  955   2.439   4.080   1.399
  238WAT     H1  956   2.342   4.063   1.416
  238WAT     H2  957   2.475   4.011   1.337
  239WAT      O  958   4.823   0.577   6.333
  239WAT     H1  959   4.782   0.582   6.424
  239WAT     H2  960   4.860   0.485   6.318
  240WAT      O  961   2.604   8.425   6.441
  240WAT     H1  962   2.519   8.462   6.403
  240WAT     H2  963   2.679   8.487   6.420
  241WAT      O  964   8.082   8.256   6.586
  241WAT     H1  965   8.006   8.318   6.607
  241WAT     H2  966   8.128   8.286   6.502
  242WAT      O  967   8.292   4.398   1.268
  242WAT     H1  968   8.245   4.411   1.181
  242WAT     H2  969   8.295   4.301   1.290
  243WAT      O  970   2.807   5.378   7.105
  243WAT     H1  971   2.748   5.299   7.119
  243WAT     H2  972   2.809   5.401   7.007
  244WAT      O  973   9.041   3.829   7.864
  244WAT     H1  974   8.972   3.769   7.904
  244WAT     H2  975   9.030   3.921   7.900
  245WAT      O  976   3.392   2.502   9.370
  245WAT     H1  977   3.472   2.560   9.381
  245WAT     H2  978   3.310   2.553   9.393
  246WAT      O  979   2.926   9.334   0.208
  246WAT     H1  980   2.976   9.248   0.203
  246WAT     H2  981   2.879   9.341   0.295
  247WAT      O  982   2.983   3.003   4.992
  247WAT     H1  983   2.986   2.953   4.906
  247WAT     H2  984   3.056   3.072   4.993
  248WAT      O  985   3.272   7.046   2.938
  248WAT     H1  986   3.192   6.988   2.921
  248WAT     H2  987   3.264   7.130   2.885
  249WAT      O  988   1.739   5.005   5.307
  249WAT     H1  989   1.744   4.907   5.288
  249WAT     H2  990   1.746   5.021   5.405
  250WAT      O  991   7.777   0.112   0.618
  250WAT     H1  992   7.762   0.169   0.698
  250WAT     H2  993   7.749   0.018   0.638
  251WAT      O  994   4.128   0.352   3.183
  251WAT     H1  995   4.183   0.271   3.162
  251WAT     H2  996   4.182   0.434   3.165
  252WAT      O  997   9.660   5.340   3.950
  252WAT     H1  998   9.688   5.244   3.949
  252WAT     H2  999   9.737   5.398   3.923
  253WAT      O 1000   4.238   9.074   5.180
  253WAT     H1 1001   4.139   9.071   5.162
  253WAT     H2 1002   4.255   9.064   5.278
  254WAT      O 1003   6.898   2.821   5.440
  254WAT     H1 1004   6.928   2.782   5.353
  254WAT     H2 1005   6.956   2.900   5.463
  255WAT      O 1006   1.437   0.187   2.394
  255WAT     H1 1007   1.344   0.165   2.364
  255WAT     H2 1008   1.495   0.205   2.315
  256WAT      O 1009   6.177   8.698   3.931
  256WAT     H1 1010   6.107   8.759   3.893
  256WAT     H2 1011   6.192   8.621   3.869
  257WAT      O 1012   9.817   7.525   1.134
  257WAT     H1 1013   9.819   7.434   1.175
  257WAT     H2 1014   9.727   7.540   1.092
  258WAT      O 1015   0.283   0.370   6.844
  258WAT     H1 1016   0.303   0.312   6.923
  258WAT     H2 1017   0.194   0.344   6.807
  259WAT      O 1018   1.752   4.051   7.136
  259WAT     H1 1019   1.846   4.053   7.171
  259WAT     H2 1020   1.711   3.962   7.158
  260WAT      O 1021   5.550   2.295   5.140
  260WAT     H1 1022   5.574   2.312   5.045
  260WAT     H2 1023   5.541   2.382   5.188
  261WAT      O 1024   6.840   6.030   5.170
  261WAT     H1 1025   6.844   6.081   5.256
  261WAT     H2 1026   6.745   6.009   5.148
  262WAT      O 1027   6.810   8.317   4.381
  262WAT     H1 1028   6.747   8.268   4.321
  262WAT     H2 1029   6.789   8.415   4.379
  263WAT      O 1030   1.742   2.781   0.846
  263WAT     H1 1031   1.713   2.692   0.810
  263WAT     H2 1032   1.802   2.826   0.780
  264WAT      O 1033   2.311   7.695   7.930
  264WAT     H1 1034   2.293   7.611   7.982
  264WAT     H2 1035   2.348   7.671   7.840
  265WAT      O 1036   0.696   2.185   8.508
  265WAT     H1 1037   0.661   2.268   8.551
  265WAT     H2 1038   0.770   2.147   8.564
  266WAT      O 1039   4.631   0.256   6.543
  266WAT     H1 1040   4.564   0.294   6.479
  266WAT     H2 1041   4.587   0.238   6.631
  267WAT      O 1042   8.986   1.934   4.945
  267WAT     H1 1043   8.940   1.868   5.004
  267WAT     H2 1044   9.061   1.977   4.994
  268WAT      O 1045   7.330   1.714   4.410
  268WAT     H1 1046   7.417   1.675   4.381
  268WAT     H2 1047   7.304   1.675   4.499
  269WAT      O 1048   0.821   1.029   2.623
  269WAT     H1 1049   0.893   1.045   2.556
  269WAT     H2 1050   0.772   1.114   2.641
  270WAT      O 1051   8.493   4.411   4.565
  270WAT     H1 1052   8.430   4.459   4.504
  270WAT     H2 1053   8.474   4.313   4.564
  271WAT      O 1054   3.271   6.616   7.383
  271WAT     H1 1055   3.192   6.632   7.324
  271WAT     H2 1056   3.351   6.596   7.327
  272WAT      O 1057   3.603   9.322   6.247
  272WAT     H1 1058   3.612   9.275   6.335
  272WAT     H2 1059   3.685   9.305   6.192
  273WAT      O 1060   2.339   1.153   4.447
  273WAT     H1 1061   2.333   1.106   4.535
  273WAT     H2 1062   2.393   1.099   4.383
  274WAT      O 1063   9.499   7.910   2.749
  274WAT     H1 1064   9.486   7.956   2.837
  274WAT     H2 1065   9.490   7.977   2.675
  275WAT      O 1066   1.283   0.400   9.687
  275WAT     H1 1067   1.199   0.448   9.664
  275WAT     H2 1068   1.262   0.305   9.709
  276WAT      O 1069   3.561   9.641   9.063
  276WAT     H1 1070   3.594   9.641   9.157
  276WAT     H2 1071   3.572   9.549   9.024
  277WAT      O 1072   8.192   0.583   7.525
  277WAT     H1 1073   8.128   0.587   7.601
  277WAT     H2 1074   8.259   0.510   7.542
  278WAT      O 1075   2.550   5.817   2.170
  278WAT     H1 1076   2.494   5.764   2.233
  278WAT     H2 1077   2.610   5.755   2.119
  279WAT      O 1078   4.099   8.466   0.837
  279WAT     H1 1079   4.057   8.539   0.783
  279WAT     H2 1080   4.151   8.406   0.775
  280WAT      O 1081   1.710   6.129   5.885
  280WAT     H1 1082   1.785   6.185   5.919
  280WAT     H2 1083   1.653   6.183   5.823
  281WAT      O 1084   3.790   8.747   9.668
  281WAT     H1 1085   3.698   8.717   9.642
  281WAT     H2 1086   3.851   8.668   9.669
  282WAT      O 1087   4.797   1.122   6.756
  282WAT     H1 1088   4.893   1.096   6.751
  282WAT     H2 1089   4.752   1.068   6.828
  283WAT      O 1090   7.069   9.101   8.518
  283WAT     H1 1091   7.154   9.154   8.518
  283WAT     H2 1092   7.087   9.011   8.479
  284WAT      O 1093   4.136   0.279   3.559
  284WAT     H1 1094   4.085   0.335   3.494
  284WAT     H2 1095   4.181   0.204   3.511
  285WAT      O 1096   6.016   8.149   3.945
  285WAT     H1 1097   6.030   8.247   3.954
  285WAT     H2 1098   6.056   8.102   4.024
  286WAT      O 1099   8.375   0.654   1.996
  286WAT     H1 1100   8.414   0.701   1.916
  286WAT     H2 1101   8.285   0.693   2.017
  287WAT      O 1102   6.785   6.170   2.185
  287WAT     H1 1103   6.791   6.071   2.201
  287WAT     H2 1104   6.736   6.213   2.261
  288WAT      O 1105   7.172   3.957   7.213
  288WAT     H1 1106   7.112   3.991   7.141
  288WAT     H2 1107   7.144   3.995   7.301
  289WAT      O 1108   3.413   9.760   5.702
  289WAT     H1 1109   3.364   9.686   5.747
  289WAT     H2 1110   3.500   9.775   5.748
  290WAT      O 1111   0.881   9.052   6.829
  290WAT     H1 1112   0.854   8.985   6.898
  290WAT     H2 1113   0.944   9.118   6.870
  291WAT      O 1114   7.523   1.306   4.319
  291WAT     H1 1115   7.582   1.231   4.350
  291WAT     H2 1116   7.441   1.268   4.277
  292WAT      O 1117   3.423   1.933   0.334
  292WAT     H1 1118   3.452   1.939   0.429
  292WAT     H2 1119   3.333   1.891   0.329
  293WAT      O 1120   8.594   7.207   7.817
  293WAT     H1 1121   8.494   7.213   7.823
  293WAT     H2 1122   8.630   7.176   7.905
  294WAT      O 1123   4.819   6.609   0.497
  294WAT     H1 1124   4.753   6.546   0.457
  294WAT     H2 1125   4.820   6.694   0.444
  295WAT      O 1126   0.412   2.460   3.524
  295WAT     H1 1127   0.498   2.414   3.548
  295WAT     H2 1128   0.385   2.521   3.598
  296WAT      O 1129   7.595   3.667   1.347
  296WAT     H1 1130   7.557   3.615   1.424
  296WAT     H2 1131   7.602   3.763   1.371
  297WAT      O 1132   9.650   1.690   7.834
  297WAT     H1 1133   9.671   1.732   7.745
  297WAT     H2 1134   9.565   1.729   7.870
  298WAT      O 1135   5.448   9.848   5.879
  298WAT     H1 1136   5.438   9.750   5.898
  298WAT     H2 1137   5.476   9.861   5.784
  299WAT      O 1138   5.283   0.952   5.577
  299WAT     H1 1139   5.330   0.888   5.637
  299WAT     H2 1140   5.324   0.948   5.486
  300WAT      O 1141   1.862   6.694   6.737
  300WAT     H1 1142   1.938   6.756   6.756
  300WAT     H2 1143   1.798   6.740   6.676
  301WAT      O 1144   9.248   6.565   2.113
  301WAT     H1 1145   9.160   6.611   2.107
  301WAT     H2 1146   9.255   6.497   2.041
  302WAT      O 1147   6.967   6.047   4.297
  302WAT     H1 1148   6.875   6.087   4.296
  302WAT     H2 1149   6.987   6.013   4.389
  303WAT      O 1150   5.375   8.376   8.613
  303WAT     H1 1151   5.376   8.410   8.707
  303WAT     H2 1152   5.403   8.280   8.612
  304WAT      O 1153   2.250   6.854   8.733
  304WAT     H1 1154   2.340   6.866   8.775
  304WAT     H2 1155   2.209   6.769   8.764
  305WAT      O 1156   9.640   2.209   8.102
  305WAT     H1 1157   9.669   2.140   8.168
  305WAT     H2 1158   9.605   2.164   8.020
  306WAT      O 1159   7.332   4.535   4.575
  306WAT     H1 1160   7.292   4.626   4.567
  306WAT     H2 1161   7.277   4.479   4.637
  307WAT      O 1162   0.470   9.355   5.110
  307WAT     H1 1163   0.432   9.439   5.147
  307WAT     H2 1164   0.561   9.339   5.150
  308WAT      O 1165   5.324   4.221   7.562
  308WAT     H1 1166   5.324   4.245   7.659
  308WAT     H2 1167   5.314   4.304   7.507
  309WAT      O 1168   9.486   3.449   1.439
  309WAT     H1 1169   9.545   3.530   1.430
  309WAT     H2 1170   9.474   3.427   1.536
  310WAT      O 1171   1.952   6.103   2.799
  310WAT     H1 1172   1.929   6.148   2.885
  310WAT     H2 1173   1.888   6.028   2.783
  311WAT      O 1174   0.211   5.482   9.446
  311WAT     H1 1175   0.204   5.569   9.495
  311WAT     H2 1176   0.120   5.442   9.436
  312WAT      O 1177   0.373   9.457   7.979
  312WAT     H1 1178   0.453   9.503   7.940
  312WAT     H2 1179   0.304   9.445   7.908
  313WAT      O 1180   3.916   2.296   2.324
  313WAT     H1 1181   3.893   2.200   2.341
  313WAT     H2 1182   3.900   2.349   2.408
  314WAT      O 1183   9.797   3.595   4.650
  314WAT     H1 1184   9.707   3.625   4.620
  314WAT     H2 1185   9.787   3.518   4.714
  315WAT      O 1186   9.242   0.969   4.193
  315WAT     H1 1187   9.273   0.913   4.117
  315WAT     H2 1188   9.281   1.061   4.186
  316WAT      O 1189   1.303   7.168   5.790
  316WAT     H1 1190   1.227   7.154   5.726
  316WAT     H2 1191   1.343   7.080   5.814
  317WAT      O 1192   1.250   7.216   0.706
  317WAT     H1 1193   1.155   7.248   0.702
  317WAT     H2 1194   1.255   7.130   0.757
  318WAT      O 1195   6.397   4.878   6.225
  318WAT     H1 1196   6.489   4.864   6.263
  318WAT     H2 1197   6.386   4.821   6.144
  319WAT      O 1198   4.625   8.404   3.013
  319WAT     H1 1199   4.564   8.466   3.060
  319WAT     H2 1200   4.713   8.448   2.998
  320WAT      O 1201   2.926   5.547   5.465
  320WAT     H1 1202   2.851   5.586   5.519
  320WAT     H2 1203   2.893   5.530   5.372
  321WAT      O 1204   2.932   3.301   9.580
  321WAT     H1 1205   2.998   3.244   9.531
  321WAT     H2 1206   2.850   3.248   9.601
  322WAT      O 1207   1.927   0.484   1.108
  322WAT     H1 1208   1.851   0.438   1.153
  322WAT     H2 1209   2.009   0.476   1.164
  323WAT      O 1210   5.613   7.401   4.228
  323WAT     H1 1211   5.690   7.339   4.212
  323WAT     H2 1212   5.572   7.426   4.140
  324WAT      O 1213   6.196   4.204   4.485
  324WAT     H1 1214   6.267   4.181   4.418
  324WAT     H2 1215   6.114   4.235   4.438
  325WAT      O 1216   6.119   8.605   6.918
  325WAT     H1 1217   6.178   8.649   6.986
  325WAT     H2 1218   6.042   8.560   6.964
  326WAT      O 1219   4.307   2.765   5.922
  326WAT     H1 1220   4.312   2.776   6.021
  326WAT     H2 1221   4.395   2.787   5.881
  327WAT      O 1222   9.768   2.391   1.330
  327WAT     H1 1223   9.749   2.302   1.370
  327WAT     H2 1224   9.858   2.390   1.287
  328WAT      O 1225   2.408   7.088   8.339
  328WAT     H1 1226   2.368   7.011   8.289
  328WAT     H2 1227   2.335   7.148   8.371
  329WAT      O 1228   9.856   5.264   6.784
  329WAT     H1 1229   9.930   5.297   6.726
  329WAT     H2 1230   9.833   5.170   6.758
  330WAT      O 1231   8.024   4.108   4.072
  330WAT     H1 1232   7.958   4.179   4.095
  330WAT     H2 1233   8.102   4.114   4.134
  331WAT      O 1234   6.853   5.114   5.770
  331WAT     H1 1235   6.829   5.181   5.700
  331WAT     H2 1236   6.817   5.143   5.858
  332WAT      O 1237   3.538   3.306   2.332
  332WAT     H1 1238   3.509   3.369   2.404
  332WAT     H2 1239   3.498   3.216   2.348
  333WAT      O 1240   8.230   9.305   1.139
  333WAT     H1 1241   8.289   9.280   1.216
  333WAT     H2 1242   8.237   9.404   1.123
  334WAT      O 1243   7.935   0.762   1.614
  334WAT     H1 1244   7.946   0.664   1.597
  334WAT     H2 1245   7.982   0.814   1.543
  335WAT      O 1246   1.048   8.213   0.891
  335WAT     H1 1247   1.120   8.144   0.897
  335WAT     H2 1248   1.081   8.299   0.931
  336WAT      O 1249   9.457   5.611   1.231
  336WAT     H1 1250   9.509   5.542   1.181
  336WAT     H2 1251   9.410   5.671   1.166
  337WAT      O 1252   0.745   7.688   2.768
  337WAT     H1 1253   0.792   7.634   2.839
  337WAT     H2 1254   0.769   7.652   2.678
  338WAT      O 1255   4.395   8.862   0.040
  338WAT     H1 1256   4.480   8.897   0.081
  338WAT     H2 1257   4.416   8.814  -0.044
  339WAT      O 1258   9.178   9.740   7.514
  339WAT     H1 1259   9.135   9.659   7.475
  339WAT     H2 1260   9.234   9.786   7.444
  340WAT      O 1261   8.971   0.199   8.435
  340WAT     H1 1262   8.917   0.116   8.444
  340WAT     H2 1263   8.949   0.262   8.510
  341WAT      O 1264   5.038   0.366   7.671
  341WAT     H1 1265   5.118   0.375   7.731
  341WAT     H2 1266   4.955   0.378   7.725
  342WAT      O 1267   0.424   0.156   5.382
  342WAT     H1 1268   0.418   0.252   5.355
  342WAT     H2 1269   0.340   0.128   5.428
  343WAT      O 1270   8.917   2.547   1.336
  343WAT     H1 1271   8.906   2.471   1.272
  343WAT     H2 1272   8.964   2.623   1.290
  344WAT      O 1273   2.552   7.089   5.887
  344WAT     H1 1274   2.588   7.175   5.850
  344WAT     H2 1275   2.452   7.088   5.878
  345WAT      O 1276   6.281   7.230   7.851
  345WAT     H1 1277   6.263   7.134   7.828
  345WAT     H2 1278   6.380   7.245   7.857
  346WAT      O 1279   4.975   1.975   9.751
  346WAT     H1 1280   5.008   1.895   9.700
  346WAT     H2 1281   4.974   2.055   9.691
  347WAT      O 1282   6.847   5.927   1.055
  347WAT     H1 1283   6.891   5.870   0.985
  347WAT     H2 1284   6.773   5.876   1.098
  348WAT      O 1285   2.464   5.329   2.724
  348WAT     H1 1286   2.505   5.412   2.761
  348WAT     H2 1287   2.519   5.250   2.751
  349WAT      O 1288   8.596   7.783   3.008
  349WAT     H1 1289   8.575   7.873   2.970
  349WAT     H2 1290   8.581   7.785   3.107
  350WAT      O 1291   8.108   4.801   1.427
  350WAT     H1 1292   8.079   4.733   1.360
  350WAT     H2 1293   8.200   4.834   1.404
  351WAT      O 1294   3.013   0.667   6.611
  351WAT     H1 1295   3.008   0.581   6.561
  351WAT     H2 1296   3.037   0.741   6.548
  352WAT      O 1297   4.709   4.900   7.512
  352WAT     H1 1298   4.622   4.893   7.562
  352WAT     H2 1299   4.691   4.897   7.414
  353WAT      O 1300   8.594   0.720   2.879
  353WAT     H1 1301   8.554   0.631   2.899
  353WAT     H2 1302   8.663   0.742   2.949
  354WAT      O 1303   0.451   9.066   1.955
  354WAT     H1 1304   0.360   9.079   1.917
  354WAT     H2 1305   0.465   8.968   1.974
  355WAT      O 1306   4.873   0.709   8.317
  355WAT     H1 1307   4.908   0.802   8.304
  355WAT     H2 1308   4.773   0.711   8.323
  356WAT      O 1309   8.407   9.750   2.641
  356WAT     H1 1310   8.502   9.727   2.620
  356WAT     H2 1311   8.365   9.792   2.561
  357WAT      O 1312   9.172   8.983   8.346
  357WAT     H1 1313   9.153   8.923   8.424
  357WAT     H2 1314   9.096   8.978   8.281
  358WAT      O 1315   2.847   4.493   7.621
  358WAT     H1 1316   2.912   4.553   7.574
  358WAT     H2 1317   2.840   4.520   7.717
  359WAT      O 1318   3.524   7.845   7.512
  359WAT     H1 1319   3.512   7.792   7.427
  359WAT     H2 1320   3.492   7.790   7.589
  360WAT      O 1321   5.959   1.676   1.782
  360WAT     H1 1322   5.998   1.716   1.700
  360WAT     H2 1323   5.868   1.639   1.761
  361WAT      O 1324   9.382   1.796   9.086
  361WAT     H1 1325   9.446   1.754   9.151
  361WAT     H2 1326   9.300   1.825   9.136
  362WAT      O 1327   7.464   0.961   7.269
  362WAT     H1 1328   7.406   0.997   7.196
  362WAT     H2 1329   7.447   0.863   7.280
  363WAT      O 1330   9.667   6.957   7.198
  363WAT     H1 1331   9.700   7.018   7.270
  363WAT     H2 1332   9.588   6.906   7.231
  364WAT      O 1333   5.255   4.262   7.179
  364WAT     H1 1334   5.192   4.282   7.104
  364WAT     H2 1335   5.238   4.325   7.254
  365WAT      O 1336   7.265   2.285   3.990
  365WAT     H1 1337   7.364   2.282   4.006
  365WAT     H2 1338   7.238   2.379   3.968
  366WAT      O 1339   2.629   6.339   5.644
  366WAT     H1 1340   2.619   6.415   5.579
  366WAT     H2 1341   2.716   6.292   5.628
  367WAT      O 1342   7.725   0.274   0.838
  367WAT     H1 1343   7.696   0.369   0.828
  367WAT     H2 1344   7.653   0.222   0.885
  368WAT      O 1345   2.904   1.029   0.206
  368WAT     H1 1346   2.938   1.123   0.200
  368WAT     H2 1347   2.805   1.028   0.190
  369WAT      O 1348   4.488   5.941   4.356
  369WAT     H1 1349   4.583   5.945   4.327
  369WAT     H2 1350   4.471   6.014   4.423
  370WAT      O 1351   8.910   1.045   6.625
  370WAT     H1 1352   8.827   1.001   6.591
  370WAT     H2 1353   8.940   0.999   6.709
  371WAT      O 1354   8.469   2.398   2.329
  371WAT     H1 1355   8.462   2.477   2.267
  371WAT     H2 1356   8.389   2.339   2.317
  372WAT      O 1357   5.773   0.664   1.492
  372WAT     H1 1358   5.681   0.625   1.496
  372WAT     H2 1359   5.806   0.659   1.397
  373WAT      O 1360   5.051   9.123   0.710
  373WAT     H1 1361   4.986   9.049   0.694
  373WAT     H2 1362   5.006   9.197   0.760
  374WAT      O 1363   2.982   9.628   1.835
  374WAT     H1 1364   3.015   9.626   1.929
  374WAT     H2 1365   3.023   9.706   1.787
  375WAT      O 1366   4.676   3.351   1.401
  375WAT     H1 1367   4.763   3.399   1.386
  375WAT     H2 1368   4.604   3.418   1.417
  376WAT      O 1369   1.504   1.286   6.648
  376WAT     H1 1370   1.419   1.263   6.601
  376WAT     H2 1371   1.516   1.386   6.649
  377WAT      O 1372   9.625   9.192   8.547
  377WAT     H1 1373   9.609   9.280   8.503
  377WAT     H2 1374   9.544   9.134   8.534
  378WAT      O 1375   5.180   9.839   5.386
  378WAT     H1 1376   5.215   9.825   5.294
  378WAT     H2 1377   5.081   9.831   5.386
  379WAT      O 1378   7.521   7.506   4.135
  379WAT     H1 1379   7.575   7.550   4.064
  379WAT     H2 1380   7.574   7.501   4.220
  380WAT      O 1381   9.843   6.642   4.201
  380WAT     H1 1382   9.926   6.691   4.172
  380WAT     H2 1383   9.782   6.707   4.247
  381WAT      O 1384   3.130   2.106   4.633
  381WAT     H1 1385   3.168   2.031   4.579
  381WAT     H2 1386   3.038   2.081   4.666
  382WAT      O 1387   9.093   8.561   1.812
  382WAT     H1 1388   9.085   8.477   1.757
  382WAT     H2 1389   9.072   8.640   1.754
  383WAT      O 1390   8.708   4.086   4.623
  383WAT     H1 1391   8.734   4.181   4.644
  383WAT     H2 1392   8.628   4.061   4.677
  384WAT      O 1393   6.562   6.178   5.031
  384WAT     H1 1394   6.569   6.081   5.054
  384WAT     H2 1395   6.495   6.222   5.090
  385WAT      O 1396   7.506   2.900   4.477
  385WAT     H1 1397   7.460   2.873   4.393
  385WAT     H2 1398   7.600   2.866   4.476
  386WAT      O 1399   7.474   7.613   1.967
  386WAT     H1 1400   7.491   7.624   2.065
  386WAT     H2 1401   7.387   7.565   1.954
  387WAT      O 1402   5.522   9.157   3.100
  387WAT     H1 1403   5.510   9.254   3.118
  387WAT     H2 1404   5.600   9.143   3.038
  388WAT      O 1405   4.369   9.451   3.450
  388WAT     H1 1406   4.387   9.365   3.496
  388WAT     H2 1407   4.433   9.462   3.373
  389WAT      O 1408   5.193   4.464   4.096
  389WAT     H1 1409   5.287   4.429   4.087
  389WAT     H2 1410   5.152   4.472   4.005
  390WAT      O 1411   2.246   4.382   8.153
  390WAT     H1 1412   2.215   4.369   8.247
  390WAT     H2 1413   2.223   4.474   8.122
  391WAT      O 1414   5.746   0.532   8.031
  391WAT     H1 1415   5.724   0.482   8.115
  391WAT     H2 1416   5.838   0.570   8.038
  392WAT      O 1417   5.635   6.851   3.434
  392WAT     H1 1418   5.570   6.926   3.420
  392WAT     H2 1419   5.592   6.779   3.489
  393WAT      O 1420   0.565   9.809   4.859
  393WAT     H1 1421   0.468   9.785   4.864
  393WAT     H2 1422   0.604   9.772   4.775
  394WAT      O 1423   0.141   3.422   6.088
  394WAT     H1 1424   0.161   3.363   6.166
  394WAT     H2 1425   0.210   3.494   6.083
  395WAT      O 1426   6.650   7.731   3.305
  395WAT     H1 1427   6.685   7.825   3.305
  395WAT     H2 1428   6.566   7.726   3.358
  396WAT      O 1429   8.480   2.219   8.053
  396WAT     H1 1430   8.567   2.227   8.004
  396WAT     H2 1431   8.404   2.228   7.988
  397WAT      O 1432   4.723   2.306   1.790
  397WAT     H1 1433   4.721   2.370   1.713
  397WAT     H2 1434   4.687   2.351   1.871
  398WAT      O 1435   4.820   1.126   7.275
  398WAT     H1 1436   4.739   1.185   7.275
  398WAT     H2 1437   4.861   1.126   7.183
  399WAT      O 1438   4.382   6.440   8.912
  399WAT     H1 1439   4.333   6.353   8.908
  399WAT     H2 1440   4.460   6.437   8.850
  400WAT      O 1441   0.693   4.560   3.492
  400WAT     H1 1442   0.632   4.481   3.497
  400WAT     H2 1443   0.640   4.643   3.473
  401WAT      O 1444   6.043   4.196   3.672
  401WAT     H1 1445   6.014   4.276   3.725
  401WAT     H2 1446   6.063   4.120   3.734
  402WAT      O 1447   0.553   8.605   0.350
  402WAT     H1 1448   0.590   8.686   0.305
  402WAT     H2 1449   0.624   8.536   0.360
  403WAT      O 1450   0.234   5.034   7.242
  403WAT     H1 1451   0.232   4.936   7.222
  403WAT     H2 1452   0.224   5.086   7.157
  404WAT      O 1453   8.211   4.523   4.823
  404WAT     H1 1454   8.207   4.568   4.734
  404WAT     H2 1455   8.277   4.571   4.882
  405WAT      O 1456   3.782   5.124   7.838
  405WAT     H1 1457   3.689   5.088   7.826
  405WAT     H2 1458   3.783   5.221   7.813
  406WAT      O 1459   5.110   7.221   7.116
  406WAT     H1 1460   5.120   7.300   7.176
  406WAT     H2 1461   5.014   7.209   7.093
  407WAT      O 1462   8.181   0.967   4.430
  407WAT     H1 1463   8.162   0.937   4.337
  407WAT     H2 1464   8.276   0.947   4.453
  408WAT      O 1465   4.768   8.823   7.316
  408WAT     H1 1466   4.758   8.829   7.416
  408WAT     H2 1467   4.715   8.746   7.282
  409WAT      O 1468   9.115   6.193   2.150
  409WAT     H1 1469   9.125   6.131   2.228
  409WAT     H2 1470   9.159   6.153   2.070
  410WAT      O 1471   0.322   1.114   2.814
  410WAT     H1 1472   0.224   1.104   2.831
  410WAT     H2 1473   0.372   1.093   2.899
  411WAT      O 1474   3.051   6.271   2.971
  411WAT     H1 1475   3.028   6.193   3.030
  411WAT     H2 1476   3.141   6.256   2.930
  412WAT      O 1477   3.445   0.464   4.425
  412WAT     H1 1478   3.364   0.415   4.392
  412WAT     H2 1479   3.440   0.472   4.525
  413WAT      O 1480   1.142   8.615   1.465
  413WAT     H1 1481   1.140   8.599   1.564
  413WAT     H2 1482   1.218   8.563   1.425
  414WAT      O 1483   2.333   5.057   1.232
  414WAT     H1 1484   2.431   5.064   1.247
  414WAT     H2 1485   2.291   5.147   1.240
  415WAT      O 1486   4.212   1.148   3.969
  415WAT     H1 1487   4.123   1.188   3.947
  415WAT     H2 1488   4.278   1.172   3.897
  416WAT      O 1489   1.299   5.116   1.557
  416WAT     H1 1490   1.231   5.043   1.562
  416WAT     H2 1491   1.252   5.204   1.556
  417WAT      O 1492   0.570   7.547   6.183
  417WAT     H1 1493   0.543   7.491   6.261
  417WAT     H2 1494   0.670   7.548   6.175
  418WAT      O 1495   5.187   4.005   6.908
  418WAT     H1 1496   5.222   4.037   6.820
  418WAT     H2 1497   5.116   3.936   6.893
  419WAT      O 1498   6.757   7.228   2.309
  419WAT     H1 1499   6.660   7.203   2.304
  419WAT     H2 1500   6.778   7.260   2.401
  420WAT      O 1501   0.784   6.647   3.796
  420WAT     H1 1502   0.792   6.721   3.728
  420WAT     H2 1503   0.785   6.686   3.888
  421WAT      O 1504   6.564   8.709   0.974
  421WAT     H1 1505   6.662   8.691   0.985
  421WAT     H2 1506   6.526   8.740   1.061
  422WAT      O 1507   2.630   8.043   6.003
  422WAT     H1 1508   2.709   8.077   6.054
  422WAT     H2 1509   2.591   7.964   6.051
  423WAT      O 1510   3.827   9.684   0.766
  423WAT     H1 1511   3.870   9.614   0.708
  423WAT     H2 1512   3.760   9.735   0.711
  424WAT      O 1513   6.369   3.097   1.758
  424WAT     H1 1514   6.369   3.151   1.842
  424WAT     H2 1515   6.438   3.134   1.695
  425WAT      O 1516   2.657   1.615   6.720
  425WAT     H1 1517   2.647   1.691   6.783
  425WAT     H2 1518   2.715   1.544   6.761
  426WAT      O 1519   1.840   5.059   6.520
  426WAT     H1 1520   1.839   5.148   6.475
  426WAT     H2 1521   1.915   5.004   6.483
  427WAT      O 1522   1.246   7.725   1.118
  427WAT     H1 1523   1.276   7.807   1.168
  427WAT     H2 1524   1.237   7.748   1.021
  428WAT      O 1525   1.356   6.791   1.300
  428WAT     H1 1526   1.267   6.833   1.321
  428WAT     H2 1527   1.429   6.853   1.330
  429WAT      O 1528   1.016   7.474   5.791
  429WAT     H1 1529   1.051   7.479   5.698
  429WAT     H2 1530   0.956   7.395   5.801
  430WAT      O 1531   8.491   5.848   9.715
  430WAT     H1 1532   8.564   5.884   9.657
  430WAT     H2 1533   8.521   5.764   9.759
  431WAT      O 1534   2.866   0.778   9.697
  431WAT     H1 1535   2.792   0.712   9.709
  431WAT     H2 1536   2.827   0.870   9.693
  432WAT      O 1537   4.313   5.413   7.990
  432WAT     H1 1538   4.283   5.319   7.976
  432WAT     H2 1539   4.303   5.464   7.905
  433WAT      O 1540   5.291   1.271   3.214
  433WAT     H1 1541   5.388   1.296   3.212
  433WAT     H2 1542   5.275   1.195   3.151
  434WAT      O 1543   4.115   3.186   2.801
  434WAT     H1 1544   4.152   3.274   2.770
  434WAT     H2 1545   4.067   3.142   2.725
  435WAT      O 1546   8.972   3.747   2.476
  435WAT     H1 1547   8.945   3.667   2.529
  435WAT     H2 1548   9.027   3.718   2.398
  436WAT      O 1549   1.709   1.712   4.742
  436WAT     H1 1550   1.710   1.614   4.726
  436WAT     H2 1551   1.743   1.731   4.835
  437WAT      O 1552   6.313   6.856   3.717
  437WAT     H1 1553   6.382   6.877   3.648
  437WAT     H2 1554   6.290   6.939   3.768
  438WAT      O 1555   7.505   0.244   6.499
  438WAT     H1 1556   7.455   0.259   6.414
  438WAT     H2 1557   7.512   0.330   6.550
  439WAT      O 1558   4.939   1.852   6.708
  439WAT     H1 1559   4.896   1.772   6.749
  439WAT     H2 1560   5.016   1.821   6.650
  440WAT      O 1561   6.882   9.408   3.943
  440WAT     H1 1562   6.913   9.387   4.035
  440WAT     H2 1563   6.929   9.489   3.909
  441WAT      O 1564   3.532   4.980   0.527
  441WAT     H1 1565   3.457   5.036   0.561
  441WAT     H2 1566   3.532   4.892   0.575
  442WAT      O 1567   9.169   5.424   6.935
  442WAT     H1 1568   9.088   5.477   6.908
  442WAT     H2 1569   9.212   5.385   6.854
  443WAT      O 1570   9.395   1.481   6.601
  443WAT     H1 1571   9.366   1.570   6.567
  443WAT     H2 1572   9.435   1.492   6.692
  444WAT      O 1573   5.641   7.808   5.630
  444WAT     H1 1574   5.644   7.833   5.727
  444WAT     H2 1575   5.546   7.812   5.598
  445WAT      O 1576   8.692   1.145   9.628
  445WAT     H1 1577   8.635   1.149   9.546
  445WAT     H2 1578   8.690   1.234   9.674
  446WAT      O 1579   5.765   9.591   0.827
  446WAT     H1 1580   5.769   9.624   0.733
  446WAT     H2 1581   5.858   9.574   0.860
  447WAT      O 1582   5.146   8.446   5.590
  447WAT     H1 1583   5.056   8.477   5.560
  447WAT     H2 1584   5.217   8.503   5.549
  448WAT      O 1585   1.470   5.908   2.254
  448WAT     H1 1586   1.528   5.979   2.294
  448WAT     H2 1587   1.411   5.949   2.184
  449WAT      O 1588   2.560   8.695   7.776
  449WAT     H1 1589   2.532   8.650   7.860
  449WAT     H2 1590   2.498   8.669   7.702
  450WAT      O 1591   4.444   7.548   6.070
  450WAT     H1 1592   4.461   7.498   5.985
  450WAT     H2 1593   4.373   7.501   6.123
  451WAT      O 1594   2.785   1.457   1.453
  451WAT     H1 1595   2.814   1.553   1.458
  451WAT     H2 1596   2.866   1.398   1.451
  452WAT      O 1597   3.661   5.777   6.126
  452WAT     H1 1598   3.596   5.772   6.049
  452WAT     H2 1599   3.681   5.684   6.158
  453WAT      O 1600   2.130   9.822   4.538
  453WAT     H1 1601   2.167   9.787   4.624
  453WAT     H2 1602   2.056   9.886   4.557
  454WAT      O 1603   0.661   1.826   8.835
  454WAT     H1 1604   0.582   1.832   8.774
  454WAT     H2 1605   0.665   1.907   8.894
  455WAT      O 1606   5.201   5.430   3.375
  455WAT     H1 1607   5.103   5.449   3.370
  455WAT     H2 1608   5.218   5.366   3.450
  456WAT      O 1609   1.925   6.762   0.066
  456WAT     H1 1610   1.930   6.856   0.100
  456WAT     H2 1611   1.925   6.699   0.144
  457WAT      O 1612   4.967   7.765   6.526
  457WAT     H1 1613   4.983   7.777   6.428
  457WAT     H2 1614   4.963   7.668   6.548
  458WAT      O 1615   3.611   8.890   3.541
  458WAT     H1 1616   3.690   8.923   3.490
  458WAT     H2 1617   3.593   8.795   3.516
  459WAT      O 1618   8.720   2.970   8.513
  459WAT     H1 1619   8.800   2.917   8.485
  459WAT     H2 1620   8.644   2.951   8.451
  460WAT      O 1621   6.151   6.026   7.754
  460WAT     H1 1622   6.250   6.020   7.757
  460WAT     H2 1623   6.112   5.934   7.750
  461WAT      O 1624   5.130   3.796   7.278
  461WAT     H1 1625   5.193   3.870   7.302
  461WAT     H2 1626   5.043   3.836   7.247
  462WAT      O 1627   0.861   7.224   5.835
  462WAT     H1 1628   0.859   7.125   5.847
  462WAT     H2 1629   0.802   7.249   5.759
  463WAT      O 1630   2.690   6.500   2.296
  463WAT     H1 1631   2.724   6.418   2.342
  463WAT     H2 1632   2.749   6.578   2.319
  464WAT      O 1633   9.832   8.792   9.413
  464WAT     H1 1634   9.815   8.890   9.423
  464WAT     H2 1635   9.919   8.778   9.366
  465WAT      O 1636   7.988   1.574   6.699
  465WAT     H1 1637   8.020   1.491   6.652
  465WAT     H2 1638   7.895   1.559   6.733
  466WAT      O 1639   3.501   7.005   0.831
  466WAT     H1 1640   3.505   7.071   0.906
  466WAT     H2 1641   3.408   6.971   0.821
  467WAT      O 1642   3.239   5.655   0.574
  467WAT     H1 1643   3.156   5.705   0.552
  467WAT     H2 1644   3.272   5.682   0.664
  468WAT      O 1645   0.019   5.126   0.711
  468WAT     H1 1646   0.070   5.139   0.626
  468WAT     H2 1647   0.082   5.116   0.787
  469WAT      O 1648   1.442   4.124   4.283
  469WAT     H1 1649   1.395   4.116   4.194
  469WAT     H2 1650   1.440   4.220   4.312
  470WAT      O 1651   5.776   4.510   0.314
  470WAT     H1 1652   5.797   4.441   0.245
  470WAT     H2 1653   5.712   4.577   0.277
  471WAT      O 1654   3.179   5.304   1.730
  471WAT     H1 1655   3.227   5.305   1.642
  471WAT     H2 1656   3.097   5.361   1.724
  472WAT      O 1657   6.698   7.212   6.109
  472WAT     H1 1658   6.604   7.215   6.141
  472WAT     H2 1659   6.701   7.233   6.011
  473WAT      O 1660   9.799   1.890   4.992
  473WAT     H1 1661   9.849   1.965   4.949
  473WAT     H2 1662   9.714   1.925   5.033
  474WAT      O 1663   0.666   1.775   5.454
  474WAT     H1 1664   0.682   1.821   5.542
  474WAT     H2 1665   0.747   1.783   5.396
  475WAT      O 1666   3.860   6.436   1.004
  475WAT     H1 1667   3.824   6.457   0.914
  475WAT     H2 1668   3.897   6.519   1.046
  476WAT      O 1669   8.630   2.794   9.141
  476WAT     H1 1670   8.722   2.831   9.159
  476WAT     H2 1671   8.609   2.725   9.210
  477WAT      O 1672   8.057   8.583   4.771
  477WAT     H1 1673   8.011   8.663   4.810
  477WAT     H2 1674   8.043   8.505   4.832
  478WAT      O 1675   7.038   9.564   6.678
  478WAT     H1 1676   7.059   9.473   6.641
  478WAT     H2 1677   7.014   9.555   6.775
  479WAT      O 1678   9.853   3.693   5.106
  479WAT     H1 1679   9.878   3.615   5.164
  479WAT     H2 1680   9.935   3.742   5.078
  480WAT      O 1681   9.278   5.904   2.205
  480WAT     H1 1682   9.309   5.810   2.215
  480WAT     H2 1683   9.300   5.956   2.288
  481WAT      O 1684   6.627   7.231   1.803
  481WAT     H1 1685   6.721   7.198   1.804
  481WAT     H2 1686   6.622   7.320   1.849
  482WAT      O 1687   4.174   5.945   9.176
  482WAT     H1 1688   4.240   6.019   9.189
  482WAT     H2 1689   4.184   5.879   9.250
  483WAT      O 1690   3.505   6.858   4.952
  483WAT     H1 1691   3.461   6.926   4.894
  483WAT     H2 1692   3.441   6.824   5.020
  484WAT      O 1693   7.408   4.237   9.602
  484WAT     H1 1694   7.379   4.307   9.536
  484WAT     H2 1695   7.369   4.258   9.692
  485WAT      O 1696   7.307   5.594   9.877
  485WAT     H1 1697   7.362   5.531   9.932
  485WAT     H2 1698   7.215   5.557   9.865
  486WAT      O 1699   2.945   0.072   2.487
  486WAT     H1 1700   2.861   0.051   2.436
  486WAT     H2 1701   2.943   0.167   2.517
  487WAT      O 1702   0.609   2.393   5.827
  487WAT     H1 1703   0.624   2.422   5.733
  487WAT     H2 1704   0.522   2.428   5.859
  488WAT      O 1705   6.096   3.946   8.512
  488WAT     H1 1706   6.082   4.032   8.561
  488WAT     H2 1707   6.153   3.962   8.431
  489WAT      O 1708   6.804   1.389   8.023
  489WAT     H1 1709   6.885   1.434   8.061
  489WAT     H2 1710   6.778   1.434   7.938
  490WAT      O 1711   9.669   2.674   1.708
  490WAT     H1 1712   9.694   2.646   1.615
  490WAT     H2 1713   9.702   2.607   1.773
  491WAT      O 1714   2.645   8.679   2.208
  491WAT     H1 1715   2.602   8.648   2.123
  491WAT     H2 1716   2.650   8.602   2.272
  492WAT      O 1717   2.788   2.238   1.508
  492WAT     H1 1718   2.757   2.172   1.576
  492WAT     H2 1719   2.885   2.223   1.489
  493WAT      O 1720   9.574   7.576   6.813
  493WAT     H1 1721   9.528   7.501   6.862
  493WAT     H2 1722   9.516   7.657   6.815
  494WAT      O 1723   4.452   6.135   3.248
  494WAT     H1 1724   4.422   6.130   3.153
  494WAT     H2 1725   4.383   6.185   3.302
  495WAT      O 1726   3.191   9.774   9.258
  495WAT     H1 1727   3.275   9.774   9.311
  495WAT     H2 1728   3.124   9.712   9.301
  496WAT      O 1729   1.912   1.398   2.365
  496WAT     H1 1730   1.991   1.336   2.360
  496WAT     H2 1731   1.877   1.399   2.459
  497WAT      O 1732   8.010   7.456   9.749
  497WAT     H1 1733   7.958   7.381   9.791
  497WAT     H2 1734   7.949   7.512   9.694
  498WAT      O 1735   1.589   4.782   7.821
  498WAT     H1 1736   1.491   4.787   7.840
  498WAT     H2 1737   1.618   4.868   7.777
  499WAT      O 1738   0.869   5.972   2.676
  499WAT     H1 1739   0.951   5.971   2.734
  499WAT     H2 1740   0.896   5.987   2.581
  500WAT      O 1741   2.206   1.849   3.715
  500WAT     H1 1742   2.237   1.944   3.724
  500WAT     H2 1743   2.214   1.820   3.620
  501WAT      O 1744   0.065   0.946   5.346
  501WAT     H1 1745   0.076   0.906   5.256
  501WAT     H2 1746   0.125   1.026   5.355
  502WAT      O 1747   5.012   3.565   2.247
  502WAT     H1 1748   5.004   3.664   2.239
  502WAT     H2 1749   4.999   3.538   2.342
  503WAT      O 1750   5.555   0.145   3.967
  503WAT     H1 1751   5.494   0.141   4.046
  503WAT     H2 1752   5.500   0.155   3.884
  504WAT      O 1753   9.192   5.457   6.423
  504WAT     H1 1754   9.283   5.494   6.404
  504WAT     H2 1755   9.156   5.412   6.342
  505WAT      O 1756   3.276   6.649   1.970
  505WAT     H1 1757   3.350   6.583   1.960
  505WAT     H2 1758   3.303   6.719   2.037
  506WAT      O 1759   0.070   3.996   4.721
  506WAT     H1 1760  -0.020   3.964   4.752
  506WAT     H2 1761   0.084   3.969   4.626
  507WAT      O 1762   8.478   1.109   4.975
  507WAT     H1 1763   8.467   1.055   4.891
  507WAT     H2 1764   8.437   1.199   4.961
  508WAT      O 1765   8.236   4.016   6.179
  508WAT     H1 1766   8.229   4.020   6.279
  508WAT     H2 1767   8.269   3.926   6.151
  509WAT      O 1768   2.597   3.158   1.643
  509WAT     H1 1769   2.650   3.145   1.727
  509WAT     H2 1770   2.509   3.110   1.652
  510WAT      O 1771   5.485   6.745   7.630
  510WAT     H1 1772   5.443   6.679   7.692
  510WAT     H2 1773   5.432   6.830   7.631
  511WAT      O 1774   0.630   0.173   8.647
  511WAT     H1 1775   0.564   0.179   8.571
  511WAT     H2 1776   0.601   0.102   8.710
  512WAT      O 1777   9.858   6.818   9.738
  512WAT     H1 1778   9.875   6.768   9.653
  512WAT     H2 1779   9.781   6.880   9.725
  513WAT      O 1780   2.206   9.184   2.501
  513WAT     H1 1781   2.278   9.143   2.444
  513WAT     H2 1782   2.172   9.115   2.565
  514WAT      O 1783   7.514   3.139   9.221
  514WAT     H1 1784   7.494   3.139   9.123
  514WAT     H2 1785   7.519   3.045   9.254
  515WAT      O 1786   0.884   5.921   3.810
  515WAT     H1 1787   0.830   5.967   3.880
  515WAT     H2 1788   0.981   5.924   3.836
  516WAT      O 1789   5.633   7.673   1.904
  516WAT     H1 1790   5.573   7.700   1.829
  516WAT     H2 1791   5.711   7.736   1.908
  517WAT      O 1792   7.019   1.254   6.498
  517WAT     H1 1793   7.027   1.197   6.580
  517WAT     H2 1794   6.966   1.336   6.520
  518WAT      O 1795   4.312   9.438   8.406
  518WAT     H1 1796   4.411   9.433   8.422
  518WAT     H2 1797   4.293   9.411   8.312
  519WAT      O 1798   8.035   4.730   4.060
  519WAT     H1 1799   7.995   4.638   4.062
  519WAT     H2 1800   7.963   4.798   4.074
  520WAT      O 1801   7.065   8.961   5.842
  520WAT     H1 1802   7.035   8.895   5.773
  520WAT     H2 1803   7.163   8.978   5.831
  521WAT      O 1804   3.147   3.807   6.178
  521WAT     H1 1805   3.114   3.815   6.084
  521WAT     H2 1806   3.206   3.727   6.186
  522WAT      O 1807   1.151   1.491   5.944
  522WAT     H1 1808   1.122   1.586   5.934
  522WAT     H2 1809   1.232   1.475   5.887
  523WAT      O 1810   3.907   1.294   3.010
  523WAT     H1 1811   3.990   1.322   3.056
  523WAT     H2 1812   3.930   1.251   2.922
  524WAT      O 1813   0.413   5.005   6.681
  524WAT     H1 1814   0.437   5.092   6.724
  524WAT     H2 1815   0.352   4.953   6.741
  525WAT      O 1816   9.583   4.104   3.883
  525WAT     H1 1817   9.623   4.120   3.974
  525WAT     H2 1818   9.491   4.143   3.880
  526WAT      O 1819   3.399   8.736   2.993
  526WAT     H1 1820   3.358   8.767   2.907
  526WAT     H2 1821   3.418   8.816   3.051
  527WAT      O 1822   9.688   4.639   7.578
  527WAT     H1 1823   9.699   4.647   7.677
  527WAT     H2 1824   9.693   4.543   7.552
  528WAT      O 1825   5.994   3.358   4.898
  528WAT     H1 1826   6.046   3.390   4.818
  528WAT     H2 1827   6.028   3.402   4.980
  529WAT      O 1828   9.094   7.857   9.526
  529WAT     H1 1829   9.190   7.876   9.506
  529WAT     H2 1830   9.066   7.771   9.484
  530WAT      O 1831   5.598   4.105   6.145
  530WAT     H1 1832   5.512   4.054   6.138
  530WAT     H2 1833   5.611   4.160   6.062
  531WAT      O 1834   8.119   0.290   7.886
  531WAT     H1 1835   8.196   0.227   7.884
  531WAT     H2 1836   8.130   0.353   7.964
  532WAT      O 1837   7.151   8.361   8.078
  532WAT     H1 1838   7.153   8.353   8.178
  532WAT     H2 1839   7.161   8.457   8.052
  533WAT      O 1840   7.855   7.201   7.829
  533WAT     H1 1841   7.783   7.167   7.769
  533WAT     H2 1842   7.872   7.298   7.810
  534WAT      O 1843   6.219   7.089   0.682
  534WAT     H1 1844   6.244   7.173   0.633
  534WAT     H2 1845   6.300   7.032   0.694
  535WAT      O 1846   7.166   5.849   2.648
  535WAT     H1 1847   7.137   5.893   2.734
  535WAT     H2 1848   7.183   5.919   2.579
  536WAT      O 1849   3.601   3.447   2.653
  536WAT     H1 1850   3.583   3.517   2.583
  536WAT     H2 1851   3.543   3.463   2.732
  537WAT      O 1852   4.194   7.427   1.177
  537WAT     H1 1853   4.224   7.403   1.085
  537WAT     H2 1854   4.141   7.352   1.216
  538WAT      O 1855   3.000   3.657   6.751
  538WAT     H1 1856   2.952   3.601   6.683
  538WAT     H2 1857   2.933   3.708   6.805
  539WAT      O 1858   1.583   0.617   0.470
  539WAT     H1 1859   1.488   0.611   0.501
  539WAT     H2 1860   1.596   0.700   0.417
  540WAT      O 1861   8.250   4.125   6.701
  540WAT     H1 1862   8.191   4.201   6.728
  540WAT     H2 1863   8.215   4.040   6.742
  541WAT      O 1864   9.580   9.305   3.621
  541WAT     H1 1865   9.620   9.213   3.630
  541WAT     H2 1866   9.553   9.320   3.526
  542WAT      O 1867   8.209   5.428   6.537
  542WAT     H1 1868   8.283   5.367   6.565
  542WAT     H2 1869   8.124   5.376   6.529
  543WAT      O 1870   6.305   7.844   8.865
  543WAT     H1 1871   6.328   7.852   8.962
  543WAT     H2 1872   6.251   7.923   8.837
  544WAT      O 1873   0.402   9.482   5.666
  544WAT     H1 1874   0.462   9.497   5.587
  544WAT     H2 1875   0.308   9.468   5.635
  545WAT      O 1876   8.047   2.185   9.160
  545WAT     H1 1877   8.110   2.237   9.102
  545WAT     H2 1878   8.006   2.246   9.227
  546WAT      O 1879   8.065   2.712   2.131
  546WAT     H1 1880   8.043   2.706   2.229
  546WAT     H2 1881   8.128   2.639   2.107
  547WAT      O 1882   3.705   8.690   7.816
  547WAT     H1 1883   3.744   8.599   7.801
  547WAT     H2 1884   3.764   8.742   7.878
  548WAT      O 1885   5.041   6.703   1.933
  548WAT     H1 1886   5.124   6.758   1.923
  548WAT     H2 1887   4.962   6.755   1.901
  549WAT      O 1888   5.757   9.420   8.872
  549WAT     H1 1889   5.703   9.350   8.918
  549WAT     H2 1890   5.790   9.486   8.939
  550WAT      O 1891   7.039   2.166   2.084
  550WAT     H1 1892   7.013   2.246   2.138
  550WAT     H2 1893   7.083   2.195   1.999
  551WAT      O 1894   0.353   0.280   4.395
  551WAT     H1 1895   0.315   0.373   4.397
  551WAT     H2 1896   0.288   0.219   4.349
  552WAT      O 1897   5.503   6.944   2.231
  552WAT     H1 1898   5.431   6.962   2.163
  552WAT     H2 1899   5.576   7.012   2.221
  553WAT      O 1900   2.466   6.183   7.248
  553WAT     H1 1901   2.457   6.208   7.345
  553WAT     H2 1902   2.468   6.266   7.193
  554WAT      O 1903   6.463   2.524   9.483
  554WAT     H1 1904   6.450   2.609   9.433
  554WAT     H2 1905   6.527   2.539   9.558
  555WAT      O 1906   9.632   5.166   0.795
  555WAT     H1 1907   9.614   5.262   0.812
  555WAT     H2 1908   9.725   5.155   0.760
  556WAT      O 1909   0.058   1.323   9.504
  556WAT     H1 1910   0.102   1.243   9.543
  556WAT     H2 1911   0.025   1.383   9.577
  557WAT      O 1912   6.454   9.610   2.522
  557WAT     H1 1913   6.355   9.600   2.532
  557WAT     H2 1914   6.475   9.696   2.477
  558WAT      O 1915   2.073   9.563   9.069
  558WAT     H1 1916   1.973   9.567   9.066
  558WAT     H2 1917   2.104   9.561   9.164
  559WAT      O 1918   8.065   7.138   6.722
  559WAT     H1 1919   7.990   7.074   6.738
  559WAT     H2 1920   8.108   7.162   6.809
  560WAT      O 1921   6.450   1.410   9.326
  560WAT     H1 1922   6.541   1.393   9.362
  560WAT     H2 1923   6.456   1.427   9.227
  561WAT      O 1924   3.879   6.199   3.829
  561WAT     H1 1925   3.976   6.214   3.810
  561WAT     H2 1926   3.824   6.244   3.758
  562WAT      O 1927   4.079   2.968   1.192
  562WAT     H1 1928   4.068   3.040   1.261
  562WAT     H2 1929   4.027   2.993   1.110
  563WAT      O 1930   9.791   5.875   5.588
  563WAT     H1 1931   9.717   5.866   5.654
  563WAT     H2 1932   9.754   5.912   5.502
  564WAT      O 1933   7.861   4.378   9.603
  564WAT     H1 1934   7.939   4.433   9.576
  564WAT     H2 1935   7.782   4.401   9.545
  565WAT      O 1936   5.638   5.775   0.877
  565WAT     H1 1937   5.725   5.733   0.852
  565WAT     H2 1938   5.649   5.874   0.880
  566WAT      O 1939   9.193   6.552   4.355
  566WAT     H1 1940   9.117   6.615   4.337
  566WAT     H2 1941   9.157   6.465   4.390
  567WAT      O 1942   4.037   2.125   3.034
  567WAT     H1 1943   3.991   2.169   3.112
  567WAT     H2 1944   4.073   2.036   3.064
  568WAT      O 1945   3.591   0.623   7.809
  568WAT     H1 1946   3.658   0.573   7.864
  568WAT     H2 1947   3.575   0.573   7.724
  569WAT      O 1948   8.353   2.648   7.768
  569WAT     H1 1949   8.393   2.729   7.811
  569WAT     H2 1950   8.287   2.676   7.699
  570WAT      O 1951   8.525   0.644   7.358
  570WAT     H1 1952   8.538   0.695   7.443
  570WAT     H2 1953   8.430   0.653   7.328
  571WAT      O 1954   3.566   6.295   4.481
  571WAT     H1 1955   3.485   6.343   4.448
  571WAT     H2 1956   3.545   6.198   4.493
  572WAT      O 1957   8.480   4.311   9.090
  572WAT     H1 1958   8.479   4.218   9.128
  572WAT     H2 1959   8.414   4.317   9.015
  573WAT      O 1960   6.432   1.048   4.203
  573WAT     H1 1961   6.418   1.060   4.105
  573WAT     H2 1962   6.506   1.109   4.234
  574WAT      O 1963   5.268   2.690   1.379
  574WAT     H1 1964   5.219   2.689   1.466
  574WAT     H2 1965   5.287   2.784   1.352
  575WAT      O 1966   3.890   9.633   3.067
  575WAT     H1 1967   3.902   9.535   3.085
  575WAT     H2 1968   3.798   9.650   3.032
  576WAT      O 1969   7.998   5.576   0.481
  576WAT     H1 1970   8.031   5.517   0.554
  576WAT     H2 1971   7.964   5.519   0.406
  577WAT      O 1972   6.228   5.227   5.480
  577WAT     H1 1973   6.165   5.277   5.539
  577WAT     H2 1974   6.321   5.233   5.518
  578WAT      O 1975   3.146   7.549   2.155
  578WAT     H1 1976   3.178   7.566   2.062
  578WAT     H2 1977   3.137   7.451   2.169
  579WAT      O 1978   0.399   7.332   4.340
  579WAT     H1 1979   0.458   7.391   4.395
  579WAT     H2 1980   0.311   7.321   4.386
  580WAT      O 1981   2.228   2.468   3.763
  580WAT     H1 1982   2.204   2.389   3.819
  580WAT     H2 1983   2.292   2.527   3.813
  581WAT      O 1984   5.180   3.978   8.133
  581WAT     H1 1985   5.178   4.056   8.071
  581WAT     H2 1986   5.206   4.008   8.224
  582WAT      O 1987   6.628   4.246   1.293
  582WAT     H1 1988   6.690   4.239   1.371
  582WAT     H2 1989   6.601   4.342   1.280
  583WAT      O 1990   6.505   5.938   4.015
  583WAT     H1 1991   6.530   5.897   3.927
  583WAT     H2 1992   6.472   5.867   4.077
  584WAT      O 1993   2.891   8.137   4.822
  584WAT     H1 1994   2.952   8.125   4.901
  584WAT     H2 1995   2.876   8.234   4.807
  585WAT      O 1996   9.851   1.414   6.697
  585WAT     H1 1997   9.856   1.321   6.731
  585WAT     H2 1998   9.772   1.461   6.738
  586WAT      O 1999   7.342   1.144   4.696
  586WAT     H1 2000   7.413   1.086   4.738
  586WAT     H2 2001   7.253   1.123   4.736
  587WAT      O 2002   2.259   9.737   1.922
  587WAT     H1 2003   2.304   9.659   1.966
  587WAT     H2 2004   2.192   9.704   1.856
  588WAT      O 2005   6.226   7.579   5.332
  588WAT     H1 2006   6.289   7.607   5.404
  588WAT     H2 2007   6.151   7.526   5.372
  589WAT      O 2008   9.316   2.510   8.188
  589WAT     H1 2009   9.406   2.476   8.214
  589WAT     H2 2010   9.261   2.527   8.270
  590WAT      O 2011   2.130   9.108   6.233
  590WAT     H1 2012   2.081   9.091   6.148
  590WAT     H2 2013   2.101   9.195   6.272
  591WAT      O 2014   3.660   5.318   6.314
  591WAT     H1 2015   3.708   5.271   6.387
  591WAT     H2 2016   3.567   5.339   6.343
  592WAT      O 2017   1.035   1.555   8.728
  592WAT     H1 2018   1.117   1.520   8.684
  592WAT     H2 2019   0.989   1.482   8.777
  593WAT      O 2020   8.490   1.894   4.631
  593WAT     H1 2021   8.529   1.825   4.691
  593WAT     H2 2022   8.421   1.853   4.572
  594WAT      O 2023   0.320   0.447   6.294
  594WAT     H1 2024   0.255   0.431   6.368
  594WAT     H2 2025   0.407   0.403   6.316
  595WAT      O 2026   0.784   6.928   9.346
  595WAT     H1 2027   0.737   6.933   9.434
  595WAT     H2 2028   0.762   7.010   9.292
  596WAT      O 2029   3.211   8.147   0.490
  596WAT     H1 2030   3.180   8.160   0.396
  596WAT     H2 2031   3.198   8.051   0.516
  597WAT      O 2032   9.346   9.082   4.716
  597WAT     H1 2033   9.373   9.167   4.762
  597WAT     H2 2034   9.342   9.098   4.617
  598WAT      O 2035   6.548   0.317   9.656
  598WAT     H1 2036   6.458   0.273   9.648
  598WAT     H2 2037   6.547   0.405   9.609
  599WAT      O 2038   1.915   3.726   6.076
  599WAT     H1 2039   1.925   3.627   6.084
  599WAT     H2 2040   1.840   3.757   6.136
  600WAT      O 2041   2.406   5.948   9.695
  600WAT     H1 2042   2.408   5.928   9.793
  600WAT     H2 2043   2.478   6.013   9.672
  601WAT      O 2044   8.031   4.631   2.348
  601WAT     H1 2045   7.989   4.567   2.284
  601WAT     H2 2046   7.961   4.694   2.383
  602WAT      O 2047   1.448   2.199   6.264
  602WAT     H1 2048   1.484   2.131   6.328
  602WAT     H2 2049   1.378   2.254   6.310
  603WAT      O 2050   3.967   8.672   4.888
  603WAT     H1 2051   3.912   8.748   4.921
  603WAT     H2 2052   4.015   8.630   4.964
  604WAT      O 2053   0.919   0.925   4.266
  604WAT     H1 2054   0.998   0.964   4.315
  604WAT     H2 2055   0.914   0.827   4.283
  605WAT      O 2056   2.794   1.021   4.545
  605WAT     H1 2057   2.778   0.924   4.528
  605WAT     H2 2058   2.881   1.048   4.505
  606WAT      O 2059   4.274   4.887   8.053
  606WAT     H1 2060   4.263   4.824   8.129
  606WAT     H2 2061   4.371   4.907   8.040
  607WAT      O 2062   6.149   2.266   8.639
  607WAT     H1 2063   6.121   2.181   8.685
  607WAT     H2 2064   6.210   2.317   8.699
  608WAT      O 2065   7.949   5.411   2.796
  608WAT     H1 2066   7.967   5.379   2.889
  608WAT     H2 2067   8.035   5.435   2.751
  609WAT      O 2068   0.790   4.364   1.962
  609WAT     H1 2069   0.859   4.338   2.029
  609WAT     H2 2070   0.705   4.388   2.008
  610WAT      O 2071   3.998   5.417   7.945
  610WAT     H1 2072   4.096   5.432   7.955
  610WAT     H2 2073   3.967   5.355   8.017
  611WAT      O 2074   5.423   2.189   1.883
  611WAT     H1 2075   5.472   2.201   1.970
  611WAT     H2 2076   5.384   2.276   1.855
  612WAT      O 2077   0.924   1.304   3.944
  612WAT     H1 2078   0.995   1.370   3.920
  612WAT     H2 2079   0.951   1.213   3.914
  613WAT      O 2080   2.146   4.885   9.326
  613WAT     H1 2081   2.050   4.860   9.321
  613WAT     H2 2082   2.189   4.873   9.237
  614WAT      O 2083   4.009   4.763   0.319
  614WAT     H1 2084   3.971   4.741   0.229
  614WAT     H2 2085   4.068   4.843   0.311
  615WAT      O 2086   5.431   6.976   5.846
  615WAT     H1 2087   5.473   6.887   5.826
  615WAT     H2 2088   5.502   7.046   5.846
  616WAT      O 2089   7.644   2.208   6.943
  616WAT     H1 2090   7.559   2.200   6.996
  616WAT     H2 2091   7.720   2.231   7.004
  617WAT      O 2092   4.627   7.977   2.821
  617WAT     H1 2093   4.622   7.882   2.849
  617WAT     H2 2094   4.578   8.035   2.886
  618WAT      O 2095   7.996   9.264   1.026
  618WAT     H1 2096   8.086   9.248   1.065
  618WAT     H2 2097   7.970   9.360   1.042
  619WAT      O 2098   3.645   9.629   2.757
  619WAT     H1 2099   3.692   9.558   2.704
  619WAT     H2 2100   3.565   9.661   2.705
  620WAT      O 2101   0.058   4.648   6.118
  620WAT     H1 2102   0.005   4.645   6.034
  620WAT     H2 2103   0.003   4.690   6.191
  621WAT      O 2104   8.490   7.312   4.162
  621WAT     H1 2105   8.463   7.387   4.102
  621WAT     H2 2106   8.493   7.345   4.257
  622WAT      O 2107   0.619   5.647   7.865
  622WAT     H1 2108   0.540   5.706   7.847
  622WAT     H2 2109   0.641   5.594   7.783
  623WAT      O 2110   9.584   8.702   5.772
  623WAT     H1 2111   9.492   8.682   5.805
  623WAT     H2 2112   9.594   8.801   5.759
  624WAT      O 2113   8.412   2.436   8.848
  624WAT     H1 2114   8.318   2.471   8.850
  624WAT     H2 2115   8.466   2.491   8.785
  625WAT      O 2116   9.805   6.355   0.425
  625WAT     H1 2117   9.712   6.359   0.390
  625WAT     H2 2118   9.833   6.446   0.456
  626WAT      O 2119   4.748   6.668   2.635
  626WAT     H1 2120   4.761   6.594   2.569
  626WAT     H2 2121   4.739   6.755   2.587
  627WAT      O 2122   2.812   3.213   5.021
  627WAT     H1 2123   2.874   3.134   5.019
  627WAT     H2 2124   2.863   3.294   5.050
  628WAT      O 2125   0.025   6.687   5.612
  628WAT     H1 2126   0.049   6.714   5.705
  628WAT     H2 2127   0.074   6.604   5.588
  629WAT      O 2128   1.417   1.008   1.377
  629WAT     H1 2129   1.392   1.090   1.428
  629WAT     H2 2130   1.380   0.928   1.423
  630WAT      O 2131   0.375   2.271   8.087
  630WAT     H1 2132   0.414   2.211   8.018
  630WAT     H2 2133   0.349   2.358   8.045
  631WAT      O 2134   2.466   4.686   7.533
  631WAT     H1 2135   2.505   4.753   7.597
  631WAT     H2 2136   2.426   4.734   7.455
  632WAT      O 2137   2.477   1.095   7.887
  632WAT     H1 2138   2.501   1.118   7.981
  632WAT     H2 2139   2.504   1.170   7.827
  633WAT      O 2140   7.483   3.370   7.408
  633WAT     H1 2141   7.511   3.276   7.427
  633WAT     H2 2142   7.562   3.423   7.376
  634WAT      O 2143   7.591   4.599   1.119
  634WAT     H1 2144   7.601   4.620   1.022
  634WAT     H2 2145   7.617   4.679   1.173
  635WAT      O 2146   9.007   1.515   8.643
  635WAT     H1 2147   9.005   1.599   8.699
  635WAT     H2 2148   8.968   1.534   8.553
  636WAT      O 2149   1.231   6.207   1.143
  636WAT     H1 2150   1.163   6.280   1.153
  636WAT     H2 2151   1.194   6.121   1.179
  637WAT      O 2152   3.233   3.376   7.578
  637WAT     H1 2153   3.196   3.298   7.629
  637WAT     H2 2154   3.291   3.431   7.638
  638WAT      O 2155   8.586   0.775   6.286
  638WAT     H1 2156   8.649   0.788   6.210
  638WAT     H2 2157   8.519   0.706   6.262
  639WAT      O 2158   4.861   9.350   9.238
  639WAT     H1 2159   4.790   9.414   9.266
  639WAT     H2 2160   4.837   9.309   9.150
  640WAT      O 2161   4.894   7.205   5.723
  640WAT     H1 2162   4.879   7.226   5.626
  640WAT     H2 2163   4.877   7.286   5.778
  641WAT      O 2164   6.856   8.542   0.286
  641WAT     H1 2165   6.828   8.631   0.321
  641WAT     H2 2166   6.921   8.554   0.211
  642WAT      O 2167   4.211   7.519   0.848
  642WAT     H1 2168   4.260   7.583   0.906
  642WAT     H2 2169   4.192   7.562   0.760
  643WAT      O 2170   6.508   4.122   3.082
  643WAT     H1 2171   6.543   4.131   3.175
  643WAT     H2 2172   6.459   4.206   3.057
  644WAT      O 2173   7.270   4.680   7.317
  644WAT     H1 2174   7.240   4.703   7.224
  644WAT     H2 2175   7.257   4.759   7.377
  645WAT      O 2176   3.448   7.819   4.107
  645WAT     H1 2177   3.461   7.836   4.205
  645WAT     H2 2178   3.350   7.812   4.088
  646WAT      O 2179   9.576   7.391   2.256
  646WAT     H1 2180   9.506   7.454   2.223
  646WAT     H2 2181   9.533   7.309   2.293
  647WAT      O 2182   7.173   8.646   0.608
  647WAT     H1 2183   7.088   8.697   0.622
  647WAT     H2 2184   7.155   8.567   0.549
  648WAT      O 2185   9.573   5.371   0.062
  648WAT     H1 2186   9.672   5.368   0.071
  648WAT     H2 2187   9.546   5.451   0.009
  649WAT      O 2188   5.514   8.535   1.987
  649WAT     H1 2189   5.516   8.630   1.956
  649WAT     H2 2190   5.449   8.483   1.933
  650WAT      O 2191   4.203   2.982   3.243
  650WAT     H1 2192   4.115   3.029   3.229
  650WAT     H2 2193   4.216   2.963   3.340
  651WAT      O 2194   2.157   5.358   8.254
  651WAT     H1 2195   2.171   5.438   8.312
  651WAT     H2 2196   2.223   5.359   8.179
  652WAT      O 2197   0.240   0.062   0.947
  652WAT     H1 2198   0.255   0.127   1.021
  652WAT     H2 2199   0.156   0.085   0.898
  653WAT      O 2200   8.868   1.342   3.409
  653WAT     H1 2201   8.882   1.437   3.436
  653WAT     H2 2202   8.774   1.330   3.377
  654WAT      O 2203   5.777   5.870   4.746
  654WAT     H1 2204   5.848   5.850   4.678
  654WAT     H2 2205   5.820   5.907   4.829
  655WAT      O 2206   7.906   0.371   9.844
  655WAT     H1 2207   7.917   0.284   9.795
  655WAT     H2 2208   7.950   0.364   9.934
  656WAT      O 2209   6.577   2.705   4.604
  656WAT     H1 2210   6.676   2.710   4.616
  656WAT     H2 2211   6.557   2.668   4.513
  657WAT      O 2212   7.998   5.953   2.736
  657WAT     H1 2213   8.022   6.033   2.792
  657WAT     H2 2214   7.941   5.891   2.790
  658WAT      O 2215   8.583   4.924   3.714
  658WAT     H1 2216   8.671   4.953   3.675
  658WAT     H2 2217   8.521   4.897   3.640
  659WAT      O 2218   4.652   2.973   1.474
  659WAT     H1 2219   4.696   2.922   1.548
  659WAT     H2 2220   4.720   3.027   1.425
  660WAT      O 2221   8.983   0.134   3.170
  660WAT     H1 2222   8.946   0.114   3.080
  660WAT     H2 2223   8.919   0.102   3.240
  661WAT      O 2224   2.829   7.260   3.453
  661WAT     H1 2225   2.903   7.210   3.498
  661WAT     H2 2226   2.828   7.354   3.486
  662WAT      O 2227   4.369   1.440   9.832
  662WAT     H1 2228   4.447   1.386   9.865
  662WAT     H2 2229   4.287   1.384   9.835
  663WAT      O 2230   0.574   3.518   6.189
  663WAT     H1 2231   0.654   3.514   6.131
  663WAT     H2 2232   0.547   3.425   6.216
  664WAT      O 2233   9.515   3.165   1.568
  664WAT     H1 2234   9.439   3.177   1.632
  664WAT     H2 2235   9.491   3.206   1.480
  665WAT      O 2236   0.290   2.042   3.516
  665WAT     H1 2237   0.267   2.086   3.429
  665WAT     H2 2238   0.212   2.049   3.578
  666WAT      O 2239   0.837   1.801   4.894
  666WAT     H1 2240   0.915   1.789   4.956
  666WAT     H2 2241   0.774   1.868   4.934
  667WAT      O 2242   2.631   2.828   1.292
  667WAT     H1 2243   2.653   2.778   1.376
  667WAT     H2 2244   2.617   2.925   1.314
  668WAT      O 2245   7.823   2.420   9.027
  668WAT     H1 2246   7.848   2.478   9.104
  668WAT     H2 2247   7.756   2.352   9.056
  669WAT      O 2248   3.152   7.065   3.956
  669WAT     H1 2249   3.153   7.005   3.875
  669WAT     H2 2250   3.181   7.157   3.929
  670WAT      O 2251   5.488   3.868   0.678
  670WAT     H1 2252   5.475   3.807   0.756
  670WAT     H2 2253   5.436   3.952   0.692
  671WAT      O 2254   0.457   7.733   0.440
  671WAT     H1 2255   0.459   7.827   0.473
  671WAT     H2 2256   0.517   7.676   0.496
  672WAT      O 2257   7.222   1.912   4.956
  672WAT     H1 2258   7.232   2.000   5.003
  672WAT     H2 2259   7.144   1.916   4.893
  673WAT      O 2260   5.920   4.079   0.060
  673WAT     H1 2261   5.930   3.990   0.016
  673WAT     H2 2262   6.009   4.109   0.094
  674WAT      O 2263   5.562   3.444   8.891
  674WAT     H1 2264   5.510   3.525   8.862
  674WAT     H2 2265   5.615   3.467   8.972
  675WAT      O 2266   0.165   1.980   8.782
  675WAT     H1 2267   0.098   2.033   8.731
  675WAT     H2 2268   0.144   1.882   8.773
  676WAT      O 2269   5.178   6.151   8.734
  676WAT     H1 2270   5.125   6.071   8.762
  676WAT     H2 2271   5.123   6.208   8.673
  677WAT      O 2272   0.696   0.440   9.833
  677WAT     H1 2273   0.774   0.485   9.876
  677WAT     H2 2274   0.702   0.450   9.734
  678WAT      O 2275   2.131   8.136   8.635
  678WAT     H1 2276   2.103   8.232   8.626
  678WAT     H2 2277   2.062   8.077   8.594
  679WAT      O 2278   7.494   3.728   8.048
  679WAT     H1 2279   7.421   3.793   8.026
  679WAT     H2 2280   7.455   3.647   8.091
  680WAT      O 2281   6.821   3.059   4.230
  680WAT     H1 2282   6.774   2.974   4.251
  680WAT     H2 2283   6.920   3.044   4.229
  681WAT      O 2284   4.680   0.531   0.968
  681WAT     H1 2285   4.713   0.437   0.960
  681WAT     H2 2286   4.744   0.585   1.022
  682WAT      O 2287   3.100   1.066   8.888
  682WAT     H1 2288   3.109   1.068   8.788
  682WAT     H2 2289   3.172   1.008   8.926
  683WAT      O 2290   7.166   7.075   6.793
  683WAT     H1 2291   7.141   7.043   6.885
  683WAT     H2 2292   7.083   7.094   6.741
  684WAT      O 2293   8.572   0.898   6.804
  684WAT     H1 2294   8.510   0.875   6.728
  684WAT     H2 2295   8.582   0.997   6.809
  685WAT      O 2296   1.901   3.329   3.937
  685WAT     H1 2297   1.841   3.253   3.913
  685WAT     H2 2298   1.967   3.345   3.863
  686WAT      O 2299   2.597   4.413   7.536
  686WAT     H1 2300   2.536   4.490   7.517
  686WAT     H2 2301   2.679   4.446   7.583
  687WAT      O 2302   0.463   9.229   4.141
  687WAT     H1 2303   0.442   9.131   4.135
  687WAT     H2 2304   0.390   9.281   4.097
  688WAT      O 2305   0.691   3.285   2.863
  688WAT     H1 2306   0.759   3.299   2.790
  688WAT     H2 2307   0.612   3.343   2.846
  689WAT      O 2308   6.825   1.699   1.155
  689WAT     H1 2309   6.919   1.696   1.120
  689WAT     H2 2310   6.812   1.782   1.208
  690WAT      O 2311   2.381   8.849   0.161
  690WAT     H1 2312   2.327   8.932   0.146
  690WAT     H2 2313   2.329   8.770   0.129
  691WAT      O 2314   2.402   5.084   0.456
  691WAT     H1 2315   2.389   5.046   0.364
  691WAT     H2 2316   2.499   5.096   0.474
  692WAT      O 2317   1.449   2.381   3.474
  692WAT     H1 2318   1.354   2.399   3.446
  692WAT     H2 2319   1.490   2.466   3.508
  693WAT      O 2320   3.839   4.134   3.192
  693WAT     H1 2321   3.816   4.069   3.120
  693WAT     H2 2322   3.761   4.195   3.209
  694WAT      O 2323   1.124   6.297   2.927
  694WAT     H1 2324   1.029   6.320   2.949
  694WAT     H2 2325   1.162   6.365   2.865
  695WAT      O 2326   0.821   5.872   4.944
  695WAT     H1 2327   0.898   5.810   4.926
  695WAT     H2 2328   0.753   5.825   5.000
  696WAT      O 2329   9.688   3.045   8.350
  696WAT     H1 2330   9.661   3.026   8.256
  696WAT     H2 2331   9.621   3.106   8.392
  697WAT      O 2332   8.635   0.894   8.676
  697WAT     H1 2333   8.614   0.981   8.632
  697WAT     H2 2334   8.727   0.865   8.650
  698WAT      O 2335   7.720   2.265   7.405
  698WAT     H1 2336   7.728   2.187   7.468
  698WAT     H2 2337   7.624   2.281   7.384
  699WAT      O 2338   9.018   4.878   6.789
  699WAT     H1 2339   9.104   4.923   6.768
  699WAT     H2 2340   8.991   4.818   6.714
  700WAT      O 2341   3.420   2.363   3.695
  700WAT     H1 2342   3.364   2.350   3.776
  700WAT     H2 2343   3.481   2.441   3.708
  701WAT      O 2344   5.810   9.499   0.077
  701WAT     H1 2345   5.715   9.469   0.064
  701WAT     H2 2346   5.811   9.575   0.143
  702WAT      O 2347   8.527   5.854   1.512
  702WAT     H1 2348   8.576   5.900   1.586
  702WAT     H2 2349   8.519   5.757   1.533
  703WAT      O 2350   9.365   2.130   2.292
  703WAT     H1 2351   9.432   2.062   2.261
  703WAT     H2 2352   9.406   2.188   2.363
  704WAT      O 2353   4.172   6.888   6.152
  704WAT     H1 2354   4.082   6.896   6.110
  704WAT     H2 2355   4.163   6.849   6.243
  705WAT      O 2356   2.403   9.595   3.826
  705WAT     H1 2357   2.497   9.571   3.850
  705WAT     H2 2358   2.385   9.689   3.855
  706WAT      O 2359   6.162   4.438   6.792
  706WAT     H1 2360   6.262   4.445   6.782
  706WAT     H2 2361   6.138   4.445   6.888
  707WAT      O 2362   1.354   1.477   7.226
  707WAT     H1 2363   1.438   1.455   7.176
  707WAT     H2 2364   1.291   1.399   7.222
  708WAT      O 2365   9.476   8.359   1.417
  708WAT     H1 2366   9.487   8.382   1.514
  708WAT     H2 2367   9.380   8.370   1.391
  709WAT      O 2368   6.361   2.541   2.225
  709WAT     H1 2369   6.391   2.448   2.246
  709WAT     H2 2370   6.441   2.599   2.207
  710WAT      O 2371   0.306   3.650   8.107
  710WAT     H1 2372   0.348   3.559   8.107
  710WAT     H2 2373   0.208   3.641   8.125
  711WAT      O 2374   2.270   9.611   3.578
  711WAT     H1 2375   2.315   9.629   3.665
  711WAT     H2 2376   2.171   9.625   3.589
  712WAT      O 2377   2.320   2.611   5.085
  712WAT     H1 2378   2.381   2.624   5.164
  712WAT     H2 2379   2.245   2.551   5.111
  713WAT      O 2380   4.033   6.956   2.923
  713WAT     H1 2381   3.957   6.893   2.913
  713WAT     H2 2382   4.002   7.039   2.969
  714WAT      O 2383   4.535   6.966   7.648
  714WAT     H1 2384   4.497   7.010   7.729
  714WAT     H2 2385   4.462   6.952   7.581
  715WAT      O 2386   6.738   1.226   7.548
  715WAT     H1 2387   6.748   1.213   7.450
  715WAT     H2 2388   6.770   1.318   7.573
  716WAT      O 2389   1.318   2.182   7.601
  716WAT     H1 2390   1.229   2.202   7.562
  716WAT     H2 2391   1.331   2.235   7.685
  717WAT      O 2392   7.035   7.015   2.761
  717WAT     H1 2393   7.013   7.103   2.719
  717WAT     H2 2394   6.953   6.977   2.804
  718WAT      O 2395   8.560   1.733   1.954
  718WAT     H1 2396   8.597   1.723   2.047
  718WAT     H2 2397   8.540   1.830   1.937
  719WAT      O 2398   7.629   3.319   9.502
  719WAT     H1 2399   7.647   3.223   9.482
  719WAT     H2 2400   7.531   3.336   9.502
  720WAT      O 2401   1.744   4.043   1.713
  720WAT     H1 2402   1.671   4.077   1.773
  720WAT     H2 2403   1.773   3.953   1.745
  721WAT      O 2404   2.745   0.599   1.889
  721WAT     H1 2405   2.734   0.682   1.945
  721WAT     H2 2406   2.792   0.529   1.943
  722WAT      O 2407   4.413   0.185   1.826
  722WAT     H1 2408   4.397   0.132   1.742
  722WAT     H2 2409   4.429   0.123   1.902
  723WAT      O 2410   8.169   3.270   4.904
  723WAT     H1 2411   8.234   3.341   4.879
  723WAT     H2 2412   8.206   3.181   4.878
  724WAT      O 2413   8.170   0.381   7.252
  724WAT     H1 2414   8.155   0.398   7.154
  724WAT     H2 2415   8.235   0.448   7.288
  725WAT      O 2416   4.295   0.412   7.252
  725WAT     H1 2417   4.357   0.444   7.180
  725WAT     H2 2418   4.253   0.491   7.297
  726WAT      O 2419   7.701   2.706   2.246
  726WAT     H1 2420   7.743   2.794   2.225
  726WAT     H2 2421   7.601   2.714   2.241
  727WAT      O 2422   1.940   1.409   3.581
  727WAT     H1 2423   1.968   1.390   3.675
  727WAT     H2 2424   1.933   1.324   3.530
  728WAT      O 2425   2.578   0.705   0.162
  728WAT     H1 2426   2.558   0.689   0.259
  728WAT     H2 2427   2.675   0.691   0.145
  729WAT      O 2428   5.269   7.104   2.956
  729WAT     H1 2429   5.180   7.064   2.934
  729WAT     H2 2430   5.332   7.090   2.880
  730WAT      O 2431   4.388   4.278   2.858
  730WAT     H1 2432   4.324   4.201   2.862
  730WAT     H2 2433   4.434   4.289   2.946
  731WAT      O 2434   6.550   5.036   9.336
  731WAT     H1 2435   6.525   4.969   9.406
  731WAT     H2 2436   6.602   4.991   9.263
  732WAT      O 2437   6.966   8.792   3.168
  732WAT     H1 2438   6.944   8.783   3.265
  732WAT     H2 2439   7.042   8.731   3.145
  733WAT      O 2440   4.658   3.577   9.684
  733WAT     H1 2441   4.750   3.572   9.723
  733WAT     H2 2442   4.600   3.635   9.742
  734WAT      O 2443   5.232   8.495   4.557
  734WAT     H1 2444   5.167   8.470   4.484
  734WAT     H2 2445   5.207   8.584   4.594
  735WAT      O 2446   3.553   7.625   3.935
  735WAT     H1 2447   3.538   7.713   3.981
  735WAT     H2 2448   3.619   7.637   3.862
  736WAT      O 2449   7.116   9.380   5.441
  736WAT     H1 2450   7.028   9.414   5.407
  736WAT     H2 2451   7.104   9.286   5.473
  737WAT      O 2452   5.005   5.893   1.852
  737WAT     H1 2453   4.979   5.940   1.767
  737WAT     H2 2454   5.102   5.868   1.848
  738WAT      O 2455   9.290   7.398   5.189
  738WAT     H1 2456   9.279   7.369   5.284
  738WAT     H2 2457   9.246   7.486   5.175
  739WAT      O 2458   7.548   3.854   6.265
  739WAT     H1 2459   7.489   3.910   6.323
  739WAT     H2 2460   7.636   3.839   6.311
  740WAT      O 2461   1.641   7.615   0.835
  740WAT     H1 2462   1.563   7.589   0.892
  740WAT     H2 2463   1.614   7.685   0.770
  741WAT      O 2464   0.432   2.091   8.521
  741WAT     H1 2465   0.503   2.157   8.545
  741WAT     H2 2466   0.472   2.020   8.463
  742WAT      O 2467   6.976   2.468   4.341
  742WAT     H1 2468   6.974   2.409   4.422
  742WAT     H2 2469   6.932   2.421   4.265
  743WAT      O 2470   6.716   2.681   7.384
  743WAT     H1 2471   6.767   2.597   7.363
  743WAT     H2 2472   6.778   2.759   7.382
  744WAT      O 2473   5.799   7.570   2.767
  744WAT     H1 2474   5.791   7.507   2.844
  744WAT     H2 2475   5.788   7.520   2.681
  745WAT      O 2476   4.909   8.129   6.282
  745WAT     H1 2477   5.003   8.108   6.258
  745WAT     H2 2478   4.873   8.060   6.345
  746WAT      O 2479   8.137   2.622   5.278
  746WAT     H1 2480   8.069   2.696   5.272
  746WAT     H2 2481   8.101   2.549   5.336
  747WAT      O 2482   2.262   0.567   4.985
  747WAT     H1 2483   2.213   0.487   5.019
  747WAT     H2 2484   2.230   0.649   5.034
  748WAT      O 2485   0.511   3.724   5.106
  748WAT     H1 2486   0.472   3.679   5.026
  748WAT     H2 2487   0.491   3.822   5.102
  749WAT      O 2488   0.561   9.266   8.676
  749WAT     H1 2489   0.503   9.347   8.668
  749WAT     H2 2490   0.657   9.293   8.670
  750WAT      O 2491   0.341   8.855   0.113
  750WAT     H1 2492   0.380   8.943   0.084
  750WAT     H2 2493   0.390   8.823   0.194
  751WAT      O 2494   2.739   3.038   6.905
  751WAT     H1 2495   2.669   2.973   6.935
  751WAT     H2 2496   2.695   3.115   6.858
  752WAT      O 2497   7.850   3.868   4.584
  752WAT     H1 2498   7.789   3.806   4.533
  752WAT     H2 2499   7.795   3.924   4.646
  753WAT      O 2500   5.513   7.518   4.020
  753WAT     H1 2501   5.461   7.598   4.050
  753WAT     H2 2502   5.475   7.484   3.934
  754WAT      O 2503   6.941   5.064   8.461
  754WAT     H1 2504   7.005   5.140   8.451
  754WAT     H2 2505   6.850   5.094   8.432
  755WAT      O 2506   6.852   7.449   8.566
  755WAT     H1 2507   6.761   7.409   8.576
  755WAT     H2 2508   6.845   7.541   8.528
  756WAT      O 2509   7.241   2.063   9.200
  756WAT     H1 2510   7.175   2.136   9.217
  756WAT     H2 2511   7.211   2.008   9.122
  757WAT      O 2512   9.143   9.142   2.907
  757WAT     H1 2513   9.234   9.182   2.907
  757WAT     H2 2514   9.075   9.213   2.888
  758WAT      O 2515   3.048   6.705   7.222
  758WAT     H1 2516   2.954   6.671   7.226
  758WAT     H2 2517   3.047   6.803   7.201
  759WAT      O 2518   0.275   2.658   3.646
  759WAT     H1 2519   0.275   2.743   3.699
  759WAT     H2 2520   0.194   2.604   3.669
  760WAT      O 2521   1.066   0.042   5.533
  760WAT     H1 2522   1.042   0.139   5.534
  760WAT     H2 2523   1.069   0.008   5.626
  761WAT      O 2524   5.349   6.513   3.284
  761WAT     H1 2525   5.287   6.440   3.255
  761WAT     H2 2526   5.444   6.481   3.276
  762WAT      O 2527   0.989   5.006   5.360
  762WAT     H1 2528   0.890   5.008   5.369
  762WAT     H2 2529   1.031   5.021   5.449
  763WAT      O 2530   3.080   4.832   2.516
  763WAT     H1 2531   3.036   4.799   2.599
  763WAT     H2 2532   3.148   4.766   2.486
  764WAT      O 2533   1.542   0.338   9.560
  764WAT     H1 2534   1.500   0.276   9.494
  764WAT     H2 2535   1.477   0.356   9.634
  765WAT      O 2536   0.923   4.780   4.163
  765WAT     H1 2537   0.829   4.809   4.177
  765WAT     H2 2538   0.972   4.848   4.109
  766WAT      O 2539   8.456   1.074   6.159
  766WAT     H1 2540   8.535   1.061   6.099
  766WAT     H2 2541   8.414   0.986   6.179
  767WAT      O 2542   5.831   5.680   3.092
  767WAT     H1 2543   5.786   5.608   3.145
  767WAT     H2 2544   5.926   5.654   3.076
  768WAT      O 2545   0.258   3.759   2.741
  768WAT     H1 2546   0.354   3.752   2.771
  768WAT     H2 2547   0.200   3.772   2.821
  769WAT      O 2548   0.117   0.926   1.747
  769WAT     H1 2549   0.126   0.923   1.847
  769WAT     H2 2550   0.021   0.915   1.722
  770WAT      O 2551   1.080   3.488   3.172
  770WAT     H1 2552   1.144   3.556   3.209
  770WAT     H2 2553   1.014   3.463   3.243
  771WAT      O 2554   1.831   9.154   9.589
  771WAT     H1 2555   1.892   9.142   9.510
  771WAT     H2 2556   1.831   9.250   9.616
  772WAT      O 2557   9.553   5.516   4.334
  772WAT     H1 2558   9.522   5.437   4.387
  772WAT     H2 2559   9.540   5.497   4.237
  773WAT      O 2560   0.055   0.782   8.324
  773WAT     H1 2561   0.087   0.852   8.389
  773WAT     H2 2562   0.131   0.755   8.265
  774WAT      O 2563   0.069   1.602   1.684
  774WAT     H1 2564   0.016   1.521   1.656
  774WAT     H2 2565   0.144   1.573   1.743
  775WAT      O 2566   6.537   8.010   5.783
  775WAT     H1 2567   6.522   7.930   5.842
  775WAT     H2 2568   6.569   7.980   5.693
  776WAT      O 2569   3.766   7.935   2.587
  776WAT     H1 2570   3.699   8.009   2.592
  776WAT     H2 2571   3.790   7.905   2.680
  777WAT      O 2572   6.992   2.968   8.864
  777WAT     H1 2573   7.071   2.918   8.829
  777WAT     H2 2574   6.984   3.056   8.816
  778WAT      O 2575   6.885   6.287   9.845
  778WAT     H1 2576   6.895   6.190   9.823
  778WAT     H2 2577   6.974   6.332   9.838
  779WAT      O 2578   3.706   2.339   5.494
  779WAT     H1 2579   3.748   2.404   5.557
  779WAT     H2 2580   3.635   2.385   5.441
  780WAT      O 2581   1.603   4.430   5.064
  780WAT     H1 2582   1.567   4.395   5.150
  780WAT     H2 2583   1.669   4.365   5.026
  781WAT      O 2584   9.149   4.662   0.132
  781WAT     H1 2585   9.217   4.589   0.144
  781WAT     H2 2586   9.139   4.712   0.218
  782WAT      O 2587   0.488   1.988   1.296
  782WAT     H1 2588   0.454   1.989   1.202
  782WAT     H2 2589   0.561   2.055   1.306
  783WAT      O 2590   5.138   0.364   9.440
  783WAT     H1 2591   5.237   0.350   9.435
  783WAT     H2 2592   5.108   0.358   9.535
  784WAT      O 2593   1.601   9.145   2.752
  784WAT     H1 2594   1.508   9.174   2.731
  784WAT     H2 2595   1.661   9.225   2.758
  785WAT      O 2596   2.205   0.186   2.965
  785WAT     H1 2597   2.176   0.172   2.871
  785WAT     H2 2598   2.304   0.176   2.972
  786WAT      O 2599   3.698   8.306   0.345
  786WAT     H1 2600   3.664   8.398   0.329
  786WAT     H2 2601   3.633   8.255   0.401
  787WAT      O 2602   5.940   5.996   2.566
  787WAT     H1 2603   6.035   6.020   2.547
  787WAT     H2 2604   5.889   5.992   2.480
  788WAT      O 2605   6.031   6.278   3.575
  788WAT     H1 2606   6.020   6.358   3.635
  788WAT     H2 2607   6.047   6.310   3.481
  789WAT      O 2608   9.183   1.330   2.408
  789WAT     H1 2609   9.114   1.279   2.460
  789WAT     H2 2610   9.237   1.386   2.471
  790WAT      O 2611   5.079   1.028   5.252
  790WAT     H1 2612   5.022   1.055   5.330
  790WAT     H2 2613   5.091   1.106   5.191
  791WAT      O 2614   1.986   9.774   4.123
  791WAT     H1 2615   2.053   9.788   4.195
  791WAT     H2 2616   1.939   9.687   4.137
  792WAT      O 2617   0.492   7.635   0.181
  792WAT     H1 2618   0.488   7.663   0.277
  792WAT     H2 2619   0.409   7.666   0.133
  793WAT      O 2620   0.448   5.543   4.879
  793WAT     H1 2621   0.425   5.449   4.856
  793WAT     H2 2622   0.481   5.547   4.973
  794WAT      O 2623   4.026   7.933   8.987
  794WAT     H1 2624   3.945   7.878   8.967
  794WAT     H2 2625   3.999   8.021   9.026
  795WAT      O 2626   6.730   1.737   9.873
  795WAT     H1 2627   6.785   1.808   9.917
  795WAT     H2 2628   6.710   1.665   9.938
  796WAT      O 2629   2.983   9.358   3.238
  796WAT     H1 2630   3.053   9.373   3.308
  796WAT     H2 2631   2.899   9.326   3.282
  797WAT      O 2632   0.531   3.149   4.000
  797WAT     H1 2633   0.549   3.231   3.946
  797WAT     H2 2634   0.437   3.118   3.985
  798WAT      O 2635   5.714   5.828   3.534
  798WAT     H1 2636   5.727   5.920   3.498
  798WAT     H2 2637   5.616   5.806   3.535
  799WAT      O 2638   8.912   3.162   1.392
  799WAT     H1 2639   8.971   3.125   1.320
  799WAT     H2 2640   8.925   3.261   1.398
  800WAT      O 2641   4.476   7.216   1.020
  800WAT     H1 2642   4.487   7.292   1.084
  800WAT     H2 2643   4.456   7.251   0.929
  801WAT      O 2644   5.723   9.155   7.058
  801WAT     H1 2645   5.808   9.205   7.049
  801WAT     H2 2646   5.742   9.063   7.092
  802WAT      O 2647   4.374   6.684   3.758
  802WAT     H1 2648   4.465   6.726   3.757
  802WAT     H2 2649   4.306   6.752   3.732
  803WAT      O 2650   6.354   2.089   7.311
  803WAT     H1 2651   6.302   2.082   7.396
  803WAT     H2 2652   6.308   2.036   7.240
  804WAT      O 2653   1.550   5.426   4.303
  804WAT     H1 2654   1.621   5.383   4.247
  804WAT     H2 2655   1.464   5.376   4.291
  805WAT      O 2656   7.859   3.915   9.471
  805WAT     H1 2657   7.934   3.951   9.527
  805WAT     H2 2658   7.830   3.826   9.507
  806WAT      O 2659   2.298   5.946   6.716
  806WAT     H1 2660   2.335   5.857   6.743
  806WAT     H2 2661   2.287   5.948   6.617
  807WAT      O 2662   6.029   8.926   9.072
  807WAT     H1 2663   6.000   8.839   9.112
  807WAT     H2 2664   5.976   8.944   8.989
  808WAT      O 2665   3.634   5.058   9.555
  808WAT     H1 2666   3.656   5.156   9.555
  808WAT     H2 2667   3.580   5.036   9.637
  809WAT      O 2668   7.508   2.486   2.055
  809WAT     H1 2669   7.479   2.569   2.103
  809WAT     H2 2670   7.428   2.433   2.029
  810WAT      O 2671   8.146   1.670   6.882
  810WAT     H1 2672   8.085   1.643   6.808
  810WAT     H2 2673   8.229   1.614   6.878
  811WAT      O 2674   8.293   7.918   0.116
  811WAT     H1 2675   8.238   7.958   0.188
  811WAT     H2 2676   8.322   7.989   0.052
  812WAT      O 2677   9.697   4.374   1.453
  812WAT     H1 2678   9.787   4.414   1.434
  812WAT     H2 2679   9.626   4.435   1.418
  813WAT      O 2680   2.760   6.997   7.785
  813WAT     H1 2681   2.787   7.008   7.881
  813WAT     H2 2682   2.840   6.967   7.732
  814WAT      O 2683   2.198   5.724   5.506
  814WAT     H1 2684   2.102   5.734   5.483
  814WAT     H2 2685   2.229   5.632   5.480
  815WAT      O 2686   2.549   1.673   0.508
  815WAT     H1 2687   2.492   1.627   0.576
  815WAT     H2 2688   2.492   1.731   0.450
  816WAT      O 2689   8.147   5.823   4.368
  816WAT     H1 2690   8.092   5.750   4.329
  816WAT     H2 2691   8.157   5.808   4.467
  817WAT      O 2692   3.920   7.625   0.810
  817WAT     H1 2693   3.840   7.606   0.754
  817WAT     H2 2694   3.940   7.545   0.867
  818WAT      O 2695   4.459   0.984   7.664
  818WAT     H1 2696   4.437   0.893   7.699
  818WAT     H2 2697   4.521   0.976   7.586
  819WAT      O 2698   1.575   7.332   4.030
  819WAT     H1 2699   1.535   7.415   3.991
  819WAT     H2 2700   1.522   7.252   4.003
  820WAT      O 2701   9.330   9.805   2.715
  820WAT     H1 2702   9.288   9.727   2.667
  820WAT     H2 2703   9.282   9.889   2.689
  821WAT      O 2704   2.527   0.684   1.720
  821WAT     H1 2705   2.543   0.707   1.624
  821WAT     H2 2706   2.615   0.677   1.767
  822WAT      O 2707   8.541   0.174   2.632
  822WAT     H1 2708   8.585   0.085   2.621
  822WAT     H2 2709   8.488   0.175   2.717
  823WAT      O 2710   8.603   5.965   1.999
  823WAT     H1 2711   8.583   6.028   2.073
  823WAT     H2 2712   8.521   5.949   1.944
  824WAT      O 2713   9.117   5.413   0.335
  824WAT     H1 2714   9.117   5.408   0.235
  824WAT     H2 2715   9.023   5.420   0.368
  825WAT      O 2716   2.133   5.730   6.598
  825WAT     H1 2717   2.107   5.765   6.508
  825WAT     H2 2718   2.100   5.792   6.669
  826WAT      O 2719   1.487   3.657   9.016
  826WAT     H1 2720   1.467   3.592   8.943
  826WAT     H2 2721   1.401   3.685   9.060
  827WAT      O 2722   5.799   1.584   4.087
  827WAT     H1 2723   5.796   1.570   3.988
  827WAT     H2 2724   5.806   1.495   4.134
  828WAT      O 2725   9.766   0.841   6.358
  828WAT     H1 2726   9.852   0.846   6.307
  828WAT     H2 2727   9.785   0.854   6.456
  829WAT      O 2728   1.895   3.765   7.767
  829WAT     H1 2729   1.981   3.815   7.776
  829WAT     H2 2730   1.842   3.774   7.852
  830WAT      O 2731   0.582   6.975   4.722
  830WAT     H1 2732   0.665   7.010   4.678
  830WAT     H2 2733   0.608   6.922   4.803
  831WAT      O 2734   5.993   1.262   0.448
  831WAT     H1 2735   6.031   1.341   0.496
  831WAT     H2 2736   5.937   1.293   0.371
  832WAT      O 2737   8.210   8.101   5.159
  832WAT     H1 2738   8.257   8.105   5.248
  832WAT     H2 2739   8.113   8.083   5.174
  833WAT      O 2740   5.370   3.805   6.509
  833WAT     H1 2741   5.357   3.899   6.539
  833WAT     H2 2742   5.379   3.745   6.589
  834WAT      O 2743   5.862   9.582   1.247
  834WAT     H1 2744   5.812   9.496   1.259
  834WAT     H2 2745   5.950   9.575   1.294
  835WAT      O 2746   1.531   1.307   3.227
  835WAT     H1 2747   1.600   1.234   3.228
  835WAT     H2 2748   1.500   1.321   3.133
  836WAT      O 2749   8.610   3.318   0.116
  836WAT     H1 2750   8.626   3.399   0.060
  836WAT     H2 2751   8.546   3.339   0.190
  837WAT      O 2752   1.070   0.001   6.729
  837WAT     H1 2753   0.994   0.066   6.727
  837WAT     H2 2754   1.058  -0.062   6.805
  838WAT      O 2755   2.645   2.390   2.234
  838WAT     H1 2756   2.698   2.464   2.277
  838WAT     H2 2757   2.697   2.351   2.158
  839WAT      O 2758   2.861   9.024   3.294
  839WAT     H1 2759   2.820   9.115   3.281
  839WAT     H2 2760   2.796   8.954   3.265
  840WAT      O 2761   2.234   5.744   9.006
  840WAT     H1 2762   2.161   5.786   9.060
  840WAT     H2 2763   2.195   5.701   8.924
  841WAT      O 2764   0.431   0.577   6.747
  841WAT     H1 2765   0.394   0.496   6.793
  841WAT     H2 2766   0.356   0.630   6.708
  842WAT      O 2767   1.286   8.506   0.634
  842WAT     H1 2768   1.255   8.427   0.685
  842WAT     H2 2769   1.325   8.476   0.546
  843WAT      O 2770   0.325   9.333   6.919
  843WAT     H1 2771   0.299   9.417   6.871
  843WAT     H2 2772   0.256   9.263   6.904
  844WAT      O 2773   5.550   8.133   6.978
  844WAT     H1 2774   5.569   8.168   7.070
  844WAT     H2 2775   5.588   8.197   6.911
  845WAT      O 2776   3.273   6.427   3.681
  845WAT     H1 2777   3.178   6.411   3.710
  845WAT     H2 2778   3.335   6.393   3.751
  846WAT      O 2779   3.766   1.491   9.489
  846WAT     H1 2780   3.849   1.444   9.459
  846WAT     H2 2781   3.782   1.589   9.489
  847WAT      O 2782   3.254   2.258   0.471
  847WAT     H1 2783   3.239   2.204   0.554
  847WAT     H2 2784   3.312   2.336   0.492
  848WAT      O 2785   1.288   8.440   4.049
  848WAT     H1 2786   1.213   8.462   4.111
  848WAT     H2 2787   1.255   8.381   3.975
  849WAT      O 2788   0.360   5.771   1.536
  849WAT     H1 2789   0.375   5.816   1.448
  849WAT     H2 2790   0.381   5.835   1.610
  850WAT      O 2791   6.909   3.313   7.197
  850WAT     H1 2792   6.861   3.259   7.267
  850WAT     H2 2793   6.947   3.395   7.239
  851WAT      O 2794   8.842   0.071   1.522
  851WAT     H1 2795   8.847  -0.028   1.518
  851WAT     H2 2796   8.773   0.104   1.457
  852WAT      O 2797   8.904   7.186   7.222
  852WAT     H1 2798   8.862   7.212   7.135
  852WAT     H2 2799   8.984   7.243   7.239
  853WAT      O 2800   5.864   8.993   8.245
  853WAT     H1 2801   5.888   8.958   8.154
  853WAT     H2 2802   5.933   8.965   8.311
  854WAT      O 2803   7.604   6.080   5.096
  854WAT     H1 2804   7.568   6.172   5.080
  854WAT     H2 2805   7.551   6.035   5.167
  855WAT      O 2806   6.228   4.620   2.245
  855WAT     H1 2807   6.145   4.653   2.290
  855WAT     H2 2808   6.228   4.650   2.149
  856WAT      O 2809   8.800   8.045   2.586
  856WAT     H1 2810   8.781   8.053   2.683
  856WAT     H2 2811   8.780   7.952   2.555
  857WAT      O 2812   6.027   7.966   6.145
  857WAT     H1 2813   5.991   7.873   6.142
  857WAT     H2 2814   5.952   8.030   6.162
  858WAT      O 2815   7.044   7.052   8.729
  858WAT     H1 2816   6.976   7.124   8.743
  858WAT     H2 2817   7.034   7.016   8.636
  859WAT      O 2818   9.450   5.031   0.975
  859WAT     H1 2819   9.478   4.986   0.890
  859WAT     H2 2820   9.531   5.066   1.023
  860WAT      O 2821   2.689   5.618   6.378
  860WAT     H1 2822   2.748   5.543   6.408
  860WAT     H2 2823   2.746   5.696   6.350
  861WAT      O 2824   6.961   9.539   8.094
  861WAT     H1 2825   6.880   9.540   8.153
  861WAT     H2 2826   7.041   9.566   8.147
  862WAT      O 2827   1.981   5.599   2.221
  862WAT     H1 2828   2.043   5.677   2.230
  862WAT     H2 2829   1.888   5.627   2.243
  863WAT      O 2830   4.081   7.859   9.456
  863WAT     H1 2831   4.145   7.917   9.406
  863WAT     H2 2832   4.033   7.799   9.392
  864WAT      O 2833   1.990   2.087   7.174
  864WAT     H1 2834   1.917   2.041   7.223
  864WAT     H2 2835   2.067   2.105   7.236
  865WAT      O 2836   8.706   9.606   4.505
  865WAT     H1 2837   8.654   9.688   4.531
  865WAT     H2 2838   8.719   9.548   4.585
  866WAT      O 2839   3.771   5.080   9.256
  866WAT     H1 2840   3.778   5.140   9.336
  866WAT     H2 2841   3.722   4.997   9.281
  867WAT      O 2842   4.380   8.762   8.483
  867WAT     H1 2843   4.414   8.827   8.416
  867WAT     H2 2844   4.393   8.669   8.448
  868WAT      O 2845   2.420   4.365   0.790
  868WAT     H1 2846   2.359   4.315   0.729
  868WAT     H2 2847   2.470   4.435   0.739
  869WAT      O 2848   6.446   2.844   6.514
  869WAT     H1 2849   6.384   2.915   6.481
  869WAT     H2 2850   6.452   2.771   6.446
  870WAT      O 2851   4.136   8.029   7.300
  870WAT     H1 2852   4.037   8.046   7.296
  870WAT     H2 2853   4.183   8.089   7.237
  871WAT      O 2854   5.254   5.761   1.254
  871WAT     H1 2855   5.299   5.683   1.297
  871WAT     H2 2856   5.259   5.752   1.154
  872WAT      O 2857   6.286   2.893   5.658
  872WAT     H1 2858   6.328   2.891   5.567
  872WAT     H2 2859   6.190   2.920   5.650
  873WAT      O 2860   5.823   0.172   1.672
  873WAT     H1 2861   5.731   0.140   1.648
  873WAT     H2 2862   5.825   0.272   1.671
  874WAT      O 2863   8.104   5.711   0.847
  874WAT     H1 2864   8.048   5.759   0.915
  874WAT     H2 2865   8.157   5.778   0.795
  875WAT      O 2866   2.234   7.056   1.168
  875WAT     H1 2867   2.250   7.148   1.204
  875WAT     H2 2868   2.210   7.061   1.071
  876WAT      O 2869   3.594   5.597   9.596
  876WAT     H1 2870   3.572   5.591   9.498
  876WAT     H2 2871   3.512   5.576   9.650
  877WAT      O 2872   9.529   5.921   4.430
  877WAT     H1 2873   9.538   5.994   4.498
  877WAT     H2 2874   9.452   5.942   4.369
  878WAT      O 2875   8.365   3.988   2.929
  878WAT     H1 2876   8.399   3.988   2.835
  878WAT     H2 2877   8.356   3.894   2.962
  879WAT      O 2878   2.371   4.670   0.860
  879WAT     H1 2879   2.403   4.732   0.788
  879WAT     H2 2880   2.450   4.626   0.903
  880WAT      O 2881   8.905   3.313   4.406
  880WAT     H1 2882   8.904   3.366   4.491
  880WAT     H2 2883   8.926   3.374   4.329
  881WAT      O 2884   3.634   2.145   4.831
  881WAT     H1 2885   3.615   2.111   4.923
  881WAT     H2 2886   3.547   2.163   4.784
  882WAT      O 2887   0.846   7.266   3.836
  882WAT     H1 2888   0.920   7.330   3.854
  882WAT     H2 2889   0.758   7.312   3.846
  883WAT      O 2890   3.272   7.658   8.607
  883WAT     H1 2891   3.231   7.644   8.517
  883WAT     H2 2892   3.200   7.655   8.677
  884WAT      O 2893   8.678   6.226   3.715
  884WAT     H1 2894   8.620   6.203   3.793
  884WAT     H2 2895   8.638   6.188   3.631
  885WAT      O 2896   1.679   1.410   2.233
  885WAT     H1 2897   1.777   1.403   2.252
  885WAT     H2 2898   1.663   1.397   2.136
  886WAT      O 2899   6.180   4.986   9.459
  886WAT     H1 2900   6.207   5.076   9.425
  886WAT     H2 2901   6.144   4.931   9.383
  887WAT      O 2902   8.963   5.967   3.343
  887WAT     H1 2903   8.948   6.006   3.253
  887WAT     H2 2904   9.047   5.913   3.343
  888WAT      O 2905   8.061   0.617   6.527
  888WAT     H1 2906   8.083   0.663   6.612
  888WAT     H2 2907   8.101   0.525   6.526
  889WAT      O 2908   7.537   7.786   7.440
  889WAT     H1 2909   7.600   7.710   7.456
  889WAT     H2 2910   7.553   7.824   7.349
  890WAT      O 2911   5.602   0.696   7.191
  890WAT     H1 2912   5.538   0.723   7.119
  890WAT     H2 2913   5.595   0.760   7.267
  891WAT      O 2914   7.317   8.608   6.344
  891WAT     H1 2915   7.230   8.655   6.329
  891WAT     H2 2916   7.368   8.654   6.417
  892WAT      O 2917   8.777   7.212   8.847
  892WAT     H1 2918   8.752   7.180   8.939
  892WAT     H2 2919   8.694   7.216   8.790
  893WAT      O 2920   8.303   8.165   5.853
  893WAT     H1 2921   8.392   8.156   5.899
  893WAT     H2 2922   8.256   8.077   5.855
  894WAT      O 2923   7.988   9.672   5.458
  894WAT     H1 2924   7.961   9.694   5.552
  894WAT     H2 2925   8.016   9.756   5.412
  895WAT      O 2926   7.470   4.827   3.076
  895WAT     H1 2927   7.541   4.866   3.134
  895WAT     H2 2928   7.431   4.746   3.120
  896WAT      O 2929   3.475   9.162   2.696
  896WAT     H1 2930   3.416   9.204   2.765
  896WAT     H2 2931   3.553   9.119   2.741
  897WAT      O 2932   8.811   6.268   5.535
  897WAT     H1 2933   8.712   6.278   5.525
  897WAT     H2 2934   8.848   6.223   5.454
  898WAT      O 2935   8.486   5.310   3.168
  898WAT     H1 2936   8.503   5.220   3.129
  898WAT     H2 2937   8.573   5.358   3.182
  899WAT      O 2938   0.134   3.146   2.984
  899WAT     H1 2939   0.223   3.184   3.012
  899WAT     H2 2940   0.107   3.075   3.050
  900WAT      O 2941   8.607   8.869   0.557
  900WAT     H1 2942   8.618   8.837   0.651
  900WAT     H2 2943   8.691   8.850   0.506
  901WAT      O 2944   6.874   5.131   1.451
  901WAT     H1 2945   6.938   5.207   1.454
  901WAT     H2 2946   6.865   5.091   1.542
  902WAT      O 2947   0.792   1.769   0.571
  902WAT     H1 2948   0.755   1.689   0.618
  902WAT     H2 2949   0.810   1.842   0.638
  903WAT      O 2950   8.129   7.294   2.269
  903WAT     H1 2951   8.107   7.218   2.208
  903WAT     H2 2952   8.228   7.301   2.279
  904WAT      O 2953   2.890   4.978   0.703
  904WAT     H1 2954   2.890   5.046   0.630
  904WAT     H2 2955   2.803   4.982   0.753
  905WAT      O 2956   6.086   7.104   6.350
  905WAT     H1 2957   6.100   7.067   6.442
  905WAT     H2 2958   6.132   7.045   6.283
  906WAT      O 2959   4.380   7.046   2.057
  906WAT     H1 2960   4.325   7.129   2.063
  906WAT     H2 2961   4.476   7.071   2.040
  907WAT      O 2962   6.088   0.337   9.043
  907WAT     H1 2963   6.126   0.423   9.078
  907WAT     H2 2964   6.145   0.260   9.073
  908WAT      O 2965   5.691   3.616   9.128
  908WAT     H1 2966   5.789   3.638   9.129
  908WAT     H2 2967   5.641   3.688   9.080
  909WAT      O 2968   5.270   4.452   7.382
  909WAT     H1 2969   5.255   4.501   7.468
  909WAT     H2 2970   5.269   4.517   7.306
  910WAT      O 2971   5.680   2.959   3.753
  910WAT     H1 2972   5.707   2.865   3.732
  910WAT     H2 2973   5.723   3.021   3.688
  911WAT      O 2974   2.649   5.057   8.356
  911WAT     H1 2975   2.713   5.017   8.291
  911WAT     H2 2976   2.564   5.080   8.308
  912WAT      O 2977   9.158   9.281   1.959
  912WAT     H1 2978   9.178   9.185   1.973
  912WAT     H2 2979   9.157   9.302   1.861
  913WAT      O 2980   8.963   2.523   4.267
  913WAT     H1 2981   8.937   2.462   4.342
  913WAT     H2 2982   8.911   2.608   4.272
  914WAT      O 2983   8.809   1.918   0.896
  914WAT     H1 2984   8.773   2.010   0.907
  914WAT     H2 2985   8.786   1.883   0.805
  915WAT      O 2986   9.138   2.372   8.598
  915WAT     H1 2987   9.200   2.293   8.602
  915WAT     H2 2988   9.176   2.441   8.536
  916WAT      O 2989   6.115   5.129   3.203
  916WAT     H1 2990   6.153   5.133   3.295
  916WAT     H2 2991   6.023   5.166   3.203
  917WAT      O 2992   2.983   2.808   1.993
  917WAT     H1 2993   2.905   2.854   1.950
  917WAT     H2 2994   3.065   2.864   1.982
  918WAT      O 2995   5.689   2.206   6.107
  918WAT     H1 2996   5.662   2.275   6.174
  918WAT     H2 2997   5.727   2.126   6.154
  919WAT      O 2998   4.795   5.618   0.265
  919WAT     H1 2999   4.869   5.561   0.301
  919WAT     H2 3000   4.707   5.586   0.302
  920WAT      O 3001   8.945   3.693   5.482
  920WAT     H1 3002   8.973   3.789   5.483
  920WAT     H2 3003   9.002   3.642   5.419
  921WAT      O 3004   6.555   6.648   7.265
  921WAT     H1 3005   6.632   6.602   7.220
  921WAT     H2 3006   6.528   6.728   7.212
  922WAT      O 3007   6.319   8.906   2.995
  922WAT     H1 3008   6.386   8.959   3.048
  922WAT     H2 3009   6.247   8.874   3.056
  923WAT      O 3010   8.115   8.933   2.825
  923WAT     H1 3011   8.130   8.873   2.904
  923WAT     H2 3012   8.203   8.971   2.795
  924WAT      O 3013   2.245   2.381   5.608
  924WAT     H1 3014   2.147   2.400   5.600
  924WAT     H2 3015   2.282   2.362   5.517
  925WAT      O 3016   3.642   5.709   4.371
  925WAT     H1 3017   3.731   5.678   4.338
  925WAT     H2 3018   3.577   5.710   4.295
  926WAT      O 3019   8.268   9.842   1.841
  926WAT     H1 3020   8.290   9.750   1.871
  926WAT     H2 3021   8.259   9.902   1.921
  927WAT      O 3022   3.766   0.477   6.452
  927WAT     H1 3023   3.675   0.493   6.490
  927WAT     H2 3024   3.767   0.388   6.405
  928WAT      O 3025   9.614   7.347   7.599
  928WAT     H1 3026   9.545   7.365   7.530
  928WAT     H2 3027   9.592   7.398   7.683
  929WAT      O 3028   7.644   8.653   7.419
  929WAT     H1 3029   7.621   8.737   7.371
  929WAT     H2 3030   7.725   8.612   7.378
  930WAT      O 3031   6.076   7.537   0.200
  930WAT     H1 3032   6.006   7.607   0.214
  930WAT     H2 3033   6.166   7.576   0.216
  931WAT      O 3034   1.822   2.384   7.555
  931WAT     H1 3035   1.919   2.407   7.556
  931WAT     H2 3036   1.776   2.436   7.484
  932WAT      O 3037   1.436   4.985   5.331
  932WAT     H1 3038   1.462   4.921   5.404
  932WAT     H2 3039   1.518   5.025   5.292
  933WAT      O 3040   1.586   6.744   3.640
  933WAT     H1 3041   1.579   6.674   3.570
  933WAT     H2 3042   1.504   6.801   3.639
  934WAT      O 3043   1.587   2.773   7.524
  934WAT     H1 3044   1.506   2.744   7.575
  934WAT     H2 3045   1.564   2.849   7.464
  935WAT      O 3046   8.993   6.780   6.486
  935WAT     H1 3047   8.931   6.858   6.490
  935WAT     H2 3048   8.989   6.738   6.396
  936WAT      O 3049   4.256   5.148   7.917
  936WAT     H1 3050   4.311   5.064   7.918
  936WAT     H2 3051   4.169   5.129   7.870
  937WAT      O 3052   6.371   0.613   5.348
  937WAT     H1 3053   6.421   0.573   5.424
  937WAT     H2 3054   6.294   0.553   5.324
  938WAT      O 3055   0.480   7.011   8.809
  938WAT     H1 3056   0.387   7.046   8.822
  938WAT     H2 3057   0.481   6.912   8.823
  939WAT      O 3058   4.375   7.648   9.461
  939WAT     H1 3059   4.373   7.745   9.435
  939WAT     H2 3060   4.347   7.592   9.383
  940WAT      O 3061   3.753   9.420   0.362
  940WAT     H1 3062   3.710   9.412   0.272
  940WAT     H2 3063   3.774   9.517   0.380
  941WAT      O 3064   1.230   7.903   8.673
  941WAT     H1 3065   1.214   7.991   8.718
  941WAT     H2 3066   1.219   7.829   8.740
  942WAT      O 3067   3.567   7.837   4.870
  942WAT     H1 3068   3.600   7.880   4.786
  942WAT     H2 3069   3.642   7.790   4.916
  943WAT      O 3070   8.147   7.422   5.389
  943WAT     H1 3071   8.186   7.425   5.481
  943WAT     H2 3072   8.106   7.510   5.367
  944WAT      O 3073   2.928   0.521   8.150
  944WAT     H1 3074   2.976   0.434   8.159
  944WAT     H2 3075   2.939   0.575   8.233
  945WAT      O 3076   2.324   0.841   6.621
  945WAT     H1 3077   2.292   0.815   6.713
  945WAT     H2 3078   2.291   0.933   6.600
  946WAT      O 3079   0.868   9.291   6.196
  946WAT     H1 3080   0.889   9.378   6.150
  946WAT     H2 3081   0.871   9.304   6.295
  947WAT      O 3082   1.765   7.622   5.453
  947WAT     H1 3083   1.774   7.721   5.443
  947WAT     H2 3084   1.701   7.587   5.385
  948WAT      O 3085   3.785   9.137   4.754
  948WAT     H1 3086   3.789   9.110   4.658
  948WAT     H2 3087   3.878   9.144   4.790
  949WAT      O 3088   3.279   5.858   2.499
  949WAT     H1 3089   3.229   5.776   2.525
  949WAT     H2 3090   3.376   5.837   2.492
  950WAT      O 3091   1.995   4.172   5.422
  950WAT     H1 3092   2.091   4.179   5.396
  950WAT     H2 3093   1.939   4.219   5.353
  951WAT      O 3094   8.908   2.343   1.179
  951WAT     H1 3095   8.880   2.248   1.192
  951WAT     H2 3096   8.836   2.393   1.130
  952WAT      O 3097   5.335   3.089   8.709
  952WAT     H1 3098   5.380   3.010   8.667
  952WAT     H2 3099   5.284   3.060   8.790
  953WAT      O 3100   0.767   8.055   4.776
  953WAT     H1 3101   0.815   8.080   4.692
  953WAT     H2 3102   0.674   8.093   4.774
  954WAT      O 3103   7.286   8.976   6.623
  954WAT     H1 3104   7.333   9.064   6.613
  954WAT     H2 3105   7.206   8.974   6.563
  955WAT      O 3106   3.490   3.465   8.154
  955WAT     H1 3107   3.571   3.506   8.197
  955WAT     H2 3108   3.503   3.366   8.146
  956WAT      O 3109   7.064   3.825   4.041
  956WAT     H1 3110   7.087   3.827   4.138
  956WAT     H2 3111   6.965   3.828   4.030
  957WAT      O 3112   4.501   8.134   3.609
  957WAT     H1 3113   4.543   8.044   3.598
  957WAT     H2 3114   4.533   8.175   3.695
  958WAT      O 3115   6.623   8.776   9.374
  958WAT     H1 3116   6.582   8.732   9.453
  958WAT     H2 3117   6.721   8.789   9.391
  959WAT      O 3118   8.967   2.038   7.802
  959WAT     H1 3119   8.988   2.030   7.900
  959WAT     H2 3120   9.009   2.121   7.766
  960WAT      O 3121   2.592   3.000   9.819
  960WAT     H1 3122   2.552   2.914   9.786
  960WAT     H2 3123   2.519   3.062   9.847
  961WAT      O 3124   4.261   0.128   4.292
  961WAT     H1 3125   4.302   0.044   4.258
  961WAT     H2 3126   4.206   0.109   4.373
  962WAT      O 3127   6.720   5.502   3.372
  962WAT     H1 3128   6.758   5.478   3.283
  962WAT     H2 3129   6.790   5.547   3.427
  963WAT      O 3130   9.822   8.052   1.951
  963WAT     H1 3131   9.736   8.087   1.916
  963WAT     H2 3132   9.827   7.953   1.935
  964WAT      O 3133   3.020   1.286   8.305
  964WAT     H1 3134   3.011   1.281   8.405
  964WAT     H2 3135   3.086   1.357   8.281
  965WAT      O 3136   5.210   5.634   0.082
  965WAT     H1 3137   5.147   5.700   0.043
  965WAT     H2 3138   5.163   5.580   0.152
  966WAT      O 3139   4.475   2.678   1.323
  966WAT     H1 3140   4.521   2.689   1.235
  966WAT     H2 3141   4.398   2.741   1.329
  967WAT      O 3142   2.674   9.351   6.526
  967WAT     H1 3143   2.606   9.293   6.483
  967WAT     H2 3144   2.765   9.330   6.489
  968WAT      O 3145   4.098   4.766   2.884
  968WAT     H1 3146   4.180   4.717   2.856
  968WAT     H2 3147   4.062   4.725   2.968
  969WAT      O 3148   8.362   9.229   8.774
  969WAT     H1 3149   8.280   9.212   8.829
  969WAT     H2 3150   8.400   9.318   8.797
  970WAT      O 3151   3.828   1.753   9.757
  970WAT     H1 3152   3.769   1.833   9.771
  970WAT     H2 3153   3.910   1.781   9.707
  971WAT      O 3154   4.110   1.994   0.164
  971WAT     H1 3155   4.188   2.048   0.133
  971WAT     H2 3156   4.025   2.039   0.135
  972WAT      O 3157   3.100   9.673   9.634
  972WAT     H1 3158   3.059   9.750   9.584
  972WAT     H2 3159   3.029   9.606   9.656
  973WAT      O 3160   1.887   3.926   5.353
  973WAT     H1 3161   1.913   4.012   5.397
  973WAT     H2 3162   1.953   3.855   5.377
  974WAT      O 3163   3.494   8.450   6.576
  974WAT     H1 3164   3.503   8.537   6.526
  974WAT     H2 3165   3.455   8.381   6.515
  975WAT      O 3166   3.286   0.397   4.688
  975WAT     H1 3167   3.220   0.325   4.706
  975WAT     H2 3168   3.247   0.486   4.714
  976WAT      O 3169   6.611   8.354   6.810
  976WAT     H1 3170   6.567   8.268   6.835
  976WAT     H2 3171   6.673   8.382   6.884
  977WAT      O 3172   9.517   0.597   1.069
  977WAT     H1 3173   9.528   0.687   1.111
  977WAT     H2 3174   9.542   0.602   0.972
  978WAT      O 3175   4.699   1.285   4.023
  978WAT     H1 3176   4.650   1.289   4.110
  978WAT     H2 3177   4.775   1.350   4.024
  979WAT      O 3178   9.847   6.971   5.189
  979WAT     H1 3179   9.923   7.023   5.150
  979WAT     H2 3180   9.762   6.998   5.143
  980WAT      O 3181   4.370   3.487   9.270
  980WAT     H1 3182   4.436   3.435   9.215
  980WAT     H2 3183   4.294   3.428   9.295
  981WAT      O 3184   7.116   0.691   9.836
  981WAT     H1 3185   7.148   0.774   9.791
  981WAT     H2 3186   7.093   0.622   9.768
  982WAT      O 3187   8.575   8.385   5.058
  982WAT     H1 3188   8.480   8.354   5.053
  982WAT     H2 3189   8.627   8.348   4.981
  983WAT      O 3190   4.143   4.560   3.482
  983WAT     H1 3191   4.108   4.536   3.391
  983WAT     H2 3192   4.068   4.597   3.538
  984WAT      O 3193   1.835   6.695   4.090
  984WAT     H1 3194   1.774   6.632   4.139
  984WAT     H2 3195   1.789   6.727   4.007
  985WAT      O 3196   6.394   1.345   7.353
  985WAT     H1 3197   6.376   1.441   7.331
  985WAT     H2 3198   6.479   1.316   7.308
  986WAT      O 3199   5.475   1.091   5.897
  986WAT     H1 3200   5.399   1.151   5.875
  986WAT     H2 3201   5.464   1.004   5.848
  987WAT      O 3202   1.122   9.811   1.363
  987WAT     H1 3203   1.143   9.767   1.276
  987WAT     H2 3204   1.156   9.906   1.362
  988WAT      O 3205   5.168   0.534   7.899
  988WAT     H1 3206   5.074   0.565   7.884
  988WAT     H2 3207   5.211   0.588   7.971
  989WAT      O 3208   2.953   2.842   8.594
  989WAT     H1 3209   2.895   2.814   8.670
  989WAT     H2 3210   3.039   2.791   8.597
  990WAT      O 3211   0.085   6.246   0.123
  990WAT     H1 3212   0.036   6.331   0.101
  990WAT     H2 3213   0.150   6.264   0.197
  991WAT      O 3214   0.929   0.134   0.165
  991WAT     H1 3215   0.964   0.224   0.138
  991WAT     H2 3216   0.830   0.138   0.173
  992WAT      O 3217   8.024   7.389   3.494
  992WAT     H1 3218   8.019   7.404   3.593
  992WAT     H2 3219   7.993   7.470   3.446
  993WAT      O 3220   4.106   8.926   6.126
  993WAT     H1 3221   4.146   8.834   6.130
  993WAT     H2 3222   4.030   8.931   6.190
  994WAT      O 3223   9.169   2.082   9.157
  994WAT     H1 3224   9.213   2.062   9.245
  994WAT     H2 3225   9.195   2.174   9.127
  995WAT      O 3226   6.212   3.562   0.779
  995WAT     H1 3227   6.208   3.463   0.767
  995WAT     H2 3228   6.306   3.589   0.800
  996WAT      O 3229   9.502   9.828   3.117
  996WAT     H1 3230   9.405   9.812   3.097
  996WAT     H2 3231   9.512   9.849   3.214
  997WAT      O 3232   4.888   6.781   4.218
  997WAT     H1 3233   4.923   6.688   4.206
  997WAT     H2 3234   4.960   6.840   4.254
  998WAT      O 3235   2.144   7.990   7.019
  998WAT     H1 3236   2.060   7.954   7.059
  998WAT     H2 3237   2.183   7.922   6.957
  999WAT      O 3238   5.285   9.824   1.616
  999WAT     H1 3239   5.322   9.777   1.696
  999WAT     H2 3240   5.236   9.758   1.559
 1000WAT      O 3241   9.271   6.982   0.296
 1000WAT     H1 3242   9.278   6.884   0.279
 1000WAT     H2 3243   9.320   7.032   0.225
 1001WAT      O 3244   9.808   6.909   8.761
 1001WAT     H1 3245   9.727   6.856   8.787
 1001WAT     H2 3246   9.890   6.855   8.779
 1002WAT      O 3247   4.991   3.388   4.752
 1002WAT     H1 3248   4.984   3.478   4.796
 1002WAT     H2 3249   4.904   3.367   4.706
 1003WAT      O 3250   6.554   6.196   5.424
 1003WAT     H1 3251   6.603   6.259   5.364
 1003WAT     H2 3252   6.476   6.157   5.374
 1004WAT      O 3253   4.279   1.192   1.566
 1004WAT     H1 3254   4.332   1.125   1.513
 1004WAT     H2 3255   4.312   1.284   1.543
 1005WAT      O 3256   9.497   1.433   5.214
 1005WAT     H1 3257   9.463   1.465   5.125
 1005WAT     H2 3258   9.589   1.469   5.228
 1006WAT      O 3259   5.190   2.017   1.831
 1006WAT     H1 3260   5.123   2.056   1.768
 1006WAT     H2 3261   5.276   2.068   1.825
 1007WAT      O 3262   2.095   6.429   8.299
 1007WAT     H1 3263   2.158   6.505   8.281
 1007WAT     H2 3264   2.140   6.342   8.278
 1008WAT      O 3265   0.341   6.178   7.410
 1008WAT     H1 3266   0.413   6.153   7.476
 1008WAT     H2 3267   0.346   6.115   7.332
 1009WAT      O 3268   0.677   8.224   9.766
 1009WAT     H1 3269   0.630   8.169   9.834
 1009WAT     H2 3270   0.770   8.245   9.799
 1010WAT      O 3271   4.733   4.046   1.325
 1010WAT     H1 3272   4.732   4.023   1.422
 1010WAT     H2 3273   4.640   4.052   1.290
 1011WAT      O 3274   6.465   1.262   3.398
 1011WAT     H1 3275   6.463   1.266   3.298
 1011WAT     H2 3276   6.380   1.221   3.431
 1012WAT      O 3277   6.767   7.296   5.134
 1012WAT     H1 3278   6.861   7.273   5.160
 1012WAT     H2 3279   6.757   7.395   5.129
 1013WAT      O 3280   6.377   7.338   8.877
 1013WAT     H1 3281   6.286   7.308   8.848
 1013WAT     H2 3282   6.367   7.410   8.946
 1014WAT      O 3283   3.098   2.023   8.637
 1014WAT     H1 3284   3.049   1.981   8.561
 1014WAT     H2 3285   3.184   1.975   8.653
 1015WAT      O 3286   6.215   0.989   4.323
 1015WAT     H1 3287   6.305   1.005   4.282
 1015WAT     H2 3288   6.219   1.006   4.421
 1016WAT      O 3289   1.774   2.165   1.578
 1016WAT     H1 3290   1.706   2.197   1.644
 1016WAT     H2 3291   1.743   2.185   1.485
 1017WAT      O 3292   3.178   1.032   8.596
 1017WAT     H1 3293   3.120   0.957   8.627
 1017WAT     H2 3294   3.268   0.996   8.571
 1018WAT      O 3295   0.830   6.206   8.530
 1018WAT     H1 3296   0.735   6.233   8.545
 1018WAT     H2 3297   0.890   6.264   8.584
 1019WAT      O 3298   0.144   1.281   8.307
 1019WAT     H1 3299   0.203   1.321   8.377
 1019WAT     H2 3300   0.195   1.212   8.256
 1020WAT      O 3301   5.322   7.781   7.816
 1020WAT     H1 3302   5.338   7.851   7.747
 1020WAT     H2 3303   5.255   7.715   7.781
 1021WAT      O 3304   6.791   5.778   8.359
 1021WAT     H1 3305   6.793   5.817   8.451
 1021WAT     H2 3306   6.756   5.847   8.295
 1022WAT      O 3307   2.007   7.545   7.053
 1022WAT     H1 3308   1.999   7.620   6.988
 1022WAT     H2 3309   2.044   7.464   7.008
 1023WAT      O 3310   5.901   5.496   7.077
 1023WAT     H1 3311   5.954   5.440   7.012
 1023WAT     H2 3312   5.804   5.481   7.062
 1024WAT      O 3313   2.346   4.975   7.939
 1024WAT     H1 3314   2.247   4.983   7.946
 1024WAT     H2 3315   2.378   5.024   7.857
 1025WAT      O 3316   6.885   8.782   9.351
 1025WAT     H1 3317   6.892   8.813   9.256
 1025WAT     H2 3318   6.941   8.700   9.363
 1026WAT      O 3319   7.469   9.326   2.414
 1026WAT     H1 3320   7.420   9.393   2.359
 1026WAT     H2 3321   7.416   9.304   2.497
 1027WAT      O 3322   0.213   1.572   9.168
 1027WAT     H1 3323   0.290   1.610   9.116
 1027WAT     H2 3324   0.225   1.473   9.177
 1028WAT      O 3325   0.743   9.350   7.105
 1028WAT     H1 3326   0.717   9.381   7.013
 1028WAT     H2 3327   0.670   9.373   7.169
 1029WAT      O 3328   8.722   5.100   4.753
 1029WAT     H1 3329   8.788   5.034   4.719
 1029WAT     H2 3330   8.690   5.071   4.843
 1030WAT      O 3331   1.687   0.115   4.466
 1030WAT     H1 3332   1.780   0.136   4.495
 1030WAT     H2 3333   1.664   0.021   4.491
 1031WAT      O 3334   7.871   1.105   1.381
 1031WAT     H1 3335   7.887   1.120   1.479
 1031WAT     H2 3336   7.783   1.145   1.355
 1032WAT      O 3337   7.983   1.766   5.109
 1032WAT     H1 3338   7.903   1.720   5.149
 1032WAT     H2 3339   7.952   1.844   5.054
 1033WAT      O 3340   4.507   5.711   9.209
 1033WAT     H1 3341   4.484   5.673   9.119
 1033WAT     H2 3342   4.600   5.747   9.206
 1034WAT      O 3343   9.698   2.810   6.838
 1034WAT     H1 3344   9.601   2.835   6.835
 1034WAT     H2 3345   9.716   2.738   6.771
 1035WAT      O 3346   2.440   6.471   5.813
 1035WAT     H1 3347   2.510   6.436   5.751
 1035WAT     H2 3348   2.349   6.457   5.773
 1036WAT      O 3349   0.651   3.379   1.050
 1036WAT     H1 3350   0.750   3.380   1.037
 1036WAT     H2 3351   0.628   3.317   1.125
 1037WAT      O 3352   2.020   0.687   7.208
 1037WAT     H1 3353   2.105   0.740   7.201
 1037WAT     H2 3354   2.035   0.595   7.169
 1038WAT      O 3355   5.295   8.046   0.743
 1038WAT     H1 3356   5.283   7.997   0.656
 1038WAT     H2 3357   5.389   8.079   0.749
 1039WAT      O 3358   3.645   1.399   6.547
 1039WAT     H1 3359   3.739   1.371   6.566
 1039WAT     H2 3360   3.615   1.465   6.616
 1040WAT      O 3361   8.241   2.275   1.957
 1040WAT     H1 3362   8.258   2.295   1.860
 1040WAT     H2 3363   8.261   2.179   1.975
 1041WAT      O 3364   3.467   1.412   4.558
 1041WAT     H1 3365   3.487   1.349   4.482
 1041WAT     H2 3366   3.517   1.383   4.639
 1042WAT      O 3367   8.905   7.929   5.379
 1042WAT     H1 3368   8.953   7.858   5.329
 1042WAT     H2 3369   8.933   7.928   5.475
 1043WAT      O 3370   3.379   1.244   5.279
 1043WAT     H1 3371   3.436   1.182   5.224
 1043WAT     H2 3372   3.385   1.336   5.242
 1044WAT      O 3373   3.861   3.942   6.093
 1044WAT     H1 3374   3.775   3.992   6.089
 1044WAT     H2 3375   3.916   3.976   6.169
 1045WAT      O 3376   5.577   4.243   8.423
 1045WAT     H1 3377   5.653   4.259   8.487
 1045WAT     H2 3378   5.540   4.151   8.437
 1046WAT      O 3379   7.777   0.365   6.375
 1046WAT     H1 3380   7.845   0.421   6.330
 1046WAT     H2 3381   7.821   0.285   6.417
 1047WAT      O 3382   6.439   5.163   2.632
 1047WAT     H1 3383   6.406   5.156   2.538
 1047WAT     H2 3384   6.404   5.086   2.685
 1048WAT      O 3385   6.046   2.321   1.024
 1048WAT     H1 3386   6.116   2.251   1.009
 1048WAT     H2 3387   6.045   2.346   1.121
 1049WAT      O 3388   3.692   4.460   4.468
 1049WAT     H1 3389   3.642   4.521   4.529
 1049WAT     H2 3390   3.750   4.399   4.522
 1050WAT      O 3391   5.227   0.315   7.028
 1050WAT     H1 3392   5.256   0.387   6.965
 1050WAT     H2 3393   5.238   0.345   7.122
 1051WAT      O 3394   5.763   7.162   9.174
 1051WAT     H1 3395   5.682   7.121   9.216
 1051WAT     H2 3396   5.781   7.251   9.214
 1052WAT      O 3397   3.893   1.804   5.629
 1052WAT     H1 3398   3.954   1.796   5.550
 1052WAT     H2 3399   3.868   1.900   5.643
 1053WAT      O 3400   4.582   9.236   0.951
 1053WAT     H1 3401   4.534   9.186   1.023
 1053WAT     H2 3402   4.671   9.266   0.984
 1054WAT      O 3403   8.659   2.936   6.128
 1054WAT     H1 3404   8.694   2.929   6.034
 1054WAT     H2 3405   8.648   2.844   6.165
 1055WAT      O 3406   8.338   8.732   6.604
 1055WAT     H1 3407   8.316   8.829   6.617
 1055WAT     H2 3408   8.283   8.696   6.528
 1056WAT      O 3409   3.387   1.965   6.437
 1056WAT     H1 3410   3.342   2.011   6.361
 1056WAT     H2 3411   3.390   2.026   6.516
 1057WAT      O 3412   1.634   3.687   5.417
 1057WAT     H1 3413   1.623   3.759   5.487
 1057WAT     H2 3414   1.616   3.726   5.327
 1058WAT      O 3415   1.638   1.407   1.385
 1058WAT     H1 3416   1.624   1.391   1.287
 1058WAT     H2 3417   1.673   1.325   1.428
 1059WAT      O 3418   0.579   2.388   8.620
 1059WAT     H1 3419   0.580   2.487   8.633
 1059WAT     H2 3420   0.582   2.342   8.708
 1060WAT      O 3421   5.516   5.672   9.173
 1060WAT     H1 3422   5.498   5.762   9.134
 1060WAT     H2 3423   5.432   5.636   9.214
 1061WAT      O 3424   6.250   2.182   4.632
 1061WAT     H1 3425   6.292   2.196   4.722
 1061WAT     H2 3426   6.166   2.236   4.626
 1062WAT      O 3427   1.020   5.269   6.862
 1062WAT     H1 3428   1.050   5.358   6.828
 1062WAT     H2 3429   1.100   5.215   6.889
 1063WAT      O 3430   4.882   4.231   8.165
 1063WAT     H1 3431   4.911   4.182   8.247
 1063WAT     H2 3432   4.911   4.327   8.171
 1064WAT      O 3433   8.809   5.169   6.519
 1064WAT     H1 3434   8.829   5.147   6.615
 1064WAT     H2 3435   8.839   5.262   6.499
 1065WAT      O 3436   3.662   4.315   2.104
 1065WAT     H1 3437   3.649   4.382   2.032
 1065WAT     H2 3438   3.759   4.296   2.115
 1066WAT      O 3439   8.106   4.700   0.099
 1066WAT     H1 3440   8.179   4.758   0.063
 1066WAT     H2 3441   8.055   4.750   0.169
 1067WAT      O 3442   2.131   5.779   3.150
 1067WAT     H1 3443   2.125   5.688   3.190
 1067WAT     H2 3444   2.081   5.781   3.063
 1068WAT      O 3445   7.116   2.070   4.032
 1068WAT     H1 3446   7.162   2.153   3.998
 1068WAT     H2 3447   7.183   1.996   4.038
 1069WAT      O 3448   6.945   7.338   7.288
 1069WAT     H1 3449   7.010   7.262   7.284
 1069WAT     H2 3450   6.974   7.404   7.357
 1070WAT      O 3451   3.829   1.153   0.358
 1070WAT     H1 3452   3.921   1.152   0.320
 1070WAT     H2 3453   3.773   1.084   0.312
 1071WAT      O 3454   0.251   8.549   6.263
 1071WAT     H1 3455   0.290   8.487   6.195
 1071WAT     H2 3456   0.251   8.642   6.228
 1072WAT      O 3457   3.316   6.067   0.108
 1072WAT     H1 3458   3.331   5.968   0.109
 1072WAT     H2 3459   3.405   6.114   0.109
 1073WAT      O 3460   3.524   5.186   5.331
 1073WAT     H1 3461   3.510   5.179   5.430
 1073WAT     H2 3462   3.617   5.217   5.313
 1074WAT      O 3463   1.252   9.078   6.615
 1074WAT     H1 3464   1.284   9.079   6.710
 1074WAT     H2 3465   1.162   9.033   6.612
 1075WAT      O 3466   7.161   0.105   4.261
 1075WAT     H1 3467   7.103   0.177   4.299
 1075WAT     H2 3468   7.224   0.072   4.332
 1076WAT      O 3469   3.097   8.601   5.284
 1076WAT     H1 3470   3.034   8.634   5.355
 1076WAT     H2 3471   3.191   8.607   5.317
 1077WAT      O 3472   3.647   9.767   2.275
 1077WAT     H1 3473   3.616   9.862   2.278
 1077WAT     H2 3474   3.573   9.707   2.304
 1078WAT      O 3475   0.440   0.523   4.539
 1078WAT     H1 3476   0.479   0.553   4.452
 1078WAT     H2 3477   0.513   0.498   4.602
 1079WAT      O 3478   3.399   5.241   3.331
 1079WAT     H1 3479   3.498   5.229   3.317
 1079WAT     H2 3480   3.379   5.242   3.428
 1080WAT      O 3481   4.360   8.913   2.599
 1080WAT     H1 3482   4.414   8.863   2.666
 1080WAT     H2 3483   4.284   8.959   2.645
 1081WAT      O 3484   3.293   1.966   9.861
 1081WAT     H1 3485   3.211   1.967   9.918
 1081WAT     H2 3486   3.277   2.022   9.779
 1082WAT      O 3487   3.080   1.737   8.818
 1082WAT     H1 3488   3.006   1.767   8.878
 1082WAT     H2 3489   3.158   1.799   8.827
 1083WAT      O 3490   1.550   1.362   4.970
 1083WAT     H1 3491   1.518   1.269   4.953
 1083WAT     H2 3492   1.633   1.379   4.918
 1084WAT      O 3493   3.407   9.798   2.649
 1084WAT     H1 3494   3.441   9.892   2.640
 1084WAT     H2 3495   3.336   9.795   2.719
 1085WAT      O 3496   7.369   5.449   2.836
 1085WAT     H1 3497   7.389   5.360   2.877
 1085WAT     H2 3498   7.421   5.457   2.750
 1086WAT      O 3499   7.663   0.065   2.157
 1086WAT     H1 3500   7.672   0.142   2.094
 1086WAT     H2 3501   7.686   0.095   2.249
 1087WAT      O 3502   2.433   2.342   8.974
 1087WAT     H1 3503   2.486   2.258   8.984
 1087WAT     H2 3504   2.367   2.349   9.049
 1088WAT      O 3505   0.649   8.196   8.691
 1088WAT     H1 3506   0.610   8.257   8.621
 1088WAT     H2 3507   0.734   8.235   8.725
 1089WAT      O 3508   1.387   8.377   8.419
 1089WAT     H1 3509   1.431   8.465   8.437
 1089WAT     H2 3510   1.447   8.320   8.363
 1090WAT      O 3511   5.229   6.407   6.038
 1090WAT     H1 3512   5.223   6.494   6.086
 1090WAT     H2 3513   5.139   6.385   6.000
 1091WAT      O 3514   4.969   3.788   8.800
 1091WAT     H1 3515   4.877   3.792   8.837
 1091WAT     H2 3516   5.035   3.779   8.875
 1092WAT      O 3517   7.476   6.569   8.613
 1092WAT     H1 3518   7.502   6.650   8.664
 1092WAT     H2 3519   7.511   6.487   8.660
 1093WAT      O 3520   7.903   1.309   7.854
 1093WAT     H1 3521   7.872   1.241   7.787
 1093WAT     H2 3522   7.935   1.262   7.936
 1094WAT      O 3523   8.986   6.483   5.271
 1094WAT     H1 3524   9.033   6.403   5.310
 1094WAT     H2 3525   8.990   6.478   5.171
 1095WAT      O 3526   5.324   8.941   3.015
 1095WAT     H1 3527   5.229   8.970   3.025
 1095WAT     H2 3528   5.385   9.019   3.030
 1096WAT      O 3529   7.828   9.553   6.770
 1096WAT     H1 3530   7.755   9.621   6.765
 1096WAT     H2 3531   7.914   9.597   6.793
 1097WAT      O 3532   3.302   3.559   8.572
 1097WAT     H1 3533   3.226   3.547   8.636
 1097WAT     H2 3534   3.287   3.502   8.491
 1098WAT      O 3535   1.411   3.809   7.781
 1098WAT     H1 3536   1.340   3.740   7.769
 1098WAT     H2 3537   1.487   3.788   7.719
 1099WAT      O 3538   8.166   2.986   3.062
 1099WAT     H1 3539   8.162   3.086   3.063
 1099WAT     H2 3540   8.112   2.948   3.137
 1100WAT      O 3541   6.423   0.019   6.988
 1100WAT     H1 3542   6.410   0.103   7.041
 1100WAT     H2 3543   6.390  -0.059   7.042
 1101WAT      O 3544   5.254   9.159   8.114
 1101WAT     H1 3545   5.303   9.135   8.030
 1101WAT     H2 3546   5.219   9.076   8.156
 1102WAT      O 3547   4.702   2.763   6.052
 1102WAT     H1 3548   4.782   2.820   6.031
 1102WAT     H2 3549   4.730   2.687   6.110
 1103WAT      O 3550   6.511   2.352   0.052
 1103WAT     H1 3551   6.485   2.301  -0.030
 1103WAT     H2 3552   6.429   2.389   0.096
 1104WAT      O 3553   4.668   4.557   1.905
 1104WAT     H1 3554   4.603   4.486   1.879
 1104WAT     H2 3555   4.708   4.533   1.994
 1105WAT      O 3556   0.028   0.651   2.558
 1105WAT     H1 3557  -0.041   0.637   2.629
 1105WAT     H2 3558   0.001   0.728   2.500
 1106WAT      O 3559   8.231   4.248   3.926
 1106WAT     H1 3560   8.133   4.242   3.945
 1106WAT     H2 3561   8.249   4.213   3.834
 1107WAT      O 3562   8.060   3.194   3.329
 1107WAT     H1 3563   8.066   3.201   3.428
 1107WAT     H2 3564   7.964   3.191   3.301
 1108WAT      O 3565   8.437   6.825   5.677
 1108WAT     H1 3566   8.483   6.737   5.686
 1108WAT     H2 3567   8.375   6.822   5.599
 1109WAT      O 3568   2.496   5.481   6.571
 1109WAT     H1 3569   2.419   5.517   6.623
 1109WAT     H2 3570   2.561   5.555   6.553
 1110WAT      O 3571   5.001   7.751   7.822
 1110WAT     H1 3572   4.990   7.661   7.864
 1110WAT     H2 3573   5.046   7.742   7.733
 1111WAT      O 3574   2.984   3.001   1.480
 1111WAT     H1 3575   2.965   2.999   1.578
 1111WAT     H2 3576   2.939   2.924   1.436
 1112WAT      O 3577   2.992   0.876   6.773
 1112WAT     H1 3578   2.981   0.802   6.707
 1112WAT     H2 3579   3.017   0.837   6.862
 1113WAT      O 3580   9.330   1.881   1.659
 1113WAT     H1 3581   9.301   1.786   1.649
 1113WAT     H2 3582   9.345   1.902   1.755
 1114WAT      O 3583   0.991   2.629   8.458
 1114WAT     H1 3584   0.899   2.603   8.427
 1114WAT     H2 3585   1.027   2.556   8.517
 1115WAT      O 3586   4.860   9.199   7.878
 1115WAT     H1 3587   4.850   9.263   7.801
 1115WAT     H2 3588   4.915   9.242   7.950
 1116WAT      O 3589   0.461   3.990   5.085
 1116WAT     H1 3590   0.425   4.006   4.993
 1116WAT     H2 3591   0.455   4.074   5.138
 1117WAT      O 3592   2.587   3.570   4.137
 1117WAT     H1 3593   2.512   3.527   4.186
 1117WAT     H2 3594   2.552   3.645   4.081
 1118WAT      O 3595   1.111   5.934   7.258
 1118WAT     H1 3596   1.079   5.893   7.344
 1118WAT     H2 3597   1.190   5.882   7.224
 1119WAT      O 3598   5.445   8.140   9.662
 1119WAT     H1 3599   5.489   8.054   9.689
 1119WAT     H2 3600   5.493   8.216   9.705
 1120WAT      O 3601   3.596   5.614   8.907
 1120WAT     H1 3602   3.674   5.644   8.852
 1120WAT     H2 3603   3.572   5.520   8.882
 1121WAT      O 3604   9.295   9.499   4.757
 1121WAT     H1 3605   9.358   9.573   4.732
 1121WAT     H2 3606   9.263   9.454   4.673
 1122WAT      O 3607   0.283   8.596   7.136
 1122WAT     H1 3608   0.309   8.502   7.158
 1122WAT     H2 3609   0.265   8.646   7.221
 1123WAT      O 3610   7.194   2.534   8.514
 1123WAT     H1 3611   7.279   2.494   8.480
 1123WAT     H2 3612   7.211   2.627   8.546
 1124WAT      O 3613   1.659   7.500   5.677
 1124WAT     H1 3614   1.606   7.426   5.637
 1124WAT     H2 3615   1.701   7.554   5.604
 1125WAT      O 3616   4.808   4.045   8.463
 1125WAT     H1 3617   4.859   3.980   8.407
 1125WAT     H2 3618   4.718   4.007   8.485
 1126WAT      O 3619   4.095   0.902   3.173
 1126WAT     H1 3620   4.142   0.979   3.129
 1126WAT     H2 3621   4.144   0.877   3.257
 1127WAT      O 3622   6.297   4.378   0.097
 1127WAT     H1 3623   6.379   4.354   0.148
 1127WAT     H2 3624   6.289   4.478   0.091
 1128WAT      O 3625   6.505   4.198   7.228
 1128WAT     H1 3626   6.556   4.187   7.144
 1128WAT     H2 3627   6.413   4.160   7.216
 1129WAT      O 3628   8.543   7.787   5.474
 1129WAT     H1 3629   8.589   7.867   5.436
 1129WAT     H2 3630   8.504   7.733   5.400
 1130WAT      O 3631   7.332   3.008   5.981
 1130WAT     H1 3632   7.261   2.955   5.934
 1130WAT     H2 3633   7.322   2.997   6.080
 1131WAT      O 3634   4.067   0.127   0.506
 1131WAT     H1 3635   3.970   0.147   0.497
 1131WAT     H2 3636   4.115   0.156   0.424
 1132WAT      O 3637   6.332   5.356   9.044
 1132WAT     H1 3638   6.245   5.366   9.092
 1132WAT     H2 3639   6.407   5.357   9.109
 1133WAT      O 3640   4.785   7.580   3.953
 1133WAT     H1 3641   4.725   7.524   4.009
 1133WAT     H2 3642   4.869   7.530   3.932
 1134WAT      O 3643   3.162   5.355   1.002
 1134WAT     H1 3644   3.097   5.382   0.932
 1134WAT     H2 3645   3.113   5.318   1.081
 1135WAT      O 3646   0.976   2.453   6.759
 1135WAT     H1 3647   0.952   2.547   6.735
 1135WAT     H2 3648   0.906   2.414   6.818
 1136WAT      O 3649   6.205   4.853   4.621
 1136WAT     H1 3650   6.149   4.795   4.681
 1136WAT     H2 3651   6.228   4.804   4.538
 1137WAT      O 3652   7.460   3.951   8.664
 1137WAT     H1 3653   7.412   4.002   8.592
 1137WAT     H2 3654   7.468   3.855   8.636
 1138WAT      O 3655   0.889   4.925   3.738
 1138WAT     H1 3656   0.928   5.004   3.784
 1138WAT     H2 3657   0.934   4.912   3.650
 1139WAT      O 3658   8.547   9.002   7.084
 1139WAT     H1 3659   8.615   9.059   7.130
 1139WAT     H2 3660   8.462   9.001   7.138
 1140WAT      O 3661   3.167   9.534   2.945
 1140WAT     H1 3662   3.217   9.615   2.913
 1140WAT     H2 3663   3.191   9.516   3.041
 1141WAT      O 3664   7.389   9.351   0.233
 1141WAT     H1 3665   7.345   9.262   0.221
 1141WAT     H2 3666   7.385   9.378   0.329
 1142WAT      O 3667   7.953   5.085   9.280
 1142WAT     H1 3668   7.871   5.140   9.299
 1142WAT     H2 3669   7.932   4.989   9.296
 1143WAT      O 3670   6.839   7.548   6.145
 1143WAT     H1 3671   6.752   7.532   6.192
 1143WAT     H2 3672   6.893   7.464   6.144
 1144WAT      O 3673   5.460   9.525   1.498
 1144WAT     H1 3674   5.470   9.519   1.399
 1144WAT     H2 3675   5.363   9.534   1.521
 1145WAT      O 3676   9.786   5.694   8.754
 1145WAT     H1 3677   9.754   5.769   8.697
 1145WAT     H2 3678   9.880   5.713   8.784
 1146WAT      O 3679   5.610   8.204   6.289
 1146WAT     H1 3680   5.597   8.154   6.203
 1146WAT     H2 3681   5.626   8.139   6.363
 1147WAT      O 3682   1.077   7.896   3.642
 1147WAT     H1 3683   1.048   7.971   3.583
 1147WAT     H2 3684   1.021   7.894   3.725
 1148WAT      O 3685   9.129   5.404   5.218
 1148WAT     H1 3686   9.182   5.325   5.187
 1148WAT     H2 3687   9.176   5.448   5.294
 1149WAT      O 3688   7.715   1.884   3.110
 1149WAT     H1 3689   7.634   1.876   3.052
 1149WAT     H2 3690   7.773   1.803   3.098
 1150WAT      O 3691   1.690   5.710   7.044
 1150WAT     H1 3692   1.618   5.710   7.114
 1150WAT     H2 3693   1.761   5.775   7.070
 1151WAT      O 3694   0.758   1.786   2.764
 1151WAT     H1 3695   0.797   1.864   2.714
 1151WAT     H2 3696   0.662   1.804   2.784
 1152WAT      O 3697   2.323   6.587   7.501
 1152WAT     H1 3698   2.337   6.499   7.546
 1152WAT     H2 3699   2.406   6.641   7.506
 1153WAT      O 3700   8.801   8.324   1.203
 1153WAT     H1 3701   8.859   8.271   1.142
 1153WAT     H2 3702   8.718   8.353   1.155
 1154WAT      O 3703   7.684   9.375   4.834
 1154WAT     H1 3704   7.710   9.278   4.832
 1154WAT     H2 3705   7.759   9.430   4.799
 1155WAT      O 3706   8.925   2.438   4.635
 1155WAT     H1 3707   8.892   2.402   4.548
 1155WAT     H2 3708   8.882   2.526   4.654
 1156WAT      O 3709   7.858   3.852   1.204
 1156WAT     H1 3710   7.834   3.942   1.240
 1156WAT     H2 3711   7.792   3.826   1.134
 1157WAT      O 3712   1.944   1.200   6.506
 1157WAT     H1 3713   1.914   1.188   6.411
 1157WAT     H2 3714   1.866   1.228   6.562
 1158WAT      O 3715   6.291   5.236   2.423
 1158WAT     H1 3716   6.324   5.326   2.396
 1158WAT     H2 3717   6.208   5.246   2.478
 1159WAT      O 3718   7.330   0.893   9.760
 1159WAT     H1 3719   7.372   0.914   9.849
 1159WAT     H2 3720   7.370   0.809   9.724
 1160WAT      O 3721   1.853   0.485   8.363
 1160WAT     H1 3722   1.919   0.525   8.299
 1160WAT     H2 3723   1.774   0.546   8.371
 1161WAT      O 3724   0.311   7.451   4.108
 1161WAT     H1 3725   0.318   7.389   4.186
 1161WAT     H2 3726   0.390   7.512   4.108
 1162WAT      O 3727   1.151   5.973   3.850
 1162WAT     H1 3728   1.155   5.874   3.864
 1162WAT     H2 3729   1.192   6.020   3.929
 1163WAT      O 3730   4.098   4.285   7.386
 1163WAT     H1 3731   4.166   4.243   7.326
 1163WAT     H2 3732   4.046   4.212   7.432
 1164WAT      O 3733   3.628   0.552   8.407
 1164WAT     H1 3734   3.596   0.503   8.487
 1164WAT     H2 3735   3.644   0.648   8.431
 1165WAT      O 3736   3.041   6.113   1.531
 1165WAT     H1 3737   2.979   6.083   1.604
 1165WAT     H2 3738   2.987   6.146   1.453
 1166WAT      O 3739   2.579   6.145   9.579
 1166WAT     H1 3740   2.610   6.090   9.501
 1166WAT     H2 3741   2.532   6.226   9.545
 1167WAT      O 3742   8.875   9.074   1.803
 1167WAT     H1 3743   8.902   9.046   1.895
 1167WAT     H2 3744   8.835   8.997   1.754
 1168WAT      O 3745   8.827   7.586   4.569
 1168WAT     H1 3746   8.894   7.512   4.564
 1168WAT     H2 3747   8.753   7.568   4.503
 1169WAT      O 3748   2.722   0.832   2.645
 1169WAT     H1 3749   2.775   0.812   2.563
 1169WAT     H2 3750   2.625   0.839   2.621
 1170WAT      O 3751   2.697   7.194   7.063
 1170WAT     H1 3752   2.755   7.186   6.982
 1170WAT     H2 3753   2.604   7.220   7.035
 1171WAT      O 3754   1.550   2.117   9.177
 1171WAT     H1 3755   1.466   2.130   9.229
 1171WAT     H2 3756   1.530   2.123   9.079
 1172WAT      O 3757   5.096   2.628   6.070
 1172WAT     H1 3758   5.076   2.570   5.991
 1172WAT     H2 3759   5.075   2.578   6.154
 1173WAT      O 3760   7.600   3.855   7.709
 1173WAT     H1 3761   7.535   3.783   7.686
 1173WAT     H2 3762   7.561   3.944   7.685
 1174WAT      O 3763   8.952   5.936   5.919
 1174WAT     H1 3764   8.863   5.965   5.955
 1174WAT     H2 3765   9.007   6.016   5.896
 1175WAT      O 3766   7.981   9.310   7.028
 1175WAT     H1 3767   8.073   9.271   7.040
 1175WAT     H2 3768   7.954   9.303   6.932
 1176WAT      O 3769   8.708   0.556   0.409
 1176WAT     H1 3770   8.700   0.526   0.504
 1176WAT     H2 3771   8.632   0.520   0.356
 1177WAT      O 3772   4.552   6.506   2.716
 1177WAT     H1 3773   4.578   6.438   2.647
 1177WAT     H2 3774   4.605   6.590   2.702
 1178WAT      O 3775   9.793   2.654   7.935
 1178WAT     H1 3776   9.777   2.602   8.019
 1178WAT     H2 3777   9.836   2.741   7.958
 1179WAT      O 3778   8.277   0.013   2.440
 1179WAT     H1 3779   8.340   0.061   2.380
 1179WAT     H2 3780   8.183   0.041   2.419
 1180WAT      O 3781   4.655   1.989   0.389
 1180WAT     H1 3782   4.636   1.975   0.486
 1180WAT     H2 3783   4.730   1.929   0.361
 1181WAT      O 3784   2.203   3.699   8.218
 1181WAT     H1 3785   2.185   3.616   8.164
 1181WAT     H2 3786   2.260   3.676   8.297
 1182WAT      O 3787   2.221   3.542   2.225
 1182WAT     H1 3788   2.202   3.567   2.320
 1182WAT     H2 3789   2.135   3.538   2.173
 1183WAT      O 3790   1.820   4.044   9.497
 1183WAT     H1 3791   1.797   3.996   9.582
 1183WAT     H2 3792   1.814   4.143   9.512
 1184WAT      O 3793   1.408   3.977   2.050
 1184WAT     H1 3794   1.349   4.056   2.066
 1184WAT     H2 3795   1.454   3.952   2.136
 1185WAT      O 3796   1.804   8.763   8.082
 1185WAT     H1 3797   1.722   8.813   8.111
 1185WAT     H2 3798   1.794   8.737   7.986
 1186WAT      O 3799   8.187   1.878   4.254
 1186WAT     H1 3800   8.256   1.835   4.313
 1186WAT     H2 3801   8.218   1.876   4.159
 1187WAT      O 3802   1.291   7.198   6.207
 1187WAT     H1 3803   1.203   7.151   6.210
 1187WAT     H2 3804   1.326   7.212   6.300
 1188WAT      O 3805   1.185   4.708   3.653
 1188WAT     H1 3806   1.115   4.661   3.706
 1188WAT     H2 3807   1.238   4.642   3.600
 1189WAT      O 3808   2.921   3.487   9.180
 1189WAT     H1 3809   2.956   3.416   9.119
 1189WAT     H2 3810   2.851   3.448   9.240
 1190WAT      O 3811   2.062   6.323   4.258
 1190WAT     H1 3812   2.013   6.348   4.174
 1190WAT     H2 3813   2.005   6.340   4.337
 1191WAT      O 3814   8.424   5.616   4.997
 1191WAT     H1 3815   8.503   5.648   5.049
 1191WAT     H2 3816   8.404   5.680   4.923
 1192WAT      O 3817   3.813   8.960   9.843
 1192WAT     H1 3818   3.814   8.918   9.934
 1192WAT     H2 3819   3.790   8.891   9.774
 1193WAT      O 3820   7.867   6.191   5.037
 1193WAT     H1 3821   7.781   6.153   5.071
 1193WAT     H2 3822   7.851   6.284   5.003
 1194WAT      O 3823   3.694   5.809   8.509
 1194WAT     H1 3824   3.736   5.774   8.426
 1194WAT     H2 3825   3.738   5.767   8.589
 1195WAT      O 3826   2.290   1.582   2.590
 1195WAT     H1 3827   2.311   1.512   2.521
 1195WAT     H2 3828   2.191   1.591   2.599
 1196WAT      O 3829   4.184   2.444   4.321
 1196WAT     H1 3830   4.093   2.457   4.283
 1196WAT     H2 3831   4.177   2.434   4.420
 1197WAT      O 3832   6.693   4.230   9.807
 1197WAT     H1 3833   6.643   4.273   9.732
 1197WAT     H2 3834   6.778   4.279   9.823
 1198WAT      O 3835   8.255   0.818   4.161
 1198WAT     H1 3836   8.342   0.775   4.137
 1198WAT     H2 3837   8.215   0.861   4.080
 1199WAT      O 3838   2.800   2.809   8.829
 1199WAT     H1 3839   2.737   2.736   8.856
 1199WAT     H2 3840   2.878   2.810   8.891
 1200WAT      O 3841   1.922   6.209   1.564
 1200WAT     H1 3842   1.863   6.286   1.540
 1200WAT     H2 3843   2.004   6.243   1.609
 1201WAT      O 3844   8.562   1.101   8.503
 1201WAT     H1 3845   8.486   1.133   8.560
 1201WAT     H2 3846   8.642   1.159   8.517
 1202WAT      O 3847   2.262   4.328   2.447
 1202WAT     H1 3848   2.297   4.421   2.437
 1202WAT     H2 3849   2.304   4.285   2.528
 1203WAT      O 3850   2.169   8.726   4.472
 1203WAT     H1 3851   2.236   8.771   4.413
 1203WAT     H2 3852   2.136   8.642   4.427
 1204WAT      O 3853   3.625   4.884   4.643
 1204WAT     H1 3854   3.691   4.880   4.568
 1204WAT     H2 3855   3.636   4.970   4.694
 1205WAT      O 3856   4.314   3.148   4.224
 1205WAT     H1 3857   4.326   3.247   4.224
 1205WAT     H2 3858   4.314   3.115   4.318
 1206WAT      O 3859   6.075   4.170   8.683
 1206WAT     H1 3860   6.139   4.244   8.663
 1206WAT     H2 3861   6.086   4.142   8.779
 1207WAT      O 3862   6.891   4.151   6.165
 1207WAT     H1 3863   6.867   4.240   6.126
 1207WAT     H2 3864   6.891   4.158   6.265
 1208WAT      O 3865   7.004   4.633   6.963
 1208WAT     H1 3866   7.094   4.676   6.973
 1208WAT     H2 3867   6.972   4.602   7.053
 1209WAT      O 3868   6.234   7.233   2.903
 1209WAT     H1 3869   6.155   7.222   2.964
 1209WAT     H2 3870   6.214   7.190   2.815
 1210WAT      O 3871   0.552   8.830   1.202
 1210WAT     H1 3872   0.552   8.928   1.221
 1210WAT     H2 3873   0.461   8.793   1.220
 1211WAT      O 3874   9.600   8.997   0.783
 1211WAT     H1 3875   9.578   8.915   0.730
 1211WAT     H2 3876   9.563   8.989   0.875
 1212WAT      O 3877   6.455   3.470   6.202
 1212WAT     H1 3878   6.356   3.463   6.193
 1212WAT     H2 3879   6.480   3.472   6.299
 1213WAT      O 3880   6.819   7.578   9.875
 1213WAT     H1 3881   6.722   7.587   9.850
 1213WAT     H2 3882   6.835   7.620   9.964
 1214WAT      O 3883   2.086   9.626   2.481
 1214WAT     H1 3884   2.017   9.670   2.424
 1214WAT     H2 3885   2.177   9.642   2.442
 1215WAT      O 3886   0.531   5.874   5.343
 1215WAT     H1 3887   0.541   5.860   5.441
 1215WAT     H2 3888   0.443   5.919   5.325
 1216WAT      O 3889   3.288   7.645   3.625
 1216WAT     H1 3890   3.245   7.734   3.615
 1216WAT     H2 3891   3.296   7.621   3.722
 1217WAT      O 3892   4.865   4.006   5.166
 1217WAT     H1 3893   4.920   3.988   5.248
 1217WAT     H2 3894   4.773   4.033   5.192
 1218WAT      O 3895   3.346   9.558   8.774
 1218WAT     H1 3896   3.292   9.624   8.827
 1218WAT     H2 3897   3.301   9.469   8.777
 1219WAT      O 3898   3.876   2.804   5.773
 1219WAT     H1 3899   3.887   2.761   5.683
 1219WAT     H2 3900   3.806   2.875   5.767
 1220WAT      O 3901   0.625   9.124   6.719
 1220WAT     H1 3902   0.614   9.111   6.621
 1220WAT     H2 3903   0.723   9.136   6.740
 1221WAT      O 3904   9.043   4.995   9.128
 1221WAT     H1 3905   9.077   4.986   9.035
 1221WAT     H2 3906   9.079   4.921   9.184
 1222WAT      O 3907   7.151   5.489   0.716
 1222WAT     H1 3908   7.095   5.569   0.695
 1222WAT     H2 3909   7.233   5.490   0.659
 1223WAT      O 3910   4.636   3.176   4.780
 1223WAT     H1 3911   4.699   3.226   4.840
 1223WAT     H2 3912   4.567   3.239   4.744
 1224WAT      O 3913   6.642   1.250   0.367
 1224WAT     H1 3914   6.640   1.346   0.394
 1224WAT     H2 3915   6.549   1.217   0.354
 1225WAT      O 3916   8.085   2.817   8.296
 1225WAT     H1 3917   8.002   2.778   8.335
 1225WAT     H2 3918   8.075   2.827   8.197
 1226WAT      O 3919   4.023   1.772   4.610
 1226WAT     H1 3920   4.024   1.872   4.608
 1226WAT     H2 3921   4.066   1.739   4.694
 1227WAT      O 3922   6.039   1.410   4.870
 1227WAT     H1 3923   6.074   1.450   4.954
 1227WAT     H2 3924   6.020   1.482   4.804
 1228WAT      O 3925   8.105   4.386   9.334
 1228WAT     H1 3926   8.067   4.441   9.259
 1228WAT     H2 3927   8.205   4.390   9.330
 1229WAT      O 3928   3.408   8.894   9.702
 1229WAT     H1 3929   3.472   8.819   9.683
 1229WAT     H2 3930   3.420   8.966   9.633
 1230WAT      O 3931   5.538   6.853   0.555
 1230WAT     H1 3932   5.578   6.780   0.612
 1230WAT     H2 3933   5.506   6.927   0.614
 1231WAT      O 3934   8.150   6.763   6.764
 1231WAT     H1 3935   8.056   6.761   6.730
 1231WAT     H2 3936   8.189   6.671   6.761
 1232WAT      O 3937   0.111   5.151   5.353
 1232WAT     H1 3938   0.187   5.180   5.412
 1232WAT     H2 3939   0.047   5.227   5.342
 1233WAT      O 3940   2.377   8.355   2.076
 1233WAT     H1 3941   2.320   8.339   2.156
 1233WAT     H2 3942   2.439   8.278   2.063
 1234WAT      O 3943   1.174   4.292   4.179
 1234WAT     H1 3944   1.179   4.246   4.268
 1234WAT     H2 3945   1.190   4.225   4.107
 1235WAT      O 3946   7.971   9.596   4.427
 1235WAT     H1 3947   8.058   9.570   4.468
 1235WAT     H2 3948   7.986   9.670   4.362
 1236WAT      O 3949   0.714   5.338   1.349
 1236WAT     H1 3950   0.720   5.432   1.383
 1236WAT     H2 3951   0.706   5.275   1.426
 1237WAT      O 3952   0.056   9.747   8.605
 1237WAT     H1 3953   0.082   9.721   8.512
 1237WAT     H2 3954  -0.039   9.720   8.621
 1238WAT      O 3955   6.965   8.419   8.543
 1238WAT     H1 3956   6.900   8.385   8.611
 1238WAT     H2 3957   7.026   8.486   8.585
 1239WAT      O 3958   2.827   0.288   8.585
 1239WAT     H1 3959   2.910   0.322   8.540
 1239WAT     H2 3960   2.805   0.197   8.550
 1240WAT      O 3961   0.654   7.433   7.126
 1240WAT     H1 3962   0.653   7.473   7.218
 1240WAT     H2 3963   0.666   7.505   7.058
 1241WAT      O 3964   3.966   2.124   9.385
 1241WAT     H1 3965   3.939   2.174   9.303
 1241WAT     H2 3966   3.885   2.108   9.442
 1242WAT      O 3967   2.785   9.427   6.778
 1242WAT     H1 3968   2.709   9.393   6.723
 1242WAT     H2 3969   2.758   9.431   6.874
 1243WAT      O 3970   4.558   9.080   7.521
 1243WAT     H1 3971   4.512   9.028   7.449
 1243WAT     H2 3972   4.626   9.023   7.565
 1244WAT      O 3973   7.955   2.414   0.094
 1244WAT     H1 3974   8.039   2.461   0.123
 1244WAT     H2 3975   7.976   2.356   0.014
 1245WAT      O 3976   4.251   2.458   8.006
 1245WAT     H1 3977   4.273   2.428   8.098
 1245WAT     H2 3978   4.267   2.383   7.942
 1246WAT      O 3979   8.743   0.925   5.161
 1246WAT     H1 3980   8.658   0.901   5.209
 1246WAT     H2 3981   8.816   0.864   5.190
 1247WAT      O 3982   5.387   1.199   5.249
 1247WAT     H1 3983   5.443   1.209   5.332
 1247WAT     H2 3984   5.351   1.106   5.244
 1248WAT      O 3985   5.934   4.097   2.699
 1248WAT     H1 3986   5.858   4.115   2.637
 1248WAT     H2 3987   6.019   4.133   2.659
 1249WAT      O 3988   1.019   7.723   5.104
 1249WAT     H1 3989   1.012   7.629   5.069
 1249WAT     H2 3990   1.075   7.778   5.041
 1250WAT      O 3991   8.376   9.400   1.509
 1250WAT     H1 3992   8.379   9.499   1.494
 1250WAT     H2 3993   8.400   9.353   1.424
 1251WAT      O 3994   8.466   6.568   3.412
 1251WAT     H1 3995   8.506   6.523   3.331
 1251WAT     H2 3996   8.456   6.501   3.485
 1252WAT      O 3997   5.522   3.258   0.648
 1252WAT     H1 3998   5.448   3.197   0.676
 1252WAT     H2 3999   5.489   3.317   0.574
 1253WAT      O 4000   1.803   7.664   9.276
 1253WAT     H1 4001   1.750   7.622   9.202
 1253WAT     H2 4002   1.740   7.707   9.342
 1254WAT      O 4003   8.945   1.411   6.110
 1254WAT     H1 4004   8.902   1.348   6.174
 1254WAT     H2 4005   8.986   1.360   6.035
 1255WAT      O 4006   8.209   3.580   1.548
 1255WAT     H1 4007   8.130   3.608   1.495
 1255WAT     H2 4008   8.194   3.602   1.645
 1256WAT      O 4009   2.565   1.012   5.328
 1256WAT     H1 4010   2.525   0.963   5.405
 1256WAT     H2 4011   2.582   1.107   5.353
 1257WAT      O 4012   0.402   3.170   8.930
 1257WAT     H1 4013   0.361   3.088   8.969
 1257WAT     H2 4014   0.493   3.184   8.970
 1258WAT      O 4015   2.517   4.790   3.861
 1258WAT     H1 4016   2.507   4.763   3.956
 1258WAT     H2 4017   2.539   4.709   3.806
 1259WAT      O 4018   4.300   9.192   0.523
 1259WAT     H1 4019   4.228   9.216   0.587
 1259WAT     H2 4020   4.286   9.241   0.437
 1260WAT      O 4021   2.256   6.744   5.793
 1260WAT     H1 4022   2.213   6.824   5.753
 1260WAT     H2 4023   2.252   6.751   5.893
 1261WAT      O 4024   3.749   7.970   5.370
 1261WAT     H1 4025   3.768   8.019   5.454
 1261WAT     H2 4026   3.832   7.965   5.314
 1262WAT      O 4027   5.087   3.498   1.960
 1262WAT     H1 4028   5.072   3.403   1.934
 1262WAT     H2 4029   5.047   3.515   2.051
 1263WAT      O 4030   1.434   6.259   6.030
 1263WAT     H1 4031   1.402   6.186   6.090
 1263WAT     H2 4032   1.516   6.229   5.981
 1264WAT      O 4033   0.534   2.937   6.900
 1264WAT     H1 4034   0.628   2.908   6.918
 1264WAT     H2 4035   0.531   2.989   6.814
 1265WAT      O 4036   6.172   3.828   1.631
 1265WAT     H1 4037   6.256   3.866   1.670
 1265WAT     H2 4038   6.152   3.875   1.545
 1266WAT      O 4039   4.381   1.017   5.804
 1266WAT     H1 4040   4.467   0.994   5.760
 1266WAT     H2 4041   4.398   1.076   5.883
 1267WAT      O 4042   1.110   0.448   6.798
 1267WAT     H1 4043   1.178   0.516   6.826
 1267WAT     H2 4044   1.121   0.429   6.700
 1268WAT      O 4045   9.752   2.446   1.869
 1268WAT     H1 4046   9.722   2.355   1.841
 1268WAT     H2 4047   9.768   2.447   1.967
 1269WAT      O 4048   4.275   3.633   7.139
 1269WAT     H1 4049   4.210   3.679   7.078
 1269WAT     H2 4050   4.279   3.535   7.116
 1270WAT      O 4051   3.455   1.967   3.429
 1270WAT     H1 4052   3.415   2.016   3.506
 1270WAT     H2 4053   3.482   1.875   3.458
 1271WAT      O 4054   4.448   3.273   5.200
 1271WAT     H1 4055   4.424   3.180   5.226
 1271WAT     H2 4056   4.548   3.281   5.193
 1272WAT      O 4057   0.955   5.660   3.090
 1272WAT     H1 4058   0.972   5.561   3.095
 1272WAT     H2 4059   1.042   5.709   3.100
 1273WAT      O 4060   3.748   5.379   9.816
 1273WAT     H1 4061   3.806   5.418   9.744
 1273WAT     H2 4062   3.786   5.404   9.906
 1274WAT      O 4063   8.837   7.973   1.484
 1274WAT     H1 4064   8.844   8.073   1.476
 1274WAT     H2 4065   8.875   7.944   1.572
 1275WAT      O 4066   1.407   9.612   0.155
 1275WAT     H1 4067   1.409   9.582   0.060
 1275WAT     H2 4068   1.500   9.617   0.191
 1276WAT      O 4069   3.757   4.831   7.110
 1276WAT     H1 4070   3.836   4.785   7.070
 1276WAT     H2 4071   3.675   4.775   7.096
 1277WAT      O 4072   4.327   3.298   0.504
 1277WAT     H1 4073   4.252   3.248   0.549
 1277WAT     H2 4074   4.413   3.279   0.551
 1278WAT      O 4075   8.344   8.386   7.342
 1278WAT     H1 4076   8.280   8.329   7.290
 1278WAT     H2 4077   8.357   8.346   7.433
 1279WAT      O 4078   6.276   4.707   3.200
 1279WAT     H1 4079   6.192   4.674   3.158
 1279WAT     H2 4080   6.352   4.649   3.173
 1280WAT      O 4081   2.065   5.392   9.695
 1280WAT     H1 4082   2.091   5.320   9.759
 1280WAT     H2 4083   2.040   5.475   9.745
 1281WAT      O 4084   8.656   3.027   4.170
 1281WAT     H1 4085   8.559   3.033   4.147
 1281WAT     H2 4086   8.694   2.941   4.135
 1282WAT      O 4087   9.793   9.198   0.101
 1282WAT     H1 4088   9.886   9.200   0.065
 1282WAT     H2 4089   9.728   9.185   0.026
 1283WAT      O 4090   4.323   9.753   9.415
 1283WAT     H1 4091   4.372   9.676   9.375
 1283WAT     H2 4092   4.268   9.799   9.345
 1284WAT      O 4093   1.838   0.466   8.037
 1284WAT     H1 4094   1.796   0.557   8.045
 1284WAT     H2 4095   1.777   0.405   7.987
 1285WAT      O 4096   7.877   3.383   3.585
 1285WAT     H1 4097   7.964   3.404   3.629
 1285WAT     H2 4098   7.858   3.450   3.513
 1286WAT      O 4099   9.351   3.748   2.084
 1286WAT     H1 4100   9.417   3.819   2.106
 1286WAT     H2 4101   9.294   3.729   2.164
 1287WAT      O 4102   2.744   5.996   9.127
 1287WAT     H1 4103   2.709   5.953   9.044
 1287WAT     H2 4104   2.727   5.936   9.206
 1288WAT      O 4105   8.765   3.471   3.953
 1288WAT     H1 4106   8.770   3.538   4.027
 1288WAT     H2 4107   8.691   3.495   3.891
 1289WAT      O 4108   1.211   1.593   2.535
 1289WAT     H1 4109   1.301   1.627   2.509
 1289WAT     H2 4110   1.142   1.631   2.474
 1290WAT      O 4111   7.338   7.014   0.223
 1290WAT     H1 4112   7.402   7.000   0.299
 1290WAT     H2 4113   7.250   7.045   0.260
 1291WAT      O 4114   4.771   1.854   8.338
 1291WAT     H1 4115   4.866   1.866   8.310
 1291WAT     H2 4116   4.768   1.805   8.424
 1292WAT      O 4117   9.491   5.364   3.173
 1292WAT     H1 4118   9.508   5.318   3.260
 1292WAT     H2 4119   9.441   5.449   3.189
 1293WAT      O 4120   3.578   2.154   1.779
 1293WAT     H1 4121   3.651   2.144   1.847
 1293WAT     H2 4122   3.560   2.065   1.737
 1294WAT      O 4123   0.382   8.655   9.840
 1294WAT     H1 4124   0.359   8.697   9.751
 1294WAT     H2 4125   0.369   8.722   9.912
 1295WAT      O 4126   3.297   6.111   2.318
 1295WAT     H1 4127   3.302   6.064   2.406
 1295WAT     H2 4128   3.233   6.188   2.325
 1296WAT      O 4129   0.361   4.205   6.447
 1296WAT     H1 4130   0.315   4.293   6.436
 1296WAT     H2 4131   0.294   4.134   6.468
 1297WAT      O 4132   0.674   7.673   4.557
 1297WAT     H1 4133   0.585   7.667   4.603
 1297WAT     H2 4134   0.713   7.763   4.574
 1298WAT      O 4135   5.109   7.958   1.927
 1298WAT     H1 4136   5.135   8.027   1.995
 1298WAT     H2 4137   5.101   7.869   1.972
 1299WAT      O 4138   3.980   9.090   2.423
 1299WAT     H1 4139   4.063   9.088   2.479
 1299WAT     H2 4140   3.920   9.014   2.449
 1300WAT      O 4141   9.334   0.524   6.150
 1300WAT     H1 4142   9.416   0.582   6.151
 1300WAT     H2 4143   9.255   0.576   6.180
 1301WAT      O 4144   5.125   9.780   6.880
 1301WAT     H1 4145   5.095   9.685   6.891
 1301WAT     H2 4146   5.046   9.837   6.857
 1302WAT      O 4147   4.090   8.825   8.560
 1302WAT     H1 4148   4.053   8.746   8.512
 1302WAT     H2 4149   4.190   8.821   8.560
 1303WAT      O 4150   0.757   0.390   4.357
 1303WAT     H1 4151   0.842   0.414   4.406
 1303WAT     H2 4152   0.707   0.473   4.335
 1304WAT      O 4153   8.161   3.139   7.871
 1304WAT     H1 4154   8.248   3.091   7.888
 1304WAT     H2 4155   8.099   3.080   7.820
 1305WAT      O 4156   9.392   2.122   2.945
 1305WAT     H1 4157   9.352   2.155   3.030
 1305WAT     H2 4158   9.326   2.065   2.897
 1306WAT      O 4159   7.545   4.846   4.210
 1306WAT     H1 4160   7.450   4.875   4.222
 1306WAT     H2 4161   7.546   4.753   4.173
 1307WAT      O 4162   7.005   8.963   0.358
 1307WAT     H1 4163   7.032   9.050   0.317
 1307WAT     H2 4164   6.959   8.906   0.290
 1308WAT      O 4165   6.054   6.828   6.009
 1308WAT     H1 4166   6.082   6.759   5.943
 1308WAT     H2 4167   6.132   6.849   6.069
 1309WAT      O 4168   4.192   7.249   9.662
 1309WAT     H1 4169   4.127   7.175   9.679
 1309WAT     H2 4170   4.151   7.317   9.603
 1310WAT      O 4171   8.771   8.780   2.852
 1310WAT     H1 4172   8.739   8.758   2.944
 1310WAT     H2 4173   8.870   8.794   2.853
 1311WAT      O 4174   6.146   8.457   6.689
 1311WAT     H1 4175   6.121   8.494   6.778
 1311WAT     H2 4176   6.131   8.358   6.688
 1312WAT      O 4177   5.663   8.545   0.731
 1312WAT     H1 4178   5.682   8.451   0.760
 1312WAT     H2 4179   5.747   8.599   0.738
 1313WAT      O 4180   2.093   4.015   4.674
 1313WAT     H1 4181   2.094   4.100   4.621
 1313WAT     H2 4182   2.186   3.981   4.685
 1314WAT      O 4183   4.541   0.797   3.732
 1314WAT     H1 4184   4.452   0.751   3.730
 1314WAT     H2 4185   4.563   0.824   3.825
 1315WAT      O 4186   9.550   5.322   5.123
 1315WAT     H1 4187   9.465   5.289   5.082
 1315WAT     H2 4188   9.628   5.279   5.078
 1316WAT      O 4189   1.187   6.963   0.846
 1316WAT     H1 4190   1.278   6.930   0.867
 1316WAT     H2 4191   1.119   6.912   0.900
 1317WAT      O 4192   9.725   2.221   1.750
 1317WAT     H1 4193   9.689   2.131   1.776
 1317WAT     H2 4194   9.706   2.238   1.653
 1318WAT      O 4195   1.979   2.945   4.628
 1318WAT     H1 4196   1.929   2.915   4.709
 1318WAT     H2 4197   2.010   2.865   4.576
 1319WAT      O 4198   8.659   1.198   5.191
 1319WAT     H1 4199   8.597   1.170   5.118
 1319WAT     H2 4200   8.729   1.127   5.205
 1320WAT      O 4201   7.410   6.693   0.733
 1320WAT     H1 4202   7.425   6.667   0.828
 1320WAT     H2 4203   7.328   6.749   0.725
 1321WAT      O 4204   1.775   1.017   3.569
 1321WAT     H1 4205   1.798   1.003   3.665
 1321WAT     H2 4206   1.837   1.086   3.529
 1322WAT      O 4207   3.526   0.764   3.420
 1322WAT     H1 4208   3.455   0.728   3.360
 1322WAT     H2 4209   3.542   0.861   3.399
 1323WAT      O 4210   7.760   3.561   4.207
 1323WAT     H1 4211   7.753   3.626   4.283
 1323WAT     H2 4212   7.831   3.591   4.144
 1324WAT      O 4213   3.192   7.070   5.972
 1324WAT     H1 4214   3.108   7.018   5.982
 1324WAT     H2 4215   3.260   7.015   5.924
 1325WAT      O 4216   8.933   1.829   0.477
 1325WAT     H1 4217   8.942   1.920   0.438
 1325WAT     H2 4218   9.022   1.783   0.476
 1326WAT      O 4219   9.077   1.478   9.334
 1326WAT     H1 4220   9.003   1.411   9.340
 1326WAT     H2 4221   9.073   1.525   9.246
 1327WAT      O 4222   5.845   7.495   1.034
 1327WAT     H1 4223   5.803   7.486   1.124
 1327WAT     H2 4224   5.775   7.490   0.964
 1328WAT      O 4225   9.650   4.082   9.038
 1328WAT     H1 4226   9.723   4.147   9.019
 1328WAT     H2 4227   9.661   4.002   8.979
 1329WAT      O 4228   7.260   8.666   8.242
 1329WAT     H1 4229   7.353   8.636   8.259
 1329WAT     H2 4230   7.244   8.674   8.144
 1330WAT      O 4231   0.502  -0.005   0.339
 1330WAT     H1 4232   0.543   0.086   0.331
 1330WAT     H2 4233   0.402   0.003   0.338
 1331WAT      O 4234   6.839   8.913   7.408
 1331WAT     H1 4235   6.909   8.885   7.343
 1331WAT     H2 4236   6.881   8.964   7.483
 1332WAT      O 4237   7.290   2.395   3.661
 1332WAT     H1 4238   7.365   2.395   3.727
 1332WAT     H2 4239   7.303   2.321   3.595
 1333WAT      O 4240   1.428   9.111   3.458
 1333WAT     H1 4241   1.411   9.194   3.511
 1333WAT     H2 4242   1.494   9.054   3.506
 1334WAT      O 4243   9.558   6.372   0.996
 1334WAT     H1 4244   9.595   6.414   1.079
 1334WAT     H2 4245   9.621   6.387   0.920
 1335WAT      O 4246   1.972   5.925   1.534
 1335WAT     H1 4247   1.944   5.896   1.443
 1335WAT     H2 4248   1.957   6.024   1.543
 1336WAT      O 4249   7.805   3.364   8.274
 1336WAT     H1 4250   7.819   3.367   8.373
 1336WAT     H2 4251   7.869   3.424   8.228
 1337WAT      O 4252   7.585   7.982   1.673
 1337WAT     H1 4253   7.539   7.935   1.749
 1337WAT     H2 4254   7.680   8.001   1.697
 1338WAT      O 4255   5.455   8.888   1.046
 1338WAT     H1 4256   5.545   8.865   1.084
 1338WAT     H2 4257   5.423   8.812   0.989
 1339WAT      O 4258   9.626   3.856   1.530
 1339WAT     H1 4259   9.691   3.796   1.575
 1339WAT     H2 4260   9.671   3.942   1.505
 1340WAT      O 4261   8.244   8.225   4.412
 1340WAT     H1 4262   8.304   8.152   4.445
 1340WAT     H2 4263   8.299   8.292   4.362
 1341WAT      O 4264   9.106   9.270   5.026
 1341WAT     H1 4265   9.055   9.303   4.947
 1341WAT     H2 4266   9.052   9.200   5.074
 1342WAT      O 4267   0.281   6.444   2.167
 1342WAT     H1 4268   0.368   6.401   2.190
 1342WAT     H2 4269   0.248   6.496   2.245
 1343WAT      O 4270   7.345   4.643   3.265
 1343WAT     H1 4271   7.420   4.669   3.326
 1343WAT     H2 4272   7.268   4.608   3.319
 1344WAT      O 4273   6.463   1.053   1.336
 1344WAT     H1 4274   6.462   1.138   1.284
 1344WAT     H2 4275   6.370   1.018   1.345
 1345WAT      O 4276   8.752   4.590   7.696
 1345WAT     H1 4277   8.797   4.582   7.785
 1345WAT     H2 4278   8.798   4.529   7.631
 1346WAT      O 4279   9.002   0.598   6.799
 1346WAT     H1 4280   8.976   0.536   6.724
 1346WAT     H2 4281   9.076   0.657   6.769
 1347WAT      O 4282   6.307   4.418   9.321
 1347WAT     H1 4283   6.240   4.433   9.394
 1347WAT     H2 4284   6.355   4.503   9.301
 1348WAT      O 4285   0.607   2.801   7.419
 1348WAT     H1 4286   0.558   2.734   7.364
 1348WAT     H2 4287   0.704   2.797   7.397
 1349WAT      O 4288   5.629   0.432   4.340
 1349WAT     H1 4289   5.728   0.440   4.349
 1349WAT     H2 4290   5.593   0.377   4.415
 1350WAT      O 4291   1.760   5.039   8.450
 1350WAT     H1 4292   1.803   5.007   8.535
 1350WAT     H2 4293   1.725   4.961   8.398
 1351WAT      O 4294   6.704   0.717   8.389
 1351WAT     H1 4295   6.629   0.784   8.382
 1351WAT     H2 4296   6.790   0.766   8.401
 1352WAT      O 4297   5.568   5.162   1.595
 1352WAT     H1 4298   5.633   5.108   1.649
 1352WAT     H2 4299   5.601   5.256   1.588
 1353WAT      O 4300   7.275   2.438   0.100
 1353WAT     H1 4301   7.266   2.408   0.195
 1353WAT     H2 4302   7.220   2.520   0.085
 1354WAT      O 4303   9.647   8.966   5.752
 1354WAT     H1 4304   9.718   9.017   5.800
 1354WAT     H2 4305   9.629   9.009   5.664
 1355WAT      O 4306   6.304   8.535   5.376
 1355WAT     H1 4307   6.367   8.465   5.343
 1355WAT     H2 4308   6.210   8.504   5.361
 1356WAT      O 4309   3.671   9.059   6.937
 1356WAT     H1 4310   3.767   9.077   6.913
 1356WAT     H2 4311   3.663   8.970   6.980
 1357WAT      O 4312   2.490   6.316   9.396
 1357WAT     H1 4313   2.422   6.388   9.381
 1357WAT     H2 4314   2.578   6.346   9.358
 1358WAT      O 4315   9.844   2.244   4.274
 1358WAT     H1 4316   9.793   2.321   4.236
 1358WAT     H2 4317   9.802   2.215   4.360
 1359WAT      O 4318   8.443   7.620   4.972
 1359WAT     H1 4319   8.463   7.668   5.058
 1359WAT     H2 4320   8.519   7.632   4.908
 1360WAT      O 4321   0.965   4.141   1.369
 1360WAT     H1 4322   0.915   4.210   1.421
 1360WAT     H2 4323   0.927   4.050   1.387
 1361WAT      O 4324   5.310   3.196   6.805
 1361WAT     H1 4325   5.354   3.213   6.717
 1361WAT     H2 4326   5.285   3.100   6.812
 1362WAT      O 4327   2.013   0.764   9.044
 1362WAT     H1 4328   1.961   0.809   8.971
 1362WAT     H2 4329   2.109   0.790   9.037
 1363WAT      O 4330   9.297   1.165   7.046
 1363WAT     H1 4331   9.225   1.193   6.983
 1363WAT     H2 4332   9.278   1.203   7.137
 1364WAT      O 4333   5.088   4.721   9.378
 1364WAT     H1 4334   5.043   4.657   9.316
 1364WAT     H2 4335   5.065   4.815   9.353
 1365WAT      O 4336   3.312   5.881   7.582
 1365WAT     H1 4337   3.354   5.801   7.541
 1365WAT     H2 4338   3.383   5.946   7.610
 1366WAT      O 4339   4.613   5.775   7.572
 1366WAT     H1 4340   4.632   5.701   7.508
 1366WAT     H2 4341   4.642   5.862   7.532
 1367WAT      O 4342   1.222   3.983   9.619
 1367WAT     H1 4343   1.213   3.932   9.705
 1367WAT     H2 4344   1.193   4.078   9.633
 1368WAT      O 4345   1.719   5.842   2.924
 1368WAT     H1 4346   1.682   5.929   2.955
 1368WAT     H2 4347   1.706   5.833   2.825
 1369WAT      O 4348   4.931   2.297   1.476
 1369WAT     H1 4349   4.870   2.248   1.415
 1369WAT     H2 4350   4.992   2.232   1.522
 1370WAT      O 4351   6.011   7.487   8.367
 1370WAT     H1 4352   6.017   7.547   8.287
 1370WAT     H2 4353   6.100   7.444   8.383
 1371WAT      O 4354   2.255   2.428   5.880
 1371WAT     H1 4355   2.266   2.509   5.938
 1371WAT     H2 4356   2.243   2.457   5.784
 1372WAT      O 4357   0.986   2.288   2.837
 1372WAT     H1 4358   0.918   2.224   2.804
 1372WAT     H2 4359   1.055   2.304   2.766
 1373WAT      O 4360   7.537   1.165   9.565
 1373WAT     H1 4361   7.585   1.080   9.546
 1373WAT     H2 4362   7.442   1.145   9.591
 1374WAT      O 4363   7.586   3.697   9.436
 1374WAT     H1 4364   7.627   3.688   9.527
 1374WAT     H2 4365   7.498   3.650   9.434
 1375WAT      O 4366   8.612   5.331   7.109
 1375WAT     H1 4367   8.642   5.423   7.135
 1375WAT     H2 4368   8.535   5.338   7.045
 1376WAT      O 4369   9.756   4.320   5.842
 1376WAT     H1 4370   9.729   4.241   5.897
 1376WAT     H2 4371   9.742   4.300   5.745
 1377WAT      O 4372   6.197   4.539   9.579
 1377WAT     H1 4373   6.286   4.560   9.620
 1377WAT     H2 4374   6.126   4.593   9.624
 1378WAT      O 4375   3.636   6.118   2.090
 1378WAT     H1 4376   3.683   6.148   2.007
 1378WAT     H2 4377   3.546   6.163   2.096
 1379WAT      O 4378   4.720   3.261   5.239
 1379WAT     H1 4379   4.740   3.173   5.282
 1379WAT     H2 4380   4.759   3.335   5.293
 1380WAT      O 4381   6.881   8.906   8.197
 1380WAT     H1 4382   6.826   8.977   8.241
 1380WAT     H2 4383   6.857   8.901   8.100
 1381WAT      O 4384   1.928   9.618   5.488
 1381WAT     H1 4385   1.945   9.536   5.435
 1381WAT     H2 4386   1.992   9.623   5.564
 1382WAT      O 4387   1.350   4.902   3.294
 1382WAT     H1 4388   1.290   4.962   3.347
 1382WAT     H2 4389   1.414   4.855   3.355
 1383WAT      O 4390   2.572   7.997   9.841
 1383WAT     H1 4391   2.604   8.087   9.872
 1383WAT     H2 4392   2.485   7.976   9.884
 1384WAT      O 4393   9.397   0.299   5.821
 1384WAT     H1 4394   9.401   0.256   5.731
 1384WAT     H2 4395   9.379   0.229   5.890
 1385WAT      O 4396   6.874   6.135   0.606
 1385WAT     H1 4397   6.931   6.098   0.679
 1385WAT     H2 4398   6.808   6.066   0.576
 1386WAT      O 4399   1.284   5.971   2.456
 1386WAT     H1 4400   1.305   6.058   2.501
 1386WAT     H2 4401   1.353   5.951   2.387
 1387WAT      O 4402   5.811   7.427   8.852
 1387WAT     H1 4403   5.752   7.399   8.776
 1387WAT     H2 4404   5.854   7.346   8.892
 1388WAT      O 4405   3.447   2.993   4.641
 1388WAT     H1 4406   3.460   2.973   4.738
 1388WAT     H2 4407   3.395   3.078   4.632
 1389WAT      O 4408   5.577   8.035   0.797
 1389WAT     H1 4409   5.639   7.966   0.833
 1389WAT     H2 4410   5.577   8.115   0.857
 1390WAT      O 4411   0.913   7.482   7.577
 1390WAT     H1 4412   0.910   7.539   7.660
 1390WAT     H2 4413   0.820   7.452   7.555
 1391WAT      O 4414   9.431   1.262   7.474
 1391WAT     H1 4415   9.458   1.183   7.419
 1391WAT     H2 4416   9.476   1.258   7.563
 1392WAT      O 4417   5.892   6.328   9.280
 1392WAT     H1 4418   5.891   6.311   9.182
 1392WAT     H2 4419   5.842   6.255   9.327
 1393WAT      O 4420   3.737   2.038   4.456
 1393WAT     H1 4421   3.689   1.978   4.393
 1393WAT     H2 4422   3.744   1.994   4.546
 1394WAT      O 4423   5.263   8.791   9.121
 1394WAT     H1 4424   5.291   8.699   9.093
 1394WAT     H2 4425   5.322   8.859   9.079
 1395WAT      O 4426   8.704   9.430   5.201
 1395WAT     H1 4427   8.630   9.446   5.266
 1395WAT     H2 4428   8.678   9.356   5.139
 1396WAT      O 4429   5.479   0.624   3.037
 1396WAT     H1 4430   5.518   0.542   2.996
 1396WAT     H2 4431   5.409   0.663   2.976
 1397WAT      O 4432   2.117   4.075   6.167
 1397WAT     H1 4433   2.123   4.121   6.078
 1397WAT     H2 4434   2.183   4.116   6.230
 1398WAT      O 4435   4.254   7.620   5.792
 1398WAT     H1 4436   4.177   7.614   5.857
 1398WAT     H2 4437   4.312   7.539   5.801
 1399WAT      O 4438   4.303   3.144   9.137
 1399WAT     H1 4439   4.267   3.153   9.043
 1399WAT     H2 4440   4.241   3.189   9.201
 1400WAT      O 4441   3.832   9.261   8.966
 1400WAT     H1 4442   3.820   9.220   8.876
 1400WAT     H2 4443   3.930   9.278   8.982
 1401WAT      O 4444   6.740   0.948   6.621
 1401WAT     H1 4445   6.785   0.884   6.558
 1401WAT     H2 4446   6.652   0.910   6.649
 1402WAT      O 4447   9.182   8.419   2.294
 1402WAT     H1 4448   9.268   8.393   2.339
 1402WAT     H2 4449   9.149   8.505   2.332
 1403WAT      O 4450   8.722   6.916   1.254
 1403WAT     H1 4451   8.684   6.905   1.346
 1403WAT     H2 4452   8.786   6.842   1.235
 1404WAT      O 4453   6.853   9.622   9.320
 1404WAT     H1 4454   6.802   9.560   9.379
 1404WAT     H2 4455   6.795   9.700   9.295
 1405WAT      O 4456   3.467   5.787   0.440
 1405WAT     H1 4457   3.553   5.738   0.450
 1405WAT     H2 4458   3.394   5.737   0.488
 1406WAT      O 4459   1.311   8.622   4.782
 1406WAT     H1 4460   1.356   8.607   4.870
 1406WAT     H2 4461   1.289   8.533   4.740
 1407WAT      O 4462   2.116   5.550   7.188
 1407WAT     H1 4463   2.137   5.578   7.094
 1407WAT     H2 4464   2.159   5.461   7.206
 1408WAT      O 4465   7.701   6.176   9.334
 1408WAT     H1 4466   7.625   6.192   9.272
 1408WAT     H2 4467   7.668   6.174   9.428
 1409WAT      O 4468   2.285   0.339   8.743
 1409WAT     H1 4469   2.355   0.405   8.771
 1409WAT     H2 4470   2.195   0.371   8.774
 1410WAT      O 4471   0.339   2.158   4.520
 1410WAT     H1 4472   0.291   2.124   4.439
 1410WAT     H2 4473   0.438   2.154   4.504
 1411WAT      O 4474   0.087   6.720   2.124
 1411WAT     H1 4475  -0.010   6.738   2.141
 1411WAT     H2 4476   0.134   6.710   2.212
 1412WAT      O 4477   7.427   6.345   7.023
 1412WAT     H1 4478   7.331   6.323   7.042
 1412WAT     H2 4479   7.433   6.435   6.980
 1413WAT      O 4480   5.836   6.394   0.997
 1413WAT     H1 4481   5.804   6.479   1.039
 1413WAT     H2 4482   5.929   6.374   1.030
 1414WAT      O 4483   2.323   6.259   4.752
 1414WAT     H1 4484   2.310   6.181   4.812
 1414WAT     H2 4485   2.255   6.329   4.773
 1415WAT      O 4486   5.308   4.822   5.121
 1415WAT     H1 4487   5.369   4.749   5.092
 1415WAT     H2 4488   5.236   4.783   5.179
 1416WAT      O 4489   3.904   6.331   1.899
 1416WAT     H1 4490   3.822   6.284   1.866
 1416WAT     H2 4491   3.966   6.264   1.939
 1417WAT      O 4492   9.155   7.411   2.897
 1417WAT     H1 4493   9.091   7.435   2.824
 1417WAT     H2 4494   9.181   7.494   2.947
 1418WAT      O 4495   0.429   7.714   6.015
 1418WAT     H1 4496   0.349   7.756   6.059
 1418WAT     H2 4497   0.469   7.646   6.077
 1419WAT      O 4498   3.211   9.098   3.694
 1419WAT     H1 4499   3.123   9.144   3.683
 1419WAT     H2 4500   3.280   9.163   3.725
 1420WAT      O 4501   7.381   8.255   3.915
 1420WAT     H1 4502   7.345   8.342   3.882
 1420WAT     H2 4503   7.306   8.189   3.924
 1421WAT      O 4504   8.646   6.178   2.740
 1421WAT     H1 4505   8.557   6.161   2.697
 1421WAT     H2 4506   8.707   6.221   2.674
 1422WAT      O 4507   7.733   1.908   9.304
 1422WAT     H1 4508   7.691   1.943   9.388
 1422WAT     H2 4509   7.666   1.911   9.230
 1423WAT      O 4510   5.073   6.709   5.388
 1423WAT     H1 4511   5.015   6.628   5.379
 1423WAT     H2 4512   5.124   6.723   5.302
 1424WAT      O 4513   4.956   0.725   4.562
 1424WAT     H1 4514   4.986   0.802   4.506
 1424WAT     H2 4515   4.975   0.639   4.514
 1425WAT      O 4516   0.255   4.715   8.669
 1425WAT     H1 4517   0.341   4.742   8.626
 1425WAT     H2 4518   0.204   4.796   8.695
 1426WAT      O 4519   3.261   7.821   0.208
 1426WAT     H1 4520   3.181   7.781   0.163
 1426WAT     H2 4521   3.292   7.901   0.157
 1427WAT      O 4522   2.342   8.094   0.988
 1427WAT     H1 4523   2.389   8.176   1.021
 1427WAT     H2 4524   2.285   8.058   1.061
 1428WAT      O 4525   5.917   1.704   8.515
 1428WAT     H1 4526   5.920   1.630   8.582
 1428WAT     H2 4527   5.835   1.695   8.458
 1429WAT      O 4528   7.816   9.765   4.102
 1429WAT     H1 4529   7.765   9.682   4.124
 1429WAT     H2 4530   7.817   9.825   4.182
 1430WAT      O 4531   8.292   5.247   5.198
 1430WAT     H1 4532   8.208   5.287   5.236
 1430WAT     H2 4533   8.351   5.217   5.273
 1431WAT      O 4534   0.977   5.857   6.247
 1431WAT     H1 4535   0.922   5.843   6.165
 1431WAT     H2 4536   0.929   5.918   6.309
 1432WAT      O 4537   0.990   9.457   7.410
 1432WAT     H1 4538   1.062   9.513   7.370
 1432WAT     H2 4539   0.984   9.370   7.361
 1433WAT      O 4540   4.966   1.723   0.801
 1433WAT     H1 4541   4.967   1.823   0.794
 1433WAT     H2 4542   4.955   1.697   0.897
 1434WAT      O 4543   3.031   6.197   3.729
 1434WAT     H1 4544   2.982   6.116   3.698
 1434WAT     H2 4545   2.971   6.277   3.726
 1435WAT      O 4546   0.731   7.311   5.611
 1435WAT     H1 4547   0.751   7.252   5.533
 1435WAT     H2 4548   0.675   7.388   5.582
 1436WAT      O 4549   7.859   5.884   6.836
 1436WAT     H1 4550   7.939   5.931   6.798
 1436WAT     H2 4551   7.786   5.951   6.851
 1437WAT      O 4552   9.544   0.079   3.376
 1437WAT     H1 4553   9.492   0.144   3.431
 1437WAT     H2 4554   9.642   0.090   3.396
 1438WAT      O 4555   8.337   7.368   6.860
 1438WAT     H1 4556   8.272   7.306   6.904
 1438WAT     H2 4557   8.406   7.314   6.811
 1439WAT      O 4558   8.111   2.153   6.594
 1439WAT     H1 4559   8.204   2.181   6.569
 1439WAT     H2 4560   8.110   2.056   6.615
 1440WAT      O 4561   8.184   3.652   3.429
 1440WAT     H1 4562   8.088   3.633   3.449
 1440WAT     H2 4563   8.215   3.594   3.354
 1441WAT      O 4564   2.185   3.077   3.998
 1441WAT     H1 4565   2.160   2.987   4.034
 1441WAT     H2 4566   2.152   3.149   4.059
 1442WAT      O 4567   1.130   0.102   4.958
 1442WAT     H1 4568   1.103   0.097   5.055
 1442WAT     H2 4569   1.067   0.161   4.909
 1443WAT      O 4570   3.529   8.628   3.367
 1443WAT     H1 4571   3.437   8.650   3.399
 1443WAT     H2 4572   3.560   8.699   3.304
 1444WAT      O 4573   3.981   0.811   1.661
 1444WAT     H1 4574   4.075   0.777   1.659
 1444WAT     H2 4575   3.930   0.763   1.733
 1445WAT      O 4576   3.878   9.196   2.144
 1445WAT     H1 4577   3.937   9.148   2.079
 1445WAT     H2 4578   3.914   9.185   2.237
 1446WAT      O 4579   6.240   3.318   2.520
 1446WAT     H1 4580   6.328   3.307   2.473
 1446WAT     H2 4581   6.255   3.363   2.608
 1447WAT      O 4582   0.255   3.045   9.622
 1447WAT     H1 4583   0.246   3.015   9.717
 1447WAT     H2 4584   0.288   3.139   9.619
 1448WAT      O 4585   9.478   2.796   5.395
 1448WAT     H1 4586   9.490   2.704   5.431
 1448WAT     H2 4587   9.433   2.853   5.464
 1449WAT      O 4588   8.776   4.172   4.288
 1449WAT     H1 4589   8.731   4.247   4.239
 1449WAT     H2 4590   8.845   4.209   4.351
 1450WAT      O 4591   0.007   7.736   8.886
 1450WAT     H1 4592  -0.007   7.672   8.811
 1450WAT     H2 4593  -0.006   7.688   8.973
 1451WAT      O 4594   6.285   5.733   3.987
 1451WAT     H1 4595   6.300   5.635   3.973
 1451WAT     H2 4596   6.304   5.781   3.901
 1452WAT      O 4597   4.246   0.260   0.320
 1452WAT     H1 4598   4.292   0.199   0.256
 1452WAT     H2 4599   4.304   0.273   0.401
 1453WAT      O 4600   9.463   2.904   6.723
 1453WAT     H1 4601   9.408   2.987   6.737
 1453WAT     H2 4602   9.479   2.891   6.625
 1454WAT      O 4603   4.750   7.768   1.100
 1454WAT     H1 4604   4.685   7.833   1.060
 1454WAT     H2 4605   4.839   7.814   1.112
 1455WAT      O 4606   0.119   0.853   3.348
 1455WAT     H1 4607   0.060   0.875   3.426
 1455WAT     H2 4608   0.215   0.853   3.378
 1456WAT      O 4609   0.277   8.164   9.411
 1456WAT     H1 4610   0.309   8.167   9.505
 1456WAT     H2 4611   0.352   8.138   9.350
 1457WAT      O 4612   5.412   1.589   3.784
 1457WAT     H1 4613   5.438   1.649   3.860
 1457WAT     H2 4614   5.314   1.599   3.767
 1458WAT      O 4615   8.998   3.286   2.392
 1458WAT     H1 4616   8.900   3.280   2.372
 1458WAT     H2 4617   9.017   3.368   2.446
 1459WAT      O 4618   9.761   5.090   5.926
 1459WAT     H1 4619   9.826   5.040   5.869
 1459WAT     H2 4620   9.728   5.030   5.999
 1460WAT      O 4621   3.211   4.329   5.388
 1460WAT     H1 4622   3.277   4.333   5.463
 1460WAT     H2 4623   3.118   4.340   5.423
 1461WAT      O 4624   1.156   9.259   3.738
 1461WAT     H1 4625   1.193   9.175   3.777
 1461WAT     H2 4626   1.208   9.283   3.656
 1462WAT      O 4627   6.585   8.989   2.499
 1462WAT     H1 4628   6.641   8.924   2.550
 1462WAT     H2 4629   6.494   8.994   2.541
 1463WAT      O 4630   1.111   5.169   8.527
 1463WAT     H1 4631   1.047   5.097   8.499
 1463WAT     H2 4632   1.203   5.131   8.530
 1464WAT      O 4633   0.745   8.109   9.311
 1464WAT     H1 4634   0.771   8.179   9.244
 1464WAT     H2 4635   0.826   8.082   9.363
 1465WAT      O 4636   8.328   8.204   1.950
 1465WAT     H1 4637   8.370   8.255   2.025
 1465WAT     H2 4638   8.257   8.260   1.908
 1466WAT      O 4639   5.438   8.041   3.086
 1466WAT     H1 4640   5.464   7.960   3.138
 1466WAT     H2 4641   5.455   8.123   3.140
 1467WAT      O 4642   2.955   8.071   2.622
 1467WAT     H1 4643   2.967   8.082   2.720
 1467WAT     H2 4644   2.997   7.986   2.592
 1468WAT      O 4645   2.679   4.441   2.244
 1468WAT     H1 4646   2.646   4.447   2.339
 1468WAT     H2 4647   2.754   4.506   2.231
 1469WAT      O 4648   8.751   2.914   4.499
 1469WAT     H1 4649   8.666   2.964   4.483
 1469WAT     H2 4650   8.822   2.978   4.531
 1470WAT      O 4651   1.318   4.133   6.674
 1470WAT     H1 4652   1.231   4.180   6.686
 1470WAT     H2 4653   1.380   4.158   6.748
 1471WAT      O 4654   4.522   9.607   0.309
 1471WAT     H1 4655   4.475   9.681   0.358
 1471WAT     H2 4656   4.568   9.645   0.228
 1472WAT      O 4657   0.503   2.449   6.171
 1472WAT     H1 4658   0.548   2.367   6.136
 1472WAT     H2 4659   0.493   2.515   6.097
 1473WAT      O 4660   3.028   4.516   8.292
 1473WAT     H1 4661   2.987   4.600   8.326
 1473WAT     H2 4662   3.022   4.445   8.363
 1474WAT      O 4663   1.247   4.364   8.449
 1474WAT     H1 4664   1.265   4.369   8.547
 1474WAT     H2 4665   1.164   4.310   8.433
 1475WAT      O 4666   7.433   8.550   7.077
 1475WAT     H1 4667   7.487   8.484   7.128
 1475WAT     H2 4668   7.366   8.502   7.020
 1476WAT      O 4669   0.424   5.575   5.752
 1476WAT     H1 4670   0.415   5.674   5.751
 1476WAT     H2 4671   0.386   5.539   5.838
 1477WAT      O 4672   4.372   7.407   6.398
 1477WAT     H1 4673   4.470   7.394   6.411
 1477WAT     H2 4674   4.323   7.375   6.478
 1478WAT      O 4675   0.176   1.525   1.340
 1478WAT     H1 4676   0.083   1.547   1.309
 1478WAT     H2 4677   0.206   1.593   1.406
 1479WAT      O 4678   5.144   5.509   2.509
 1479WAT     H1 4679   5.231   5.493   2.462
 1479WAT     H2 4680   5.148   5.471   2.601
 1480WAT      O 4681   8.461   5.850   1.224
 1480WAT     H1 4682   8.510   5.859   1.311
 1480WAT     H2 4683   8.485   5.926   1.165
 1481WAT      O 4684   5.026   0.064   1.285
 1481WAT     H1 4685   5.124   0.085   1.297
 1481WAT     H2 4686   4.973   0.147   1.298
 1482WAT      O 4687   0.461   3.613   8.381
 1482WAT     H1 4688   0.422   3.670   8.309
 1482WAT     H2 4689   0.537   3.661   8.424
 1483WAT      O 4690   5.664   6.735   9.396
 1483WAT     H1 4691   5.660   6.731   9.296
 1483WAT     H2 4692   5.654   6.643   9.433
 1484WAT      O 4693   7.944   8.321   7.976
 1484WAT     H1 4694   7.875   8.348   8.043
 1484WAT     H2 4695   8.016   8.268   8.022
 1485WAT      O 4696   7.055   5.993   0.107
 1485WAT     H1 4697   6.989   6.050   0.155
 1485WAT     H2 4698   7.110   6.049   0.045
 1486WAT      O 4699   5.729   1.693   6.825
 1486WAT     H1 4700   5.787   1.612   6.821
 1486WAT     H2 4701   5.672   1.689   6.907
 1487WAT      O 4702   4.692   6.118   1.845
 1487WAT     H1 4703   4.714   6.044   1.909
 1487WAT     H2 4704   4.603   6.101   1.803
 1488WAT      O 4705   6.996   4.884   0.968
 1488WAT     H1 4706   6.993   4.984   0.974
 1488WAT     H2 4707   7.090   4.852   0.979
 1489WAT      O 4708   6.711   5.409   0.298
 1489WAT     H1 4709   6.626   5.453   0.270
 1489WAT     H2 4710   6.747   5.453   0.380
 1490WAT      O 4711   5.780   1.804   3.175
 1490WAT     H1 4712   5.830   1.871   3.120
 1490WAT     H2 4713   5.790   1.713   3.135
 1491WAT      O 4714   7.314   8.653   4.967
 1491WAT     H1 4715   7.243   8.676   5.034
 1491WAT     H2 4716   7.402   8.644   5.012
 1492WAT      O 4717   8.052   1.936   8.531
 1492WAT     H1 4718   7.963   1.963   8.493
 1492WAT     H2 4719   8.123   1.997   8.496
 1493WAT      O 4720   3.713   9.714   1.480
 1493WAT     H1 4721   3.734   9.758   1.567
 1493WAT     H2 4722   3.616   9.693   1.475
 1494WAT      O 4723   9.193   6.483   1.512
 1494WAT     H1 4724   9.094   6.491   1.506
 1494WAT     H2 4725   9.236   6.558   1.462
 1495WAT      O 4726   3.812   2.579   5.141
 1495WAT     H1 4727   3.849   2.524   5.217
 1495WAT     H2 4728   3.883   2.592   5.072
 1496WAT      O 4729   1.028   7.270   5.416
 1496WAT     H1 4730   1.009   7.368   5.419
 1496WAT     H2 4731   0.957   7.225   5.362
 1497WAT      O 4732   1.517   5.996   0.911
 1497WAT     H1 4733   1.497   6.093   0.924
 1497WAT     H2 4734   1.483   5.944   0.989
 1498WAT      O 4735   9.591   0.621   8.724
 1498WAT     H1 4736   9.534   0.591   8.647
 1498WAT     H2 4737   9.633   0.709   8.702
 1499WAT      O 4738   6.974   7.956   0.901
 1499WAT     H1 4739   7.001   8.034   0.958
 1499WAT     H2 4740   7.040   7.881   0.913
 1500WAT      O 4741   7.741   3.452   4.651
 1500WAT     H1 4742   7.741   3.361   4.610
 1500WAT     H2 4743   7.820   3.461   4.713
 1501WAT      O 4744   8.339   5.348   4.775
 1501WAT     H1 4745   8.415   5.356   4.839
 1501WAT     H2 4746   8.346   5.420   4.705
 1502WAT      O 4747   2.375   2.345   2.569
 1502WAT     H1 4748   2.332   2.258   2.590
 1502WAT     H2 4749   2.362   2.366   2.472
 1503WAT      O 4750   9.611   5.059   2.112
 1503WAT     H1 4751   9.524   5.019   2.140
 1503WAT     H2 4752   9.687   5.006   2.150
 1504WAT      O 4753   6.176   4.659   4.850
 1504WAT     H1 4754   6.076   4.656   4.855
 1504WAT     H2 4755   6.207   4.608   4.770
 1505WAT      O 4756   2.006   8.950   2.561
 1505WAT     H1 4757   2.088   8.907   2.600
 1505WAT     H2 4758   1.937   8.880   2.544
 1506WAT      O 4759   5.648   9.526   7.663
 1506WAT     H1 4760   5.591   9.450   7.693
 1506WAT     H2 4761   5.591   9.608   7.652
 1507WAT      O 4762   3.521   3.164   8.895
 1507WAT     H1 4763   3.598   3.174   8.831
 1507WAT     H2 4764   3.548   3.102   8.968
 1508WAT      O 4765   8.491   1.662   1.686
 1508WAT     H1 4766   8.486   1.562   1.682
 1508WAT     H2 4767   8.484   1.693   1.780
 1509WAT      O 4768   2.106   1.828   0.244
 1509WAT     H1 4769   2.042   1.786   0.309
 1509WAT     H2 4770   2.073   1.813   0.151
 1510WAT      O 4771   4.354   5.440   2.489
 1510WAT     H1 4772   4.320   5.469   2.579
 1510WAT     H2 4773   4.372   5.520   2.432
 1511WAT      O 4774   6.386   0.630   2.315
 1511WAT     H1 4775   6.470   0.673   2.283
 1511WAT     H2 4776   6.308   0.689   2.295
 1512WAT      O 4777   5.979   7.044   4.885
 1512WAT     H1 4778   5.992   6.947   4.866
 1512WAT     H2 4779   6.062   7.081   4.925
 1513WAT      O 4780   7.304   4.961   4.236
 1513WAT     H1 4781   7.293   4.988   4.141
 1513WAT     H2 4782   7.231   4.897   4.262
 1514WAT      O 4783   6.307   8.846   5.924
 1514WAT     H1 4784   6.398   8.815   5.898
 1514WAT     H2 4785   6.244   8.768   5.928
 1515WAT      O 4786   3.371   5.225   5.123
 1515WAT     H1 4787   3.356   5.148   5.062
 1515WAT     H2 4788   3.393   5.192   5.215
 1516WAT      O 4789   6.291   7.047   1.857
 1516WAT     H1 4790   6.300   7.079   1.951
 1516WAT     H2 4791   6.381   7.023   1.821
 1517WAT      O 4792   7.717   1.591   8.542
 1517WAT     H1 4793   7.761   1.610   8.630
 1517WAT     H2 4794   7.785   1.558   8.477
 1518WAT      O 4795   3.342   4.152   0.466
 1518WAT     H1 4796   3.285   4.234   0.467
 1518WAT     H2 4797   3.298   4.081   0.520
 1519WAT      O 4798   3.678   8.132   4.396
 1519WAT     H1 4799   3.587   8.135   4.354
 1519WAT     H2 4800   3.712   8.225   4.410
 1520WAT      O 4801   3.934   9.164   0.242
 1520WAT     H1 4802   3.888   9.240   0.195
 1520WAT     H2 4803   3.926   9.081   0.187
 1521WAT      O 4804   8.533   8.111   8.539
 1521WAT     H1 4805   8.552   8.026   8.588
 1521WAT     H2 4806   8.466   8.165   8.590
 1522WAT      O 4807   7.012   5.189   6.167
 1522WAT     H1 4808   7.012   5.190   6.267
 1522WAT     H2 4809   7.013   5.282   6.133
 1523WAT      O 4810   8.043   2.261   3.415
 1523WAT     H1 4811   8.028   2.354   3.450
 1523WAT     H2 4812   7.955   2.214   3.409
 1524WAT      O 4813   6.495   9.591   0.835
 1524WAT     H1 4814   6.586   9.551   0.828
 1524WAT     H2 4815   6.468   9.594   0.932
 1525WAT      O 4816   0.260   2.125   5.105
 1525WAT     H1 4817   0.267   2.059   5.180
 1525WAT     H2 4818   0.208   2.205   5.137
 1526WAT      O 4819   9.650   8.045   0.089
 1526WAT     H1 4820   9.577   8.009   0.148
 1526WAT     H2 4821   9.612   8.115   0.028
 1527WAT      O 4822   9.151   4.812   9.358
 1527WAT     H1 4823   9.123   4.740   9.422
 1527WAT     H2 4824   9.168   4.897   9.409
 1528WAT      O 4825   5.435   6.314   1.497
 1528WAT     H1 4826   5.411   6.223   1.530
 1528WAT     H2 4827   5.529   6.314   1.464
 1529WAT      O 4828   5.742   0.849   4.489
 1529WAT     H1 4829   5.653   0.828   4.528
 1529WAT     H2 4830   5.732   0.866   4.391
 1530WAT      O 4831   5.800   5.010   0.596
 1530WAT     H1 4832   5.814   4.911   0.588
 1530WAT     H2 4833   5.703   5.031   0.580
 1531WAT      O 4834   1.456   3.589   1.186
 1531WAT     H1 4835   1.384   3.557   1.124
 1531WAT     H2 4836   1.491   3.677   1.154
 1532WAT      O 4837   6.926   3.494   8.931
 1532WAT     H1 4838   6.913   3.499   8.832
 1532WAT     H2 4839   6.891   3.578   8.973
 1533WAT      O 4840   5.846   3.757   0.007
 1533WAT     H1 4841   5.800   3.807  -0.066
 1533WAT     H2 4842   5.941   3.788   0.014
 1534WAT      O 4843   8.165   6.846   5.282
 1534WAT     H1 4844   8.222   6.847   5.199
 1534WAT     H2 4845   8.218   6.806   5.357
 1535WAT      O 4846   5.712   5.919   6.587
 1535WAT     H1 4847   5.704   5.824   6.616
 1535WAT     H2 4848   5.730   5.923   6.489
 1536WAT      O 4849   5.968   4.085   7.829
 1536WAT     H1 4850   5.954   3.987   7.814
 1536WAT     H2 4851   5.917   4.137   7.760
 1537WAT      O 4852   9.476   5.675   6.603
 1537WAT     H1 4853   9.570   5.672   6.569
 1537WAT     H2 4854   9.462   5.601   6.668
 1538WAT      O 4855   2.555   3.500   7.529
 1538WAT     H1 4856   2.637   3.525   7.479
 1538WAT     H2 4857   2.475   3.505   7.468
 1539WAT      O 4858   0.077   0.650   2.941
 1539WAT     H1 4859   0.126   0.721   2.889
 1539WAT     H2 4860   0.007   0.609   2.883
 1540WAT      O 4861   7.606   3.380   7.941
 1540WAT     H1 4862   7.532   3.320   7.971
 1540WAT     H2 4863   7.660   3.407   8.021
 1541WAT      O 4864   8.619   6.088   1.129
 1541WAT     H1 4865   8.697   6.099   1.068
 1541WAT     H2 4866   8.650   6.086   1.223
 1542WAT      O 4867   5.447   0.810   9.451
 1542WAT     H1 4868   5.474   0.785   9.545
 1542WAT     H2 4869   5.371   0.752   9.423
 1543WAT      O 4870   7.919   8.108   8.259
 1543WAT     H1 4871   8.017   8.113   8.276
 1543WAT     H2 4872   7.871   8.178   8.312
 1544WAT      O 4873   1.466   5.781   3.529
 1544WAT     H1 4874   1.386   5.726   3.507
 1544WAT     H2 4875   1.548   5.737   3.491
 1545WAT      O 4876   4.122   1.825   2.453
 1545WAT     H1 4877   4.212   1.799   2.488
 1545WAT     H2 4878   4.052   1.802   2.522
 1546WAT      O 4879   5.097   2.359   4.691
 1546WAT     H1 4880   5.055   2.400   4.610
 1546WAT     H2 4881   5.036   2.288   4.727
 1547WAT      O 4882   8.543   2.577   3.453
 1547WAT     H1 4883   8.575   2.614   3.366
 1547WAT     H2 4884   8.535   2.651   3.520
 1548WAT      O 4885   0.732   9.332   4.202
 1548WAT     H1 4886   0.739   9.424   4.164
 1548WAT     H2 4887   0.643   9.293   4.179
 1549WAT      O 4888   0.427   3.088   8.109
 1549WAT     H1 4889   0.414   3.124   8.202
 1549WAT     H2 4890   0.506   3.134   8.067
 1550WAT      O 4891   5.899   6.986   7.243
 1550WAT     H1 4892   5.953   6.915   7.197
 1550WAT     H2 4893   5.887   6.961   7.339
 1551WAT      O 4894   1.957   3.162   2.615
 1551WAT     H1 4895   1.941   3.065   2.631
 1551WAT     H2 4896   1.870   3.207   2.593
 1552WAT      O 4897   4.587   0.828   6.137
 1552WAT     H1 4898   4.647   0.832   6.057
 1552WAT     H2 4899   4.602   0.909   6.194
 1553WAT      O 4900   5.532   2.294   3.893
 1553WAT     H1 4901   5.461   2.350   3.937
 1553WAT     H2 4902   5.517   2.295   3.794
 1554WAT      O 4903   5.659   0.373   9.558
 1554WAT     H1 4904   5.688   0.392   9.464
 1554WAT     H2 4905   5.737   0.340   9.611
 1555WAT      O 4906   8.172   2.707   6.734
 1555WAT     H1 4907   8.088   2.657   6.754
 1555WAT     H2 4908   8.248   2.642   6.728
 1556WAT      O 4909   2.050   2.729   4.502
 1556WAT     H1 4910   2.032   2.642   4.457
 1556WAT     H2 4911   2.129   2.719   4.564
 1557WAT      O 4912   7.893   5.474   2.113
 1557WAT     H1 4913   7.904   5.553   2.174
 1557WAT     H2 4914   7.808   5.426   2.136
 1558WAT      O 4915   3.333   6.270   9.503
 1558WAT     H1 4916   3.373   6.359   9.485
 1558WAT     H2 4917   3.361   6.238   9.593
 1559WAT      O 4918   2.923   1.664   4.316
 1559WAT     H1 4919   2.975   1.662   4.230
 1559WAT     H2 4920   2.937   1.753   4.361
 1560WAT      O 4921   0.665   0.149   7.480
 1560WAT     H1 4922   0.685   0.142   7.577
 1560WAT     H2 4923   0.653   0.246   7.456
 1561WAT      O 4924   9.136   4.299   2.738
 1561WAT     H1 4925   9.039   4.282   2.758
 1561WAT     H2 4926   9.143   4.374   2.672
 1562WAT      O 4927   6.770   5.618   0.975
 1562WAT     H1 4928   6.720   5.554   1.033
 1562WAT     H2 4929   6.861   5.579   0.954
 1563WAT      O 4930   8.734   0.366   4.779
 1563WAT     H1 4931   8.791   0.334   4.704
 1563WAT     H2 4932   8.700   0.458   4.758
 1564WAT      O 4933   2.418   7.238   0.771
 1564WAT     H1 4934   2.410   7.338   0.767
 1564WAT     H2 4935   2.472   7.212   0.851
 1565WAT      O 4936   6.349   8.926   1.986
 1565WAT     H1 4937   6.289   8.989   1.937
 1565WAT     H2 4938   6.370   8.962   2.076
 1566WAT      O 4939   5.554   2.907   9.701
 1566WAT     H1 4940   5.618   2.958   9.759
 1566WAT     H2 4941   5.537   2.817   9.741
 1567WAT      O 4942   7.500   9.406   4.607
 1567WAT     H1 4943   7.558   9.390   4.687
 1567WAT     H2 4944   7.487   9.504   4.594
 1568WAT      O 4945   5.598   5.922   7.234
 1568WAT     H1 4946   5.616   5.947   7.139
 1568WAT     H2 4947   5.602   6.004   7.292
 1569WAT      O 4948   7.420   5.223   6.248
 1569WAT     H1 4949   7.517   5.232   6.268
 1569WAT     H2 4950   7.407   5.161   6.170
 1570WAT      O 4951   6.794   4.539   7.929
 1570WAT     H1 4952   6.880   4.489   7.937
 1570WAT     H2 4953   6.764   4.569   8.020
 1571WAT      O 4954   8.729   3.346   8.789
 1571WAT     H1 4955   8.796   3.288   8.835
 1571WAT     H2 4956   8.772   3.433   8.764
 1572WAT      O 4957   5.812   5.019   2.524
 1572WAT     H1 4958   5.851   4.965   2.449
 1572WAT     H2 4959   5.821   5.116   2.504
 1573WAT      O 4960   7.317   2.787   0.441
 1573WAT     H1 4961   7.311   2.691   0.470
 1573WAT     H2 4962   7.262   2.844   0.503
 1574WAT      O 4963   1.699   0.647   9.837
 1574WAT     H1 4964   1.712   0.719   9.905
 1574WAT     H2 4965   1.601   0.626   9.830
 1575WAT      O 4966   4.980   7.317   3.028
 1575WAT     H1 4967   4.998   7.264   3.111
 1575WAT     H2 4968   5.008   7.412   3.043
 1576WAT      O 4969   3.142   5.033   3.610
 1576WAT     H1 4970   3.072   5.077   3.666
 1576WAT     H2 4971   3.215   4.999   3.669
 1577WAT      O 4972   3.563   1.811   5.663
 1577WAT     H1 4973   3.652   1.857   5.670
 1577WAT     H2 4974   3.577   1.712   5.654
 1578WAT      O 4975   0.071   0.033   9.156
 1578WAT     H1 4976   0.113   0.099   9.094
 1578WAT     H2 4977   0.140  -0.033   9.187
 1579WAT      O 4978   0.954   8.902   5.826
 1579WAT     H1 4979   0.912   8.956   5.899
 1579WAT     H2 4980   1.029   8.954   5.786
 1580WAT      O 4981   6.064   3.508   5.923
 1580WAT     H1 4982   5.984   3.449   5.917
 1580WAT     H2 4983   6.041   3.598   5.885
 1581WAT      O 4984   7.984   3.684   1.404
 1581WAT     H1 4985   7.928   3.741   1.344
 1581WAT     H2 4986   7.936   3.598   1.423
 1582WAT      O 4987   4.215   5.430   6.936
 1582WAT     H1 4988   4.232   5.523   6.902
 1582WAT     H2 4989   4.200   5.434   7.035
 1583WAT      O 4990   5.094   5.098   2.146
 1583WAT     H1 4991   5.067   5.003   2.130
 1583WAT     H2 4992   5.179   5.117   2.096
 1584WAT      O 4993   6.216   4.925   5.543
 1584WAT     H1 4994   6.189   5.013   5.584
 1584WAT     H2 4995   6.150   4.901   5.472
 1585WAT      O 4996   5.321   6.798   3.435
 1585WAT     H1 4997   5.385   6.726   3.461
 1585WAT     H2 4998   5.335   6.878   3.493
 1586WAT      O 4999   5.581   0.724   6.568
 1586WAT     H1 5000   5.651   0.721   6.497
 1586WAT     H2 5001   5.613   0.673   6.648
 1587WAT      O 5002   9.878   8.440   5.265
 1587WAT     H1 5003   9.882   8.347   5.302
 1587WAT     H2 5004   9.799   8.488   5.302
 1588WAT      O 5005   2.053   4.237   2.721
 1588WAT     H1 5006   2.133   4.257   2.664
 1588WAT     H2 5007   2.082   4.226   2.816
 1589WAT      O 5008   6.956   3.042   9.503
 1589WAT     H1 5009   7.002   3.110   9.446
 1589WAT     H2 5010   6.967   2.951   9.462
 1590WAT      O 5011   6.914   4.210   7.375
 1590WAT     H1 5012   6.942   4.122   7.413
 1590WAT     H2 5013   6.976   4.281   7.407
 1591WAT      O 5014   9.215   9.578   1.509
 1591WAT     H1 5015   9.286   9.535   1.454
 1591WAT     H2 5016   9.201   9.525   1.593
 1592WAT      O 5017   4.954   5.967   2.335
 1592WAT     H1 5018   4.872   5.920   2.368
 1592WAT     H2 5019   5.031   5.903   2.336
 1593WAT      O 5020   3.866   7.226   6.693
 1593WAT     H1 5021   3.900   7.319   6.679
 1593WAT     H2 5022   3.914   7.184   6.770
 1594WAT      O 5023   5.379   2.038   3.062
 1594WAT     H1 5024   5.391   1.942   3.034
 1594WAT     H2 5025   5.339   2.040   3.153
 1595WAT      O 5026   6.737   1.006   0.495
 1595WAT     H1 5027   6.695   1.093   0.470
 1595WAT     H2 5028   6.706   0.980   0.586
 1596WAT      O 5029   7.037   5.762   5.940
 1596WAT     H1 5030   6.970   5.725   5.876
 1596WAT     H2 5031   7.077   5.688   5.994
 1597WAT      O 5032   3.171   6.190   8.748
 1597WAT     H1 5033   3.145   6.097   8.774
 1597WAT     H2 5034   3.199   6.241   8.829
 1598WAT      O 5035   7.062   5.748   9.652
 1598WAT     H1 5036   7.037   5.657   9.621
 1598WAT     H2 5037   7.003   5.775   9.728
 1599WAT      O 5038   9.560   7.893   7.833
 1599WAT     H1 5039   9.618   7.876   7.754
 1599WAT     H2 5040   9.611   7.946   7.901
 1600WAT      O 5041   0.518   5.204   7.665
 1600WAT     H1 5042   0.491   5.119   7.710
 1600WAT     H2 5043   0.485   5.204   7.571
 1601WAT      O 5044   0.078   1.674   2.377
 1601WAT     H1 5045   0.177   1.686   2.371
 1601WAT     H2 5046   0.036   1.693   2.289
 1602WAT      O 5047   7.373   7.354   3.320
 1602WAT     H1 5048   7.342   7.423   3.386
 1602WAT     H2 5049   7.435   7.290   3.365
 1603WAT      O 5050   3.981   8.870   9.213
 1603WAT     H1 5051   4.001   8.772   9.211
 1603WAT     H2 5052   3.966   8.899   9.307
 1604WAT      O 5053   0.277   7.175   6.362
 1604WAT     H1 5054   0.322   7.108   6.303
 1604WAT     H2 5055   0.340   7.201   6.436
 1605WAT      O 5056   4.865   6.620   8.277
 1605WAT     H1 5057   4.913   6.691   8.225
 1605WAT     H2 5058   4.915   6.533   8.269
 1606WAT      O 5059   3.063   8.432   6.542
 1606WAT     H1 5060   3.034   8.349   6.494
 1606WAT     H2 5061   3.095   8.408   6.634
 1607WAT      O 5062   3.436   6.092   3.623
 1607WAT     H1 5063   3.442   6.185   3.585
 1607WAT     H2 5064   3.428   6.026   3.548
 1608WAT      O 5065   1.618   2.043   4.995
 1608WAT     H1 5066   1.648   2.001   5.081
 1608WAT     H2 5067   1.526   2.010   4.973
 1609WAT      O 5068   8.794   0.832   1.996
 1609WAT     H1 5069   8.764   0.745   2.034
 1609WAT     H2 5070   8.820   0.894   2.069
 1610WAT      O 5071   8.364   7.655   5.287
 1610WAT     H1 5072   8.384   7.560   5.265
 1610WAT     H2 5073   8.265   7.669   5.290
 1611WAT      O 5074   1.144   3.847   0.925
 1611WAT     H1 5075   1.120   3.866   1.020
 1611WAT     H2 5076   1.068   3.801   0.880
 1612WAT      O 5077   1.119   3.345   0.341
 1612WAT     H1 5078   1.032   3.389   0.318
 1612WAT     H2 5079   1.172   3.330   0.257
 1613WAT      O 5080   0.376   7.998   5.083
 1613WAT     H1 5081   0.423   7.986   4.995
 1613WAT     H2 5082   0.361   7.909   5.126
 1614WAT      O 5083   6.630   4.239   6.999
 1614WAT     H1 5084   6.674   4.186   6.926
 1614WAT     H2 5085   6.700   4.284   7.054
 1615WAT      O 5086   0.122   9.075   6.384
 1615WAT     H1 5087   0.159   9.128   6.308
 1615WAT     H2 5088   0.102   8.982   6.353
 1616WAT      O 5089   0.424   6.695   6.334
 1616WAT     H1 5090   0.503   6.733   6.285
 1616WAT     H2 5091   0.455   6.622   6.395
 1617WAT      O 5092   7.690   6.955   4.908
 1617WAT     H1 5093   7.684   6.909   4.997
 1617WAT     H2 5094   7.628   6.910   4.843
 1618WAT      O 5095   0.929   1.888   4.643
 1618WAT     H1 5096   0.884   1.976   4.625
 1618WAT     H2 5097   0.923   1.867   4.740
 1619WAT      O 5098   7.352   9.561   9.358
 1619WAT     H1 5099   7.343   9.461   9.359
 1619WAT     H2 5100   7.267   9.602   9.326
 1620WAT      O 5101   4.547   3.034   2.364
 1620WAT     H1 5102   4.533   3.125   2.324
 1620WAT     H2 5103   4.557   3.044   2.463
 1621WAT      O 5104   7.376   2.875   0.188
 1621WAT     H1 5105   7.354   2.856   0.283
 1621WAT     H2 5106   7.432   2.958   0.182
 1622WAT      O 5107   5.519   3.626   8.128
 1622WAT     H1 5108   5.511   3.527   8.121
 1622WAT     H2 5109   5.428   3.667   8.127
 1623WAT      O 5110   9.308   1.359   0.558
 1623WAT     H1 5111   9.377   1.287   0.566
 1623WAT     H2 5112   9.340   1.429   0.494
 1624WAT      O 5113   1.491   6.973   5.856
 1624WAT     H1 5114   1.513   6.968   5.953
 1624WAT     H2 5115   1.562   7.025   5.808
 1625WAT      O 5116   3.765   6.925   5.584
 1625WAT     H1 5117   3.714   7.005   5.551
 1625WAT     H2 5118   3.861   6.933   5.556
 1626WAT      O 5119   8.089   1.559   8.990
 1626WAT     H1 5120   8.140   1.488   8.940
 1626WAT     H2 5121   8.084   1.534   9.086
 1627WAT      O 5122   7.275   2.938   2.705
 1627WAT     H1 5123   7.269   2.902   2.798
 1627WAT     H2 5124   7.323   3.026   2.706
 1628WAT      O 5125   4.939   6.372   8.603
 1628WAT     H1 5126   4.867   6.399   8.667
 1628WAT     H2 5127   4.901   6.309   8.535
 1629WAT      O 5128   7.547   3.408   9.037
 1629WAT     H1 5129   7.528   3.334   9.101
 1629WAT     H2 5130   7.580   3.488   9.087
 1630WAT      O 5131   0.843   8.807   5.605
 1630WAT     H1 5132   0.889   8.749   5.537
 1630WAT     H2 5133   0.908   8.834   5.675
 1631WAT      O 5134   0.799   3.438   7.978
 1631WAT     H1 5135   0.818   3.446   8.076
 1631WAT     H2 5136   0.871   3.382   7.935
 1632WAT      O 5137   9.390   7.292   6.612
 1632WAT     H1 5138   9.348   7.290   6.703
 1632WAT     H2 5139   9.437   7.379   6.599
 1633WAT      O 5140   0.663   7.938   0.815
 1633WAT     H1 5141   0.705   8.018   0.858
 1633WAT     H2 5142   0.629   7.876   0.886
 1634WAT      O 5143   4.576   6.489   0.415
 1634WAT     H1 5144   4.517   6.525   0.487
 1634WAT     H2 5145   4.598   6.394   0.434
 1635WAT      O 5146   0.148   1.036   6.792
 1635WAT     H1 5147   0.054   1.071   6.802
 1635WAT     H2 5148   0.213   1.109   6.813
 1636WAT      O 5149   0.975   9.258   6.971
 1636WAT     H1 5150   1.029   9.340   6.955
 1636WAT     H2 5151   0.884   9.283   7.004
 1637WAT      O 5152   5.520   6.672   3.585
 1637WAT     H1 5153   5.490   6.702   3.675
 1637WAT     H2 5154   5.552   6.577   3.590
 1638WAT      O 5155   2.316   8.973   5.565
 1638WAT     H1 5156   2.278   9.035   5.634
 1638WAT     H2 5157   2.406   8.942   5.594
 1639WAT      O 5158   7.541   5.125   8.265
 1639WAT     H1 5159   7.611   5.160   8.327
 1639WAT     H2 5160   7.533   5.026   8.276
 1640WAT      O 5161   8.915   6.066   6.369
 1640WAT     H1 5162   9.003   6.115   6.364
 1640WAT     H2 5163   8.851   6.108   6.305
 1641WAT      O 5164   8.162   4.404   0.133
 1641WAT     H1 5165   8.126   4.348   0.058
 1641WAT     H2 5166   8.132   4.498   0.120
 1642WAT      O 5167   9.035   5.679   0.134
 1642WAT     H1 5168   9.109   5.733   0.094
 1642WAT     H2 5169   9.039   5.586   0.098
 1643WAT      O 5170   1.137   9.494   7.954
 1643WAT     H1 5171   1.161   9.477   7.858
 1643WAT     H2 5172   1.037   9.504   7.962
 1644WAT      O 5173   9.329   2.179   5.965
 1644WAT     H1 5174   9.329   2.086   6.004
 1644WAT     H2 5175   9.357   2.175   5.870
 1645WAT      O 5176   4.446   3.247   1.233
 1645WAT     H1 5177   4.453   3.259   1.332
 1645WAT     H2 5178   4.527   3.285   1.189
 1646WAT      O 5179   1.741   6.668   6.426
 1646WAT     H1 5180   1.834   6.658   6.391
 1646WAT     H2 5181   1.699   6.577   6.433
 1647WAT      O 5182   9.306   1.064   8.337
 1647WAT     H1 5183   9.379   1.123   8.370
 1647WAT     H2 5184   9.224   1.076   8.392
 1648WAT      O 5185   0.653   3.599   4.559
 1648WAT     H1 5186   0.734   3.634   4.513
 1648WAT     H2 5187   0.593   3.675   4.582
 1649WAT      O 5188   3.660   0.091   3.090
 1649WAT     H1 5189   3.673   0.044   3.002
 1649WAT     H2 5190   3.720   0.170   3.095
 1650WAT      O 5191   4.236   3.840   5.902
 1650WAT     H1 5192   4.183   3.894   5.837
 1650WAT     H2 5193   4.300   3.781   5.853
 1651WAT      O 5194   9.814   9.415   3.728
 1651WAT     H1 5195   9.718   9.389   3.721
 1651WAT     H2 5196   9.850   9.385   3.817
 1652WAT      O 5197   1.746   4.727   6.406
 1652WAT     H1 5198   1.664   4.780   6.384
 1652WAT     H2 5199   1.826   4.771   6.366
 1653WAT      O 5200   0.302   8.920   8.460
 1653WAT     H1 5201   0.288   8.990   8.530
 1653WAT     H2 5202   0.273   8.955   8.371
 1654WAT      O 5203   8.787   0.942   9.051
 1654WAT     H1 5204   8.843   0.979   8.976
 1654WAT     H2 5205   8.734   0.864   9.017
 1655WAT      O 5206   3.415   4.878   3.168
 1655WAT     H1 5207   3.501   4.929   3.166
 1655WAT     H2 5208   3.390   4.859   3.263
 1656WAT      O 5209   3.039   4.781   8.389
 1656WAT     H1 5210   3.122   4.803   8.338
 1656WAT     H2 5211   3.064   4.726   8.469
 1657WAT      O 5212   1.991   8.155   2.956
 1657WAT     H1 5213   2.067   8.113   2.907
 1657WAT     H2 5214   1.910   8.157   2.898
 1658WAT      O 5215   6.998   2.597   5.851
 1658WAT     H1 5216   6.989   2.500   5.872
 1658WAT     H2 5217   7.092   2.617   5.823
 1659WAT      O 5218   4.738   5.393   3.723
 1659WAT     H1 5219   4.686   5.313   3.753
 1659WAT     H2 5220   4.775   5.440   3.803
 1660WAT      O 5221   1.516   4.326   6.578
 1660WAT     H1 5222   1.573   4.381   6.516
 1660WAT     H2 5223   1.461   4.263   6.524
 1661WAT      O 5224   0.726   0.510   2.415
 1661WAT     H1 5225   0.785   0.435   2.445
 1661WAT     H2 5226   0.782   0.592   2.402
 1662WAT      O 5227   8.873   5.192   0.055
 1662WAT     H1 5228   8.849   5.254   0.129
 1662WAT     H2 5229   8.840   5.100   0.076
 1663WAT      O 5230   2.414   5.370   0.574
 1663WAT     H1 5231   2.373   5.285   0.543
 1663WAT     H2 5232   2.514   5.362   0.571
 1664WAT      O 5233   6.013   0.042   4.735
 1664WAT     H1 5234   6.044   0.015   4.826
 1664WAT     H2 5235   6.010  -0.039   4.675
 1665WAT      O 5236   8.373   3.298   4.339
 1665WAT     H1 5237   8.289   3.295   4.394
 1665WAT     H2 5238   8.350   3.280   4.243
 1666WAT      O 5239   7.426   7.041   1.122
 1666WAT     H1 5240   7.519   7.043   1.086
 1666WAT     H2 5241   7.411   7.123   1.178
 1667WAT      O 5242   3.855   1.753   9.450
 1667WAT     H1 5243   3.878   1.755   9.352
 1667WAT     H2 5244   3.939   1.763   9.504
 1668WAT      O 5245   7.323   0.593   5.828
 1668WAT     H1 5246   7.240   0.631   5.787
 1668WAT     H2 5247   7.399   0.656   5.814
 1669WAT      O 5248   0.659   4.732   2.154
 1669WAT     H1 5249   0.678   4.722   2.252
 1669WAT     H2 5250   0.627   4.645   2.117
 1670WAT      O 5251   8.592   5.523   0.802
 1670WAT     H1 5252   8.552   5.595   0.747
 1670WAT     H2 5253   8.575   5.541   0.899
 1671WAT      O 5254   5.237   2.934   7.416
 1671WAT     H1 5255   5.209   3.011   7.359
 1671WAT     H2 5256   5.325   2.899   7.384
 1672WAT      O 5257   7.926   4.389   7.995
 1672WAT     H1 5258   7.932   4.396   7.895
 1672WAT     H2 5259   7.999   4.445   8.036
 1673WAT      O 5260   6.116   6.871   2.272
 1673WAT     H1 5261   6.181   6.816   2.220
 1673WAT     H2 5262   6.037   6.816   2.297
 1674WAT      O 5263   8.796   8.789   4.097
 1674WAT     H1 5264   8.846   8.821   4.017
 1674WAT     H2 5265   8.790   8.689   4.095
 1675WAT      O 5266   7.715   9.295   8.628
 1675WAT     H1 5267   7.719   9.372   8.691
 1675WAT     H2 5268   7.800   9.244   8.631
 1676WAT      O 5269   9.856   8.746   1.743
 1676WAT     H1 5270   9.896   8.817   1.800
 1676WAT     H2 5271   9.856   8.659   1.792
 1677WAT      O 5272   3.171   7.284   2.157
 1677WAT     H1 5273   3.157   7.201   2.211
 1677WAT     H2 5274   3.268   7.290   2.130
 1678WAT      O 5275   2.278   4.953   6.170
 1678WAT     H1 5276   2.224   4.869   6.164
 1678WAT     H2 5277   2.323   4.970   6.082
 1679WAT      O 5278   0.780   8.962   9.181
 1679WAT     H1 5279   0.689   8.996   9.201
 1679WAT     H2 5280   0.802   8.980   9.085
 1680WAT      O 5281   4.468   8.208   9.624
 1680WAT     H1 5282   4.475   8.110   9.644
 1680WAT     H2 5283   4.555   8.241   9.588
 1681WAT      O 5284   8.406   4.115   9.659
 1681WAT     H1 5285   8.395   4.018   9.680
 1681WAT     H2 5286   8.486   4.127   9.600
 1682WAT      O 5287   5.960   9.347   6.959
 1682WAT     H1 5288   5.998   9.410   7.027
 1682WAT     H2 5289   5.976   9.384   6.868
 1683WAT      O 5290   1.662   7.124   6.847
 1683WAT     H1 5291   1.746   7.097   6.799
 1683WAT     H2 5292   1.668   7.221   6.871
 1684WAT      O 5293   0.175   3.377   0.365
 1684WAT     H1 5294   0.152   3.471   0.390
 1684WAT     H2 5295   0.166   3.365   0.266
 1685WAT      O 5296   0.904   1.817   3.830
 1685WAT     H1 5297   0.870   1.907   3.857
 1685WAT     H2 5298   0.918   1.761   3.912
 1686WAT      O 5299   5.124   8.391   3.227
 1686WAT     H1 5300   5.058   8.367   3.156
 1686WAT     H2 5301   5.118   8.324   3.302
 1687WAT      O 5302   4.946   6.531   6.242
 1687WAT     H1 5303   4.862   6.559   6.195
 1687WAT     H2 5304   5.025   6.561   6.188
 1688WAT      O 5305   6.719   9.826   8.326
 1688WAT     H1 5306   6.655   9.783   8.262
 1688WAT     H2 5307   6.705   9.925   8.326
 1689WAT      O 5308   6.440   5.565   7.039
 1689WAT     H1 5309   6.381   5.494   7.079
 1689WAT     H2 5310   6.383   5.629   6.986
 1690WAT      O 5311   7.974   2.214   2.750
 1690WAT     H1 5312   7.961   2.312   2.766
 1690WAT     H2 5313   7.956   2.164   2.834
 1691WAT      O 5314   5.361   2.946   2.637
 1691WAT     H1 5315   5.289   2.879   2.618
 1691WAT     H2 5316   5.391   2.988   2.551
 1692WAT      O 5317   0.357   8.797   6.199
 1692WAT     H1 5318   0.438   8.795   6.141
 1692WAT     H2 5319   0.382   8.831   6.290
 1693WAT      O 5320   1.506   2.170   7.930
 1693WAT     H1 5321   1.492   2.107   8.007
 1693WAT     H2 5322   1.496   2.120   7.844
 1694WAT      O 5323   6.523   7.638   0.379
 1694WAT     H1 5324   6.486   7.727   0.350
 1694WAT     H2 5325   6.520   7.632   0.479
 1695WAT      O 5326   4.539   2.573   7.541
 1695WAT     H1 5327   4.624   2.538   7.580
 1695WAT     H2 5328   4.559   2.636   7.467
 1696WAT      O 5329   4.013   3.211   4.437
 1696WAT     H1 5330   3.927   3.168   4.464
 1696WAT     H2 5331   4.089   3.169   4.486
 1697WAT      O 5332   8.962   1.818   3.673
 1697WAT     H1 5333   8.866   1.822   3.647
 1697WAT     H2 5334   8.969   1.816   3.773
 1698WAT      O 5335   3.177   8.119   8.414
 1698WAT     H1 5336   3.201   8.216   8.402
 1698WAT     H2 5337   3.078   8.111   8.426
 1699WAT      O 5338   6.725   7.193   4.125
 1699WAT     H1 5339   6.727   7.179   4.224
 1699WAT     H2 5340   6.686   7.113   4.080
 1700WAT      O 5341   4.550   5.579   4.578
 1700WAT     H1 5342   4.512   5.488   4.596
 1700WAT     H2 5343   4.650   5.575   4.582
 1701WAT      O 5344   8.969   7.443   0.682
 1701WAT     H1 5345   9.008   7.352   0.669
 1701WAT     H2 5346   8.870   7.434   0.699
 1702WAT      O 5347   9.555   2.980   5.203
 1702WAT     H1 5348   9.631   2.956   5.143
 1702WAT     H2 5349   9.520   2.898   5.248
 1703WAT      O 5350   1.574   0.851   0.360
 1703WAT     H1 5351   1.488   0.898   0.380
 1703WAT     H2 5352   1.591   0.855   0.261
 1704WAT      O 5353   7.390   2.215   5.112
 1704WAT     H1 5354   7.304   2.190   5.156
 1704WAT     H2 5355   7.466   2.194   5.174
 1705WAT      O 5356   4.504   7.274   3.326
 1705WAT     H1 5357   4.587   7.329   3.337
 1705WAT     H2 5358   4.527   7.177   3.333
 1706WAT      O 5359   8.327   7.633   3.078
 1706WAT     H1 5360   8.391   7.695   3.123
 1706WAT     H2 5361   8.377   7.556   3.039
 1707WAT      O 5362   8.992   2.322   4.054
 1707WAT     H1 5363   8.939   2.237   4.055
 1707WAT     H2 5364   8.961   2.381   4.128
 1708WAT      O 5365   2.578   8.036   1.253
 1708WAT     H1 5366   2.518   8.079   1.185
 1708WAT     H2 5367   2.525   7.974   1.310
 1709WAT      O 5368   7.681   7.601   6.154
 1709WAT     H1 5369   7.646   7.693   6.140
 1709WAT     H2 5370   7.725   7.569   6.070
 1710WAT      O 5371   6.679   0.574   4.007
 1710WAT     H1 5372   6.742   0.652   4.003
 1710WAT     H2 5373   6.588   0.607   4.031
 1711WAT      O 5374   2.152   3.643   6.236
 1711WAT     H1 5375   2.151   3.713   6.164
 1711WAT     H2 5376   2.193   3.559   6.200
 1712WAT      O 5377   0.449   6.237   3.631
 1712WAT     H1 5378   0.418   6.172   3.700
 1712WAT     H2 5379   0.539   6.272   3.656
 1713WAT      O 5380   7.007   9.216   4.636
 1713WAT     H1 5381   6.958   9.295   4.672
 1713WAT     H2 5382   6.967   9.132   4.674
 1714WAT      O 5383   6.205   4.519   0.958
 1714WAT     H1 5384   6.131   4.578   0.925
 1714WAT     H2 5385   6.263   4.492   0.881
 1715WAT      O 5386   2.947   8.183   7.238
 1715WAT     H1 5387   2.899   8.107   7.195
 1715WAT     H2 5388   2.884   8.232   7.298
 1716WAT      O 5389   2.289   8.422   5.320
 1716WAT     H1 5390   2.317   8.516   5.341
 1716WAT     H2 5391   2.210   8.424   5.259
 1717WAT      O 5392   2.623   5.060   1.053
 1717WAT     H1 5393   2.720   5.081   1.039
 1717WAT     H2 5394   2.568   5.134   1.014
 1718WAT      O 5395   4.012   6.431   4.723
 1718WAT     H1 5396   4.041   6.337   4.703
 1718WAT     H2 5397   4.067   6.495   4.670
 1719WAT      O 5398   2.922   6.051   3.506
 1719WAT     H1 5399   3.010   6.071   3.463
 1719WAT     H2 5400   2.904   5.953   3.502
 1720WAT      O 5401   9.407   0.752   0.040
 1720WAT     H1 5402   9.376   0.847   0.042
 1720WAT     H2 5403   9.504   0.749   0.016
 1721WAT      O 5404   6.614   0.103   5.166
 1721WAT     H1 5405   6.531   0.148   5.201
 1721WAT     H2 5406   6.648   0.039   5.235
 1722WAT      O 5407   5.868   1.675   9.350
 1722WAT     H1 5408   5.895   1.712   9.438
 1722WAT     H2 5409   5.775   1.639   9.355
 1723WAT      O 5410   5.237   0.224   5.474
 1723WAT     H1 5411   5.229   0.131   5.439
 1723WAT     H2 5412   5.163   0.241   5.539
 1724WAT      O 5413   0.707   4.025   8.617
 1724WAT     H1 5414   0.726   4.110   8.665
 1724WAT     H2 5415   0.792   3.973   8.606
 1725WAT      O 5416   3.035   3.549   7.456
 1725WAT     H1 5417   3.116   3.494   7.478
 1725WAT     H2 5418   3.039   3.636   7.505
 1726WAT      O 5419   6.871   2.220   9.422
 1726WAT     H1 5420   6.842   2.160   9.496
 1726WAT     H2 5421   6.901   2.308   9.459
 1727WAT      O 5422   4.514   8.808   6.850
 1727WAT     H1 5423   4.562   8.893   6.870
 1727WAT     H2 5424   4.510   8.794   6.751
 1728WAT      O 5425   1.706   3.541   8.446
 1728WAT     H1 5426   1.686   3.619   8.387
 1728WAT     H2 5427   1.627   3.480   8.448
 1729WAT      O 5428   2.549   1.957   6.203
 1729WAT     H1 5429   2.503   1.946   6.115
 1729WAT     H2 5430   2.553   1.869   6.251
 1730WAT      O 5431   2.203   1.896   2.019
 1730WAT     H1 5432   2.199   1.960   2.096
 1730WAT     H2 5433   2.130   1.918   1.954
 1731WAT      O 5434   2.682   0.895   3.069
 1731WAT     H1 5435   2.737   0.946   3.003
 1731WAT     H2 5436   2.649   0.811   3.026
 1732WAT      O 5437   5.885   7.828   2.009
 1732WAT     H1 5438   5.835   7.871   2.084
 1732WAT     H2 5439   5.881   7.886   1.928
 1733WAT      O 5440   0.909   9.017   8.651
 1733WAT     H1 5441   0.841   8.949   8.623
 1733WAT     H2 5442   0.984   9.018   8.584
 1734WAT      O 5443   1.771   0.865   6.527
 1734WAT     H1 5444   1.849   0.853   6.465
 1734WAT     H2 5445   1.782   0.805   6.606
 1735WAT      O 5446   6.286   3.432   2.755
 1735WAT     H1 5447   6.244   3.361   2.811
 1735WAT     H2 5448   6.263   3.522   2.792
 1736WAT      O 5449   5.046   0.097   8.686
 1736WAT     H1 5450   5.062   0.004   8.719
 1736WAT     H2 5451   5.126   0.130   8.637
 1737WAT      O 5452   1.481   5.853   9.596
 1737WAT     H1 5453   1.395   5.888   9.635
 1737WAT     H2 5454   1.558   5.896   9.643
 1738WAT      O 5455   6.201   6.771   6.829
 1738WAT     H1 5456   6.212   6.680   6.868
 1738WAT     H2 5457   6.288   6.820   6.834
 1739WAT      O 5458   4.564   6.865   0.723
 1739WAT     H1 5459   4.626   6.890   0.648
 1739WAT     H2 5460   4.601   6.897   0.810
 1740WAT      O 5461   0.478   1.463   9.470
 1740WAT     H1 5462   0.414   1.414   9.411
 1740WAT     H2 5463   0.452   1.559   9.475
 1741WAT      O 5464   1.007   0.921   7.371
 1741WAT     H1 5465   0.999   0.942   7.274
 1741WAT     H2 5466   1.033   0.825   7.383
 1742WAT      O 5467   7.428   0.182   2.374
 1742WAT     H1 5468   7.527   0.182   2.366
 1742WAT     H2 5469   7.388   0.236   2.300
 1743WAT      O 5470   5.160   3.291   0.131
 1743WAT     H1 5471   5.222   3.246   0.066
 1743WAT     H2 5472   5.067   3.292   0.093
 1744WAT      O 5473   4.710   6.568   4.966
 1744WAT     H1 5474   4.618   6.605   4.950
 1744WAT     H2 5475   4.708   6.468   4.954
 1745WAT      O 5476   8.439   9.224   1.299
 1745WAT     H1 5477   8.532   9.226   1.261
 1745WAT     H2 5478   8.417   9.130   1.326
 1746WAT      O 5479   8.377   1.248   0.527
 1746WAT     H1 5480   8.285   1.214   0.542
 1746WAT     H2 5481   8.380   1.304   0.444
 1747WAT      O 5482   8.346   6.985   5.874
 1747WAT     H1 5483   8.372   6.910   5.813
 1747WAT     H2 5484   8.317   7.063   5.819
 1748WAT      O 5485   6.924   9.731   9.874
 1748WAT     H1 5486   6.997   9.664   9.859
 1748WAT     H2 5487   6.840   9.699   9.831
 1749WAT      O 5488   5.622   6.160   8.530
 1749WAT     H1 5489   5.696   6.149   8.597
 1749WAT     H2 5490   5.660   6.157   8.438
 1750WAT      O 5491   2.876   4.001   3.057
 1750WAT     H1 5492   2.833   3.947   3.129
 1750WAT     H2 5493   2.857   3.960   2.968
 1751WAT      O 5494   6.342   4.794   6.519
 1751WAT     H1 5495   6.293   4.707   6.524
 1751WAT     H2 5496   6.419   4.785   6.457
 1752WAT      O 5497   0.370   6.315   8.813
 1752WAT     H1 5498   0.298   6.357   8.758
 1752WAT     H2 5499   0.420   6.248   8.757
 1753WAT      O 5500   1.937   3.018   6.084
 1753WAT     H1 5501   1.971   3.084   6.150
 1753WAT     H2 5502   1.919   3.064   5.997
 1754WAT      O 5503   6.268   2.039   0.597
 1754WAT     H1 5504   6.172   2.063   0.612
 1754WAT     H2 5505   6.276   1.943   0.572
 1755WAT      O 5506   6.601   3.143   9.224
 1755WAT     H1 5507   6.598   3.043   9.215
 1755WAT     H2 5508   6.664   3.180   9.156
 1756WAT      O 5509   3.771   6.251   9.850
 1756WAT     H1 5510   3.844   6.184   9.868
 1756WAT     H2 5511   3.710   6.214   9.780
 1757WAT      O 5512   5.680   7.690   4.248
 1757WAT     H1 5513   5.685   7.621   4.320
 1757WAT     H2 5514   5.589   7.691   4.209
 1758WAT      O 5515   9.626   9.443   8.440
 1758WAT     H1 5516   9.535   9.480   8.420
 1758WAT     H2 5517   9.677   9.435   8.355
 1759WAT      O 5518   5.556   8.457   2.263
 1759WAT     H1 5519   5.573   8.482   2.168
 1759WAT     H2 5520   5.474   8.504   2.296
 1760WAT      O 5521   6.397   9.358   6.099
 1760WAT     H1 5522   6.386   9.317   6.190
 1760WAT     H2 5523   6.364   9.294   6.029
 1761WAT      O 5524   4.376   8.172   5.056
 1761WAT     H1 5525   4.344   8.267   5.058
 1761WAT     H2 5526   4.429   8.152   5.138
 1762WAT      O 5527   0.910   8.357   6.143
 1762WAT     H1 5528   0.854   8.375   6.223
 1762WAT     H2 5529   0.967   8.276   6.159
 1763WAT      O 5530   2.915   9.185   9.288
 1763WAT     H1 5531   2.867   9.228   9.211
 1763WAT     H2 5532   2.867   9.207   9.373
 1764WAT      O 5533   5.789   1.325   5.385
 1764WAT     H1 5534   5.787   1.422   5.362
 1764WAT     H2 5535   5.817   1.272   5.304
 1765WAT      O 5536   3.312   6.723   8.903
 1765WAT     H1 5537   3.233   6.783   8.915
 1765WAT     H2 5538   3.286   6.645   8.846
 1766WAT      O 5539   9.618   8.252   4.984
 1766WAT     H1 5540   9.691   8.205   5.033
 1766WAT     H2 5541   9.658   8.318   4.920
 1767WAT      O 5542   3.315   6.687   0.352
 1767WAT     H1 5543   3.245   6.675   0.422
 1767WAT     H2 5544   3.405   6.683   0.394
 1768WAT      O 5545   4.508   2.230   2.397
 1768WAT     H1 5546   4.536   2.257   2.489
 1768WAT     H2 5547   4.411   2.207   2.397
 1769WAT      O 5548   2.206   5.045   5.454
 1769WAT     H1 5549   2.219   5.035   5.356
 1769WAT     H2 5550   2.274   5.107   5.491
 1770WAT      O 5551   7.354   2.671   5.514
 1770WAT     H1 5552   7.454   2.670   5.523
 1770WAT     H2 5553   7.329   2.701   5.422
 1771WAT      O 5554   8.262   6.151   5.426
 1771WAT     H1 5555   8.345   6.189   5.385
 1771WAT     H2 5556   8.187   6.157   5.361
 1772WAT      O 5557   6.878   8.217   6.460
 1772WAT     H1 5558   6.976   8.223   6.479
 1772WAT     H2 5559   6.863   8.156   6.382
 1773WAT      O 5560   4.613   1.983   1.988
 1773WAT     H1 5561   4.560   1.980   2.073
 1773WAT     H2 5562   4.629   1.889   1.956
 1774WAT      O 5563   0.541   2.293   2.535
 1774WAT     H1 5564   0.458   2.239   2.547
 1774WAT     H2 5565   0.563   2.301   2.438
 1775WAT      O 5566   3.976   7.667   9.324
 1775WAT     H1 5567   3.978   7.602   9.248
 1775WAT     H2 5568   3.883   7.674   9.360
 1776WAT      O 5569   6.483   7.847   0.807
 1776WAT     H1 5570   6.437   7.764   0.839
 1776WAT     H2 5571   6.524   7.831   0.717
 1777WAT      O 5572   6.750   0.190   3.096
 1777WAT     H1 5573   6.674   0.142   3.139
 1777WAT     H2 5574   6.722   0.221   3.005
 1778WAT      O 5575   4.106   6.737   6.353
 1778WAT     H1 5576   4.113   6.784   6.442
 1778WAT     H2 5577   4.064   6.647   6.366
 1779WAT      O 5578   6.591   8.489   7.198
 1779WAT     H1 5579   6.677   8.491   7.249
 1779WAT     H2 5580   6.528   8.558   7.236
 1780WAT      O 5581   8.165   8.593   5.900
 1780WAT     H1 5582   8.156   8.662   5.973
 1780WAT     H2 5583   8.150   8.502   5.939
 1781WAT      O 5584   1.512   3.469   7.271
 1781WAT     H1 5585   1.469   3.503   7.187
 1781WAT     H2 5586   1.507   3.369   7.273
 1782WAT      O 5587   7.641   9.335   3.994
 1782WAT     H1 5588   7.611   9.293   3.908
 1782WAT     H2 5589   7.563   9.345   4.055
 1783WAT      O 5590   3.887   0.885   3.645
 1783WAT     H1 5591   3.894   0.881   3.545
 1783WAT     H2 5592   3.966   0.839   3.685
 1784WAT      O 5593   8.487   1.998   1.912
 1784WAT     H1 5594   8.467   2.038   2.001
 1784WAT     H2 5595   8.556   2.054   1.866
 1785WAT      O 5596   8.962   5.193   0.882
 1785WAT     H1 5597   9.055   5.214   0.851
 1785WAT     H2 5598   8.902   5.270   0.861
 1786WAT      O 5599   4.220   5.321   0.307
 1786WAT     H1 5600   4.154   5.245   0.303
 1786WAT     H2 5601   4.184   5.392   0.367
 1787WAT      O 5602   3.798   1.819   7.062
 1787WAT     H1 5603   3.864   1.795   6.991
 1787WAT     H2 5604   3.839   1.884   7.126
 1788WAT      O 5605   8.380   1.885   2.716
 1788WAT     H1 5606   8.408   1.941   2.794
 1788WAT     H2 5607   8.392   1.937   2.632
 1789WAT      O 5608   1.993   3.912   3.921
 1789WAT     H1 5609   2.075   3.882   3.969
 1789WAT     H2 5610   2.001   4.009   3.898
 1790WAT      O 5611   0.578   0.367   5.004
 1790WAT     H1 5612   0.489   0.390   5.043
 1790WAT     H2 5613   0.637   0.331   5.075
 1791WAT      O 5614   3.989   1.011   4.931
 1791WAT     H1 5615   4.003   1.034   4.835
 1791WAT     H2 5616   4.070   0.965   4.967
 1792WAT      O 5617   4.340   4.259   7.934
 1792WAT     H1 5618   4.247   4.256   7.899
 1792WAT     H2 5619   4.355   4.346   7.982
 1793WAT      O 5620   0.419   9.806   4.597
 1793WAT     H1 5621   0.479   9.729   4.580
 1793WAT     H2 5622   0.331   9.791   4.551
 1794WAT      O 5623   9.671   7.568   7.165
 1794WAT     H1 5624   9.739   7.590   7.095
 1794WAT     H2 5625   9.601   7.640   7.167
 1795WAT      O 5626   1.779   4.455   6.758
 1795WAT     H1 5627   1.680   4.465   6.744
 1795WAT     H2 5628   1.795   4.394   6.836
 1796WAT      O 5629   2.900   6.592   5.160
 1796WAT     H1 5630   2.923   6.529   5.085
 1796WAT     H2 5631   2.801   6.601   5.167
 1797WAT      O 5632   2.309   8.175   4.179
 1797WAT     H1 5633   2.261   8.108   4.236
 1797WAT     H2 5634   2.327   8.135   4.089
 1798WAT      O 5635   0.509   0.292   0.939
 1798WAT     H1 5636   0.509   0.224   0.866
 1798WAT     H2 5637   0.435   0.273   1.003
 1799WAT      O 5638   6.752   4.448   2.469
 1799WAT     H1 5639   6.726   4.433   2.564
 1799WAT     H2 5640   6.851   4.464   2.464
 1800WAT      O 5641   1.744   8.845   9.602
 1800WAT     H1 5642   1.707   8.752   9.606
 1800WAT     H2 5643   1.698   8.902   9.670
 1801WAT      O 5644   0.434   4.647   0.847
 1801WAT     H1 5645   0.401   4.704   0.922
 1801WAT     H2 5646   0.432   4.699   0.762
 1802WAT      O 5647   3.043   9.608   0.955
 1802WAT     H1 5648   3.026   9.603   1.053
 1802WAT     H2 5649   3.025   9.700   0.922
 1803WAT      O 5650   2.115   3.454   8.962
 1803WAT     H1 5651   2.203   3.421   8.928
 1803WAT     H2 5652   2.081   3.393   9.033
 1804WAT      O 5653   0.236   4.883   6.847
 1804WAT     H1 5654   0.221   4.976   6.881
 1804WAT     H2 5655   0.151   4.847   6.808
 1805WAT      O 5656   6.642   8.495   2.568
 1805WAT     H1 5657   6.546   8.487   2.543
 1805WAT     H2 5658   6.654   8.476   2.665
 1806WAT      O 5659   5.508   1.607   7.587
 1806WAT     H1 5660   5.523   1.512   7.557
 1806WAT     H2 5661   5.411   1.620   7.608
 1807WAT      O 5662   1.553   2.169   0.663
 1807WAT     H1 5663   1.563   2.235   0.738
 1807WAT     H2 5664   1.456   2.149   0.649
 1808WAT      O 5665   4.489   4.548   8.299
 1808WAT     H1 5666   4.569   4.608   8.298
 1808WAT     H2 5667   4.494   4.487   8.379
 1809WAT      O 5668   0.154   0.419   0.858
 1809WAT     H1 5669   0.181   0.478   0.781
 1809WAT     H2 5670   0.150   0.473   0.942
 1810WAT      O 5671   7.057   5.500   4.013
 1810WAT     H1 5672   7.052   5.448   3.928
 1810WAT     H2 5673   7.001   5.455   4.083
 1811WAT      O 5674   9.070   1.044   4.859
 1811WAT     H1 5675   9.037   1.041   4.953
 1811WAT     H2 5676   9.120   0.960   4.837
 1812WAT      O 5677   6.098   0.504   7.880
 1812WAT     H1 5678   6.077   0.549   7.967
 1812WAT     H2 5679   6.021   0.515   7.818
 1813WAT      O 5680   3.362   5.715   5.832
 1813WAT     H1 5681   3.404   5.782   5.892
 1813WAT     H2 5682   3.263   5.716   5.844
 1814WAT      O 5683   5.684   1.479   9.685
 1814WAT     H1 5684   5.653   1.393   9.644
 1814WAT     H2 5685   5.782   1.474   9.702
 1815WAT      O 5686   3.570   0.376   0.483
 1815WAT     H1 5687   3.568   0.296   0.542
 1815WAT     H2 5688   3.660   0.419   0.488
 1816WAT      O 5689   4.119   4.435   9.511
 1816WAT     H1 5690   4.030   4.472   9.539
 1816WAT     H2 5691   4.118   4.417   9.412
 1817WAT      O 5692   4.079   8.966   4.904
 1817WAT     H1 5693   4.084   9.065   4.909
 1817WAT     H2 5694   3.986   8.936   4.923
 1818WAT      O 5695   3.793   6.642   8.714
 1818WAT     H1 5696   3.726   6.592   8.658
 1818WAT     H2 5697   3.870   6.583   8.735
 1819WAT      O 5698   7.598   8.844   1.965
 1819WAT     H1 5699   7.514   8.794   1.942
 1819WAT     H2 5700   7.646   8.871   1.881
 1820WAT      O 5701   1.985   8.357   8.563
 1820WAT     H1 5702   2.002   8.444   8.609
 1820WAT     H2 5703   1.900   8.317   8.597
 1821WAT      O 5704   6.335   5.469   3.947
 1821WAT     H1 5705   6.350   5.446   3.851
 1821WAT     H2 5706   6.390   5.408   4.005
 1822WAT      O 5707   0.528   0.207   2.408
 1822WAT     H1 5708   0.594   0.149   2.362
 1822WAT     H2 5709   0.527   0.187   2.505
 1823WAT      O 5710   7.589   2.930   0.469
 1823WAT     H1 5711   7.538   3.009   0.503
 1823WAT     H2 5712   7.526   2.853   0.456
 1824WAT      O 5713   1.686   8.032   9.513
 1824WAT     H1 5714   1.687   8.093   9.592
 1824WAT     H2 5715   1.770   8.046   9.460
 1825WAT      O 5716   6.304   3.718   6.776
 1825WAT     H1 5717   6.261   3.768   6.851
 1825WAT     H2 5718   6.233   3.676   6.719
 1826WAT      O 5719   6.432   9.288   3.655
 1826WAT     H1 5720   6.381   9.253   3.733
 1826WAT     H2 5721   6.523   9.316   3.684
 1827WAT      O 5722   8.921   8.601   9.366
 1827WAT     H1 5723   8.833   8.568   9.333
 1827WAT     H2 5724   8.980   8.623   9.288
 1828WAT      O 5725   2.692   0.855   5.148
 1828WAT     H1 5726   2.645   0.768   5.162
 1828WAT     H2 5727   2.645   0.928   5.197
 1829WAT      O 5728   7.626   8.310   2.132
 1829WAT     H1 5729   7.539   8.263   2.117
 1829WAT     H2 5730   7.654   8.357   2.049
 1830WAT      O 5731   2.424   5.278   1.806
 1830WAT     H1 5732   2.397   5.244   1.717
 1830WAT     H2 5733   2.402   5.376   1.813
 1831WAT      O 5734   9.301   2.340   0.613
 1831WAT     H1 5735   9.219   2.334   0.670
 1831WAT     H2 5736   9.375   2.381   0.665
 1832WAT      O 5737   8.721   6.939   5.657
 1832WAT     H1 5738   8.625   6.911   5.651
 1832WAT     H2 5739   8.746   6.951   5.753
 1833WAT      O 5740   7.847   3.561   6.466
 1833WAT     H1 5741   7.868   3.581   6.370
 1833WAT     H2 5742   7.765   3.503   6.471
 1834WAT      O 5743   0.736   7.056   3.234
 1834WAT     H1 5744   0.732   6.995   3.313
 1834WAT     H2 5745   0.647   7.098   3.220
 1835WAT      O 5746   4.332   4.946   9.270
 1835WAT     H1 5747   4.383   4.865   9.301
 1835WAT     H2 5748   4.241   4.946   9.312
 1836WAT      O 5749   0.585   6.828   4.204
 1836WAT     H1 5750   0.627   6.870   4.285
 1836WAT     H2 5751   0.493   6.797   4.226
 1837WAT      O 5752   0.314   0.585   2.255
 1837WAT     H1 5753   0.246   0.657   2.269
 1837WAT     H2 5754   0.348   0.554   2.344
 1838WAT      O 5755   6.011   4.377   9.378
 1838WAT     H1 5756   6.013   4.278   9.374
 1838WAT     H2 5757   5.929   4.407   9.428
 1839WAT      O 5758   7.264   5.468   5.298
 1839WAT     H1 5759   7.186   5.515   5.257
 1839WAT     H2 5760   7.242   5.442   5.392
 1840WAT      O 5761   6.240   2.687   5.377
 1840WAT     H1 5762   6.327   2.717   5.415
 1840WAT     H2 5763   6.166   2.712   5.440
 1841WAT      O 5764   4.836   9.112   7.292
 1841WAT     H1 5765   4.835   9.012   7.287
 1841WAT     H2 5766   4.876   9.141   7.379
 1842WAT      O 5767   0.324   2.413   6.910
 1842WAT     H1 5768   0.346   2.358   6.830
 1842WAT     H2 5769   0.273   2.495   6.882
 1843WAT      O 5770   0.213   9.429   8.464
 1843WAT     H1 5771   0.115   9.418   8.480
 1843WAT     H2 5772   0.228   9.456   8.369
 1844WAT      O 5773   7.057   8.823   2.466
 1844WAT     H1 5774   7.009   8.897   2.419
 1844WAT     H2 5775   7.007   8.737   2.454
 1845WAT      O 5776   8.763   3.671   3.726
 1845WAT     H1 5777   8.839   3.705   3.781
 1845WAT     H2 5778   8.797   3.607   3.658
 1846WAT      O 5779   2.631   0.780   9.449
 1846WAT     H1 5780   2.635   0.737   9.539
 1846WAT     H2 5781   2.626   0.880   9.460
 1847WAT      O 5782   2.857   3.615   8.948
 1847WAT     H1 5783   2.851   3.557   9.029
 1847WAT     H2 5784   2.948   3.656   8.944
 1848WAT      O 5785   1.880   5.383   3.362
 1848WAT     H1 5786   1.932   5.357   3.444
 1848WAT     H2 5787   1.942   5.386   3.284
 1849WAT      O 5788   5.910   9.448   4.260
 1849WAT     H1 5789   5.933   9.487   4.349
 1849WAT     H2 5790   5.827   9.392   4.269
 1850WAT      O 5791   8.623   8.286   9.221
 1850WAT     H1 5792   8.609   8.382   9.197
 1850WAT     H2 5793   8.600   8.229   9.142
 1851WAT      O 5794   3.929   7.230   9.313
 1851WAT     H1 5795   3.952   7.153   9.254
 1851WAT     H2 5796   3.835   7.220   9.346
 1852WAT      O 5797   0.084   3.582   2.259
 1852WAT     H1 5798  -0.014   3.601   2.245
 1852WAT     H2 5799   0.135   3.610   2.177
 1853WAT      O 5800   0.675   1.213   2.360
 1853WAT     H1 5801   0.603   1.194   2.427
 1853WAT     H2 5802   0.731   1.289   2.392
 1854WAT      O 5803   7.533   7.993   3.744
 1854WAT     H1 5804   7.519   8.033   3.654
 1854WAT     H2 5805   7.468   7.919   3.759
 1855WAT      O 5806   0.385   4.536   8.140
 1855WAT     H1 5807   0.329   4.455   8.150
 1855WAT     H2 5808   0.451   4.522   8.066
 1856WAT      O 5809   3.319   0.693   1.366
 1856WAT     H1 5810   3.245   0.760   1.369
 1856WAT     H2 5811   3.306   0.625   1.438
 1857WAT      O 5812   2.903   8.849   2.515
 1857WAT     H1 5813   2.882   8.894   2.601
 1857WAT     H2 5814   3.001   8.854   2.497
 1858WAT      O 5815   6.890   4.394   1.117
 1858WAT     H1 5816   6.858   4.307   1.080
 1858WAT     H2 5817   6.900   4.460   1.042
 1859WAT      O 5818   2.162   1.996   4.191
 1859WAT     H1 5819   2.168   2.092   4.162
 1859WAT     H2 5820   2.245   1.948   4.164
 1860WAT      O 5821   4.967   2.468   3.247
 1860WAT     H1 5822   4.946   2.501   3.155
 1860WAT     H2 5823   5.063   2.441   3.252
 1861WAT      O 5824   4.453   5.754   1.693
 1861WAT     H1 5825   4.523   5.686   1.672
 1861WAT     H2 5826   4.474   5.798   1.780
 1862WAT      O 5827   6.702   0.776   0.125
 1862WAT     H1 5828   6.770   0.811   0.189
 1862WAT     H2 5829   6.664   0.690   0.160
 1863WAT      O 5830   7.163   3.537   6.704
 1863WAT     H1 5831   7.203   3.556   6.794
 1863WAT     H2 5832   7.199   3.601   6.637
 1864WAT      O 5833   4.588   5.415   1.198
 1864WAT     H1 5834   4.535   5.484   1.249
 1864WAT     H2 5835   4.680   5.449   1.181
 1865WAT      O 5836   9.117   5.171   5.510
 1865WAT     H1 5837   9.180   5.248   5.497
 1865WAT     H2 5838   9.032   5.205   5.549
 1866WAT      O 5839   3.941   9.373   2.934
 1866WAT     H1 5840   3.859   9.370   2.990
 1866WAT     H2 5841   4.022   9.365   2.992
 1867WAT      O 5842   6.309   1.784   2.653
 1867WAT     H1 5843   6.280   1.826   2.739
 1867WAT     H2 5844   6.344   1.692   2.671
 1868WAT      O 5845   2.194   5.376   2.880
 1868WAT     H1 5846   2.264   5.418   2.938
 1868WAT     H2 5847   2.236   5.337   2.799
 1869WAT      O 5848   5.450   0.934   2.594
 1869WAT     H1 5849   5.382   1.000   2.627
 1869WAT     H2 5850   5.421   0.897   2.506
 1870WAT      O 5851   8.693   8.643   9.116
 1870WAT     H1 5852   8.671   8.687   9.029
 1870WAT     H2 5853   8.792   8.631   9.124
 1871WAT      O 5854   6.581   0.120   6.336
 1871WAT     H1 5855   6.511   0.072   6.390
 1871WAT     H2 5856   6.625   0.056   6.274
 1872WAT      O 5857   3.621   8.608   2.392
 1872WAT     H1 5858   3.612   8.669   2.314
 1872WAT     H2 5859   3.718   8.594   2.413
 1873WAT      O 5860   4.192   0.025   2.087
 1873WAT     H1 5861   4.186  -0.030   2.004
 1873WAT     H2 5862   4.124   0.098   2.082
 1874WAT      O 5863   9.226   7.456   2.578
 1874WAT     H1 5864   9.182   7.497   2.657
 1874WAT     H2 5865   9.246   7.527   2.510
 1875WAT      O 5866   6.730   0.144   4.237
 1875WAT     H1 5867   6.649   0.158   4.294
 1875WAT     H2 5868   6.801   0.098   4.291
 1876WAT      O 5869   0.926   5.116   9.661
 1876WAT     H1 5870   1.016   5.073   9.662
 1876WAT     H2 5871   0.856   5.048   9.641
 1877WAT      O 5872   1.293   0.153   8.769
 1877WAT     H1 5873   1.218   0.162   8.834
 1877WAT     H2 5874   1.266   0.192   8.681
 1878WAT      O 5875   7.783   3.167   6.628
 1878WAT     H1 5876   7.805   3.181   6.532
 1878WAT     H2 5877   7.732   3.246   6.663
 1879WAT      O 5878   6.466   9.646   7.429
 1879WAT     H1 5879   6.555   9.686   7.450
 1879WAT     H2 5880   6.463   9.622   7.332
 1880WAT      O 5881   0.545   8.150   0.465
 1880WAT     H1 5882   0.590   8.228   0.508
 1880WAT     H2 5883   0.487   8.182   0.390
 1881WAT      O 5884   1.907   3.143   9.555
 1881WAT     H1 5885   1.923   3.109   9.648
 1881WAT     H2 5886   1.833   3.210   9.557
 1882WAT      O 5887   3.582   5.996   4.521
 1882WAT     H1 5888   3.505   5.954   4.475
 1882WAT     H2 5889   3.665   5.982   4.468
 1883WAT      O 5890   1.351   8.377   5.751
 1883WAT     H1 5891   1.314   8.316   5.681
 1883WAT     H2 5892   1.409   8.446   5.708
 1884WAT      O 5893   7.374   3.662   2.700
 1884WAT     H1 5894   7.337   3.689   2.789
 1884WAT     H2 5895   7.344   3.569   2.677
 1885WAT      O 5896   0.222   2.502   8.042
 1885WAT     H1 5897   0.139   2.452   8.019
 1885WAT     H2 5898   0.200   2.598   8.059
 1886WAT      O 5899   8.565   6.937   6.066
 1886WAT     H1 5900   8.529   6.861   6.119
 1886WAT     H2 5901   8.501   6.959   5.992
 1887WAT      O 5902   4.720   8.201   5.067
 1887WAT     H1 5903   4.722   8.261   4.987
 1887WAT     H2 5904   4.663   8.121   5.047
 1888WAT      O 5905   7.268   5.117   0.989
 1888WAT     H1 5906   7.281   5.085   0.895
 1888WAT     H2 5907   7.311   5.053   1.053
 1889WAT      O 5908   1.190   2.618   5.990
 1889WAT     H1 5909   1.121   2.584   6.053
 1889WAT     H2 5910   1.253   2.544   5.965
 1890WAT      O 5911   0.945   7.396   1.947
 1890WAT     H1 5912   0.936   7.301   1.918
 1890WAT     H2 5913   1.014   7.402   2.020
 1891WAT      O 5914   8.857   2.160   3.635
 1891WAT     H1 5915   8.791   2.224   3.594
 1891WAT     H2 5916   8.935   2.212   3.671
 1892WAT      O 5917   9.378   4.613   9.350
 1892WAT     H1 5918   9.324   4.696   9.338
 1892WAT     H2 5919   9.368   4.554   9.269
 1893WAT      O 5920   2.349   0.645   1.908
 1893WAT     H1 5921   2.363   0.629   2.005
 1893WAT     H2 5922   2.437   0.663   1.864
 1894WAT      O 5923   2.333   3.694   2.753
 1894WAT     H1 5924   2.303   3.753   2.828
 1894WAT     H2 5925   2.418   3.729   2.714
 1895WAT      O 5926   7.021   6.828   1.874
 1895WAT     H1 5927   7.089   6.766   1.912
 1895WAT     H2 5928   7.060   6.876   1.795
 1896WAT      O 5929   3.889   2.718   9.632
 1896WAT     H1 5930   3.798   2.740   9.667
 1896WAT     H2 5931   3.899   2.756   9.540
 1897WAT      O 5932   9.794   5.193   5.036
 1897WAT     H1 5933   9.817   5.166   4.943
 1897WAT     H2 5934   9.873   5.235   5.080
 1898WAT      O 5935   9.043   2.843   4.712
 1898WAT     H1 5936   9.117   2.836   4.779
 1898WAT     H2 5937   9.082   2.851   4.620
 1899WAT      O 5938   1.049   0.051   2.647
 1899WAT     H1 5939   1.009   0.060   2.555
 1899WAT     H2 5940   1.139   0.095   2.648
 1900WAT      O 5941   8.310   0.230   1.185
 1900WAT     H1 5942   8.312   0.304   1.253
 1900WAT     H2 5943   8.326   0.268   1.094
 1901WAT      O 5944   0.150   1.701   8.683
 1901WAT     H1 5945   0.152   1.768   8.609
 1901WAT     H2 5946   0.060   1.656   8.685
 1902WAT      O 5947   7.486   2.981   3.861
 1902WAT     H1 5948   7.562   3.018   3.806
 1902WAT     H2 5949   7.522   2.949   3.949
 1903WAT      O 5950   6.688   2.640   8.138
 1903WAT     H1 5951   6.676   2.712   8.069
 1903WAT     H2 5952   6.783   2.641   8.170
 1904WAT      O 5953   6.648   6.933   7.407
 1904WAT     H1 5954   6.643   6.937   7.507
 1904WAT     H2 5955   6.661   7.025   7.370
 1905WAT      O 5956   0.154   8.551   3.645
 1905WAT     H1 5957   0.216   8.627   3.629
 1905WAT     H2 5958   0.202   8.465   3.630
 1906WAT      O 5959   1.392   7.147   7.647
 1906WAT     H1 5960   1.299   7.137   7.684
 1906WAT     H2 5961   1.388   7.184   7.555
 1907WAT      O 5962   8.451   6.350   6.680
 1907WAT     H1 5963   8.402   6.283   6.625
 1907WAT     H2 5964   8.516   6.399   6.622
 1908WAT      O 5965   8.589   2.598   3.157
 1908WAT     H1 5966   8.519   2.663   3.188
 1908WAT     H2 5967   8.670   2.648   3.126
 1909WAT      O 5968   0.887   1.642   0.919
 1909WAT     H1 5969   0.845   1.611   0.834
 1909WAT     H2 5970   0.942   1.724   0.900
 1910WAT      O 5971   7.485   8.899   9.390
 1910WAT     H1 5972   7.388   8.879   9.402
 1910WAT     H2 5973   7.534   8.877   9.474
 1911WAT      O 5974   7.073   4.951   8.942
 1911WAT     H1 5975   7.022   4.868   8.963
 1911WAT     H2 5976   7.013   5.016   8.895
 1912WAT      O 5977   8.413   8.332   2.170
 1912WAT     H1 5978   8.505   8.305   2.199
 1912WAT     H2 5979   8.350   8.326   2.247
 1913WAT      O 5980   2.408   1.822   6.484
 1913WAT     H1 5981   2.402   1.744   6.546
 1913WAT     H2 5982   2.336   1.816   6.416
 1914WAT      O 5983   0.122   6.056   7.932
 1914WAT     H1 5984   0.087   6.026   7.843
 1914WAT     H2 5985   0.047   6.056   7.998
 1915WAT      O 5986   6.405   8.567   0.825
 1915WAT     H1 5987   6.449   8.477   0.831
 1915WAT     H2 5988   6.451   8.631   0.887
 1916WAT      O 5989   3.989   4.602   1.605
 1916WAT     H1 5990   3.900   4.565   1.578
 1916WAT     H2 5991   4.055   4.528   1.613
 1917WAT      O 5992   4.150   4.484   5.748
 1917WAT     H1 5993   4.210   4.549   5.795
 1917WAT     H2 5994   4.093   4.437   5.816
 1918WAT      O 5995   8.308   3.781   0.489
 1918WAT     H1 5996   8.405   3.768   0.467
 1918WAT     H2 5997   8.281   3.875   0.467
 1919WAT      O 5998   2.587   7.678   2.797
 1919WAT     H1 5999   2.503   7.716   2.835
 1919WAT     H2 6000   2.599   7.584   2.829
 1920WAT      O 6001   1.377   1.598   9.514
 1920WAT     H1 6002   1.367   1.696   9.532
 1920WAT     H2 6003   1.460   1.581   9.462
 1921WAT      O 6004   9.344   0.837   3.953
 1921WAT     H1 6005   9.380   0.746   3.933
 1921WAT     H2 6006   9.263   0.854   3.897
 1922WAT      O 6007   4.786   0.551   0.057
 1922WAT     H1 6008   4.783   0.481   0.128
 1922WAT     H2 6009   4.774   0.508  -0.033
 1923WAT      O 6010   9.153   2.574   6.128
 1923WAT     H1 6011   9.204   2.520   6.195
 1923WAT     H2 6012   9.060   2.591   6.162
 1924WAT      O 6013   0.271   2.901   6.688
 1924WAT     H1 6014   0.273   2.912   6.788
 1924WAT     H2 6015   0.330   2.825   6.662
 1925WAT      O 6016   1.761   2.618   7.103
 1925WAT     H1 6017   1.718   2.548   7.046
 1925WAT     H2 6018   1.714   2.706   7.090
 1926WAT      O 6019   3.344   6.775   5.137
 1926WAT     H1 6020   3.267   6.793   5.199
 1926WAT     H2 6021   3.394   6.695   5.169
 1927WAT      O 6022   3.750   9.230   8.286
 1927WAT     H1 6023   3.850   9.231   8.288
 1927WAT     H2 6024   3.718   9.250   8.193
 1928WAT      O 6025   5.427   9.270   4.959
 1928WAT     H1 6026   5.332   9.246   4.941
 1928WAT     H2 6027   5.443   9.275   5.057
 1929WAT      O 6028   0.098   0.025   1.356
 1929WAT     H1 6029   0.040  -0.014   1.284
 1929WAT     H2 6030   0.193  -0.001   1.340
 1930WAT      O 6031   4.670   0.873   4.548
 1930WAT     H1 6032   4.756   0.822   4.549
 1930WAT     H2 6033   4.669   0.936   4.471
 1931WAT      O 6034   7.733   3.296   7.727
 1931WAT     H1 6035   7.705   3.354   7.650
 1931WAT     H2 6036   7.691   3.330   7.811
 1932WAT      O 6037   5.343   0.655   7.476
 1932WAT     H1 6038   5.258   0.705   7.458
 1932WAT     H2 6039   5.338   0.611   7.565
 1933WAT      O 6040   6.875   1.995   4.974
 1933WAT     H1 6041   6.864   2.091   4.998
 1933WAT     H2 6042   6.951   1.985   4.909
 1934WAT      O 6043   3.955   1.372   0.832
 1934WAT     H1 6044   3.915   1.463   0.835
 1934WAT     H2 6045   3.942   1.326   0.920
 1935WAT      O 6046   2.994   3.263   2.183
 1935WAT     H1 6047   3.080   3.228   2.147
 1935WAT     H2 6048   2.932   3.283   2.107
 1936WAT      O 6049   3.196   2.617   1.012
 1936WAT     H1 6050   3.097   2.611   1.022
 1936WAT     H2 6051   3.222   2.595   0.918
 1937WAT      O 6052   8.849   0.874   9.313
 1937WAT     H1 6053   8.815   0.929   9.237
 1937WAT     H2 6054   8.790   0.794   9.326
 1938WAT      O 6055   6.073   8.243   4.301
 1938WAT     H1 6056   6.011   8.291   4.239
 1938WAT     H2 6057   6.161   8.228   4.254
 1939WAT      O 6058   8.501   4.835   9.714
 1939WAT     H1 6059   8.465   4.855   9.805
 1939WAT     H2 6060   8.599   4.818   9.720
 1940WAT      O 6061   5.621   1.510   0.527
 1940WAT     H1 6062   5.554   1.584   0.535
 1940WAT     H2 6063   5.710   1.548   0.500
 1941WAT      O 6064   6.112   9.718   3.124
 1941WAT     H1 6065   6.140   9.726   3.220
 1941WAT     H2 6066   6.095   9.809   3.087
 1942WAT      O 6067   4.435   6.444   3.861
 1942WAT     H1 6068   4.516   6.456   3.919
 1942WAT     H2 6069   4.399   6.534   3.836
 1943WAT      O 6070   9.424   7.781   6.779
 1943WAT     H1 6071   9.338   7.749   6.817
 1943WAT     H2 6072   9.451   7.866   6.823
 1944WAT      O 6073   4.880   2.138   8.868
 1944WAT     H1 6074   4.886   2.236   8.885
 1944WAT     H2 6075   4.915   2.119   8.776
 1945WAT      O 6076   3.756   2.540   4.086
 1945WAT     H1 6077   3.671   2.541   4.139
 1945WAT     H2 6078   3.834   2.551   4.148
 1946WAT      O 6079   1.413   6.329   7.394
 1946WAT     H1 6080   1.490   6.275   7.427
 1946WAT     H2 6081   1.446   6.416   7.357
 1947WAT      O 6082   7.023   2.509   6.180
 1947WAT     H1 6083   7.003   2.498   6.083
 1947WAT     H2 6084   6.982   2.594   6.213
 1948WAT      O 6085   3.444   9.042   1.046
 1948WAT     H1 6086   3.540   9.069   1.044
 1948WAT     H2 6087   3.402   9.076   1.130
 1949WAT      O 6088   4.225   7.261   2.086
 1949WAT     H1 6089   4.131   7.287   2.067
 1949WAT     H2 6090   4.253   7.298   2.175
 1950WAT      O 6091   6.383   1.189   2.516
 1950WAT     H1 6092   6.354   1.095   2.531
 1950WAT     H2 6093   6.468   1.190   2.464
 1951WAT      O 6094   6.861   3.718   9.069
 1951WAT     H1 6095   6.844   3.816   9.056
 1951WAT     H2 6096   6.795   3.681   9.135
 1952WAT      O 6097   3.202   9.121   5.126
 1952WAT     H1 6098   3.246   9.124   5.216
 1952WAT     H2 6099   3.270   9.097   5.057
 1953WAT      O 6100   7.506   1.875   5.005
 1953WAT     H1 6101   7.415   1.894   4.969
 1953WAT     H2 6102   7.499   1.851   5.102
 1954WAT      O 6103   7.953   6.236   2.151
 1954WAT     H1 6104   7.881   6.290   2.196
 1954WAT     H2 6105   8.034   6.235   2.209
 1955WAT      O 6106   1.573   3.820   9.357
 1955WAT     H1 6107   1.660   3.777   9.381
 1955WAT     H2 6108   1.549   3.888   9.426
 1956WAT      O 6109   1.313   5.306   4.273
 1956WAT     H1 6110   1.303   5.220   4.221
 1956WAT     H2 6111   1.235   5.365   4.255
 1957WAT      O 6112   5.908   6.127   3.249
 1957WAT     H1 6113   5.883   6.131   3.346
 1957WAT     H2 6114   5.857   6.197   3.199
 1958WAT      O 6115   4.841   5.721   6.724
 1958WAT     H1 6116   4.769   5.685   6.665
 1958WAT     H2 6117   4.808   5.804   6.769
 1959WAT      O 6118   0.176   5.744   9.532
 1959WAT     H1 6119   0.125   5.789   9.605
 1959WAT     H2 6120   0.274   5.758   9.545
 1960WAT      O 6121   0.615   7.949   1.897
 1960WAT     H1 6122   0.540   7.912   1.842
 1960WAT     H2 6123   0.597   8.045   1.918
 1961WAT      O 6124   9.053   7.308   3.929
 1961WAT     H1 6125   9.027   7.384   3.988
 1961WAT     H2 6126   8.971   7.259   3.900
 1962WAT      O 6127   6.837   5.151   4.037
 1962WAT     H1 6128   6.804   5.062   4.069
 1962WAT     H2 6129   6.878   5.141   3.947
 1963WAT      O 6130   2.179   5.548   8.447
 1963WAT     H1 6131   2.209   5.644   8.455
 1963WAT     H2 6132   2.210   5.497   8.528
 1964WAT      O 6133   6.768   4.616   1.637
 1964WAT     H1 6134   6.671   4.591   1.637
 1964WAT     H2 6135   6.813   4.577   1.556
 1965WAT      O 6136   8.654   3.075   1.331
 1965WAT     H1 6137   8.751   3.090   1.350
 1965WAT     H2 6138   8.622   3.142   1.264
 1966WAT      O 6139   1.603   4.650   7.083
 1966WAT     H1 6140   1.576   4.555   7.097
 1966WAT     H2 6141   1.701   4.654   7.063
 1967WAT      O 6142   5.914   1.030   3.880
 1967WAT     H1 6143   5.943   1.125   3.877
 1967WAT     H2 6144   5.955   0.984   3.960
 1968WAT      O 6145   6.395   4.687   9.237
 1968WAT     H1 6146   6.304   4.708   9.270
 1968WAT     H2 6147   6.425   4.758   9.173
 1969WAT      O 6148   6.063   6.780   8.363
 1969WAT     H1 6149   6.045   6.686   8.393
 1969WAT     H2 6150   6.145   6.782   8.306
 1970WAT      O 6151   8.864   5.482   2.308
 1970WAT     H1 6152   8.958   5.490   2.341
 1970WAT     H2 6153   8.809   5.557   2.345
 1971WAT      O 6154   3.957   2.052   9.739
 1971WAT     H1 6155   3.932   2.102   9.822
 1971WAT     H2 6156   3.887   2.066   9.669
 1972WAT      O 6157   6.564   9.342   8.134
 1972WAT     H1 6158   6.505   9.390   8.069
 1972WAT     H2 6159   6.634   9.405   8.168
 1973WAT      O 6160   5.018   7.939   1.473
 1973WAT     H1 6161   4.993   7.993   1.554
 1973WAT     H2 6162   5.098   7.980   1.429
 1974WAT      O 6163   1.813   2.495   8.666
 1974WAT     H1 6164   1.786   2.586   8.633
 1974WAT     H2 6165   1.911   2.482   8.651
 1975WAT      O 6166   6.319   6.725   8.256
 1975WAT     H1 6167   6.364   6.788   8.192
 1975WAT     H2 6168   6.367   6.727   8.343
 1976WAT      O 6169   9.885   2.938   6.984
 1976WAT     H1 6170   9.946   2.861   7.006
 1976WAT     H2 6171   9.803   2.903   6.938
 1977WAT      O 6172   7.097   1.641   2.065
 1977WAT     H1 6173   7.157   1.720   2.056
 1977WAT     H2 6174   7.125   1.571   1.999
 1978WAT      O 6175   1.259   9.471   9.444
 1978WAT     H1 6176   1.201   9.391   9.431
 1978WAT     H2 6177   1.348   9.442   9.478
 1979WAT      O 6178   8.025   6.858   1.533
 1979WAT     H1 6179   8.056   6.784   1.592
 1979WAT     H2 6180   7.997   6.821   1.444
 1980WAT      O 6181   9.880   6.701   1.593
 1980WAT     H1 6182   9.864   6.793   1.556
 1980WAT     H2 6183   9.978   6.687   1.606
 1981WAT      O 6184   1.766   2.614   4.621
 1981WAT     H1 6185   1.862   2.588   4.619
 1981WAT     H2 6186   1.720   2.579   4.539
 1982WAT      O 6187   1.771   0.705   6.760
 1982WAT     H1 6188   1.838   0.769   6.799
 1982WAT     H2 6189   1.809   0.612   6.763
 1983WAT      O 6190   3.109   9.154   8.005
 1983WAT     H1 6191   3.032   9.090   8.013
 1983WAT     H2 6192   3.195   9.103   8.002
 1984WAT      O 6193   9.410   4.878   6.813
 1984WAT     H1 6194   9.368   4.943   6.876
 1984WAT     H2 6195   9.370   4.787   6.828
 1985WAT      O 6196   8.214   7.310   6.525
 1985WAT     H1 6197   8.254   7.380   6.584
 1985WAT     H2 6198   8.136   7.268   6.572
 1986WAT      O 6199   0.869   0.263   8.351
 1986WAT     H1 6200   0.944   0.207   8.315
 1986WAT     H2 6201   0.849   0.236   8.445
 1987WAT      O 6202   7.935   9.347   9.596
 1987WAT     H1 6203   7.868   9.332   9.523
 1987WAT     H2 6204   7.937   9.443   9.621
 1988WAT      O 6205   7.070   2.257   5.679
 1988WAT     H1 6206   7.153   2.305   5.651
 1988WAT     H2 6207   6.997   2.278   5.613
 1989WAT      O 6208   6.723   5.375   3.086
 1989WAT     H1 6209   6.639   5.343   3.128
 1989WAT     H2 6210   6.724   5.350   2.989
 1990WAT      O 6211   0.120   6.418   8.687
 1990WAT     H1 6212   0.154   6.477   8.613
 1990WAT     H2 6213   0.046   6.465   8.735
 1991WAT      O 6214   4.122   4.536   6.318
 1991WAT     H1 6215   4.148   4.441   6.337
 1991WAT     H2 6216   4.182   4.574   6.248
 1992WAT      O 6217   8.661   0.486   0.678
 1992WAT     H1 6218   8.582   0.431   0.652
 1992WAT     H2 6219   8.629   0.570   0.723
 1993WAT      O 6220   7.577   2.772   2.956
 1993WAT     H1 6221   7.621   2.728   2.877
 1993WAT     H2 6222   7.479   2.778   2.940
 1994WAT      O 6223   3.755   3.432   6.437
 1994WAT     H1 6224   3.802   3.395   6.517
 1994WAT     H2 6225   3.786   3.526   6.421
 1995WAT      O 6226   5.040   5.502   9.478
 1995WAT     H1 6227   4.941   5.506   9.465
 1995WAT     H2 6228   5.062   5.437   9.551
 1996WAT      O 6229   1.917   9.403   9.328
 1996WAT     H1 6230   1.925   9.304   9.330
 1996WAT     H2 6231   1.890   9.433   9.236
 1997WAT      O 6232   7.826   9.477   6.508
 1997WAT     H1 6233   7.823   9.485   6.608
 1997WAT     H2 6234   7.854   9.564   6.469
 1998WAT      O 6235   6.417   4.016   9.874
 1998WAT     H1 6236   6.378   4.094   9.826
 1998WAT     H2 6237   6.507   3.995   9.835
 1999WAT      O 6238   1.363   4.760   8.999
 1999WAT     H1 6239   1.461   4.760   9.022
 1999WAT     H2 6240   1.346   4.699   8.922
 2000WAT      O 6241   7.451   2.886   9.306
 2000WAT     H1 6242   7.378   2.820   9.323
 2000WAT     H2 6243   7.540   2.842   9.320
 2001WAT      O 6244   2.151   8.483   2.751
 2001WAT     H1 6245   2.163   8.425   2.832
 2001WAT     H2 6246   2.084   8.441   2.690
 2002WAT      O 6247   6.352   4.158   9.349
 2002WAT     H1 6248   6.269   4.130   9.397
 2002WAT     H2 6249   6.353   4.257   9.339
 2003WAT      O 6250   7.487   8.879   4.158
 2003WAT     H1 6251   7.585   8.889   4.138
 2003WAT     H2 6252   7.457   8.953   4.218
 2004WAT      O 6253   5.997   2.308   7.434
 2004WAT     H1 6254   6.091   2.319   7.402
 2004WAT     H2 6255   5.938   2.288   7.356
 2005WAT      O 6256   1.620   7.765   7.555
 2005WAT     H1 6257   1.527   7.797   7.574
 2005WAT     H2 6258   1.671   7.758   7.640
 2006WAT      O 6259   3.573   6.741   0.457
 2006WAT     H1 6260   3.527   6.829   0.467
 2006WAT     H2 6261   3.646   6.734   0.526
 2007WAT      O 6262   2.796   4.153   6.024
 2007WAT     H1 6263   2.816   4.064   5.983
 2007WAT     H2 6264   2.871   4.179   6.086
 2008WAT      O 6265   2.025   7.529   2.495
 2008WAT     H1 6266   2.102   7.530   2.559
 2008WAT     H2 6267   1.973   7.614   2.503
 2009WAT      O 6268   2.694   4.206   5.592
 2009WAT     H1 6269   2.657   4.203   5.685
 2009WAT     H2 6270   2.711   4.301   5.566
 2010WAT      O 6271   6.552   6.858   9.249
 2010WAT     H1 6272   6.495   6.919   9.304
 2010WAT     H2 6273   6.609   6.912   9.187
 2011WAT      O 6274   1.239   1.761   7.832
 2011WAT     H1 6275   1.176   1.763   7.909
 2011WAT     H2 6276   1.332   1.778   7.864
 2012WAT      O 6277   4.152   8.511   8.114
 2012WAT     H1 6278   4.220   8.459   8.165
 2012WAT     H2 6279   4.062   8.468   8.125
 2013WAT      O 6280   5.950   4.444   1.216
 2013WAT     H1 6281   5.974   4.532   1.177
 2013WAT     H2 6282   5.965   4.447   1.315
 2014WAT      O 6283   7.052   0.042   1.452
 2014WAT     H1 6284   6.967   0.064   1.500
 2014WAT     H2 6285   7.116   0.118   1.459
 2015WAT      O 6286   1.891   5.155   9.143
 2015WAT     H1 6287   1.880   5.056   9.135
 2015WAT     H2 6288   1.806   5.195   9.178
 2016WAT      O 6289   0.393   6.767   5.487
 2016WAT     H1 6290   0.298   6.757   5.456
 2016WAT     H2 6291   0.416   6.864   5.492
 2017WAT      O 6292   2.267   3.472   3.519
 2017WAT     H1 6293   2.317   3.532   3.581
 2017WAT     H2 6294   2.222   3.527   3.449
 2018WAT      O 6295   8.830   6.275   2.383
 2018WAT     H1 6296   8.846   6.319   2.295
 2018WAT     H2 6297   8.745   6.223   2.379
 2019WAT      O 6298   7.876   1.312   8.889
 2019WAT     H1 6299   7.933   1.269   8.959
 2019WAT     H2 6300   7.867   1.409   8.909
 2020WAT      O 6301   6.438   5.828   4.917
 2020WAT     H1 6302   6.488   5.814   4.832
 2020WAT     H2 6303   6.345   5.792   4.907
 2021WAT      O 6304   1.598   1.394   1.005
 2021WAT     H1 6305   1.595   1.296   0.982
 2021WAT     H2 6306   1.570   1.448   0.926
 2022WAT      O 6307   2.669   8.836   0.639
 2022WAT     H1 6308   2.632   8.843   0.546
 2022WAT     H2 6309   2.595   8.817   0.703
 2023WAT      O 6310   4.439   9.269   6.035
 2023WAT     H1 6311   4.509   9.238   6.099
 2023WAT     H2 6312   4.380   9.192   6.010
 2024WAT      O 6313   6.463   6.208   9.684
 2024WAT     H1 6314   6.378   6.259   9.672
 2024WAT     H2 6315   6.539   6.273   9.697
 2025WAT      O 6316   1.334   7.612   9.874
 2025WAT     H1 6317   1.235   7.622   9.870
 2025WAT     H2 6318   1.357   7.522   9.911
 2026WAT      O 6319   7.872   9.553   9.762
 2026WAT     H1 6320   7.808   9.477   9.776
 2026WAT     H2 6321   7.854   9.624   9.829
 2027WAT      O 6322   0.150   7.946   2.623
 2027WAT     H1 6323   0.149   7.964   2.525
 2027WAT     H2 6324   0.241   7.965   2.660
 2028WAT      O 6325   9.335   1.010   9.868
 2028WAT     H1 6326   9.346   1.026   9.770
 2028WAT     H2 6327   9.404   1.061   9.918
 2029WAT      O 6328   3.965   9.215   2.699
 2029WAT     H1 6329   3.968   9.274   2.780
 2029WAT     H2 6330   4.007   9.262   2.622
 2030WAT      O 6331   4.229   3.083   1.760
 2030WAT     H1 6332   4.145   3.070   1.706
 2030WAT     H2 6333   4.300   3.023   1.724
 2031WAT      O 6334   0.657   1.905   7.890
 2031WAT     H1 6335   0.703   1.975   7.945
 2031WAT     H2 6336   0.701   1.816   7.906
 2032WAT      O 6337   3.462   1.690   7.640
 2032WAT     H1 6338   3.483   1.784   7.666
 2032WAT     H2 6339   3.532   1.656   7.578
 2033WAT      O 6340   1.634   4.509   7.820
 2033WAT     H1 6341   1.562   4.504   7.889
 2033WAT     H2 6342   1.637   4.601   7.781
 2034WAT      O 6343   5.383   4.294   2.220
 2034WAT     H1 6344   5.362   4.385   2.256
 2034WAT     H2 6345   5.351   4.288   2.125
 2035WAT      O 6346   3.275   2.936   1.587
 2035WAT     H1 6347   3.255   2.980   1.500
 2035WAT     H2 6348   3.226   2.849   1.593
 2036WAT      O 6349   3.811   1.427   5.612
 2036WAT     H1 6350   3.888   1.487   5.634
 2036WAT     H2 6351   3.837   1.365   5.538
 2037WAT      O 6352   0.162   1.990   2.102
 2037WAT     H1 6353   0.114   1.919   2.154
 2037WAT     H2 6354   0.260   1.981   2.116
 2038WAT      O 6355   0.975   9.133   2.331
 2038WAT     H1 6356   1.068   9.111   2.361
 2038WAT     H2 6357   0.966   9.110   2.234
 2039WAT      O 6358   7.736   6.546   9.320
 2039WAT     H1 6359   7.787   6.500   9.392
 2039WAT     H2 6360   7.722   6.642   9.346
 2040WAT      O 6361   0.388   5.784   0.740
 2040WAT     H1 6362   0.387   5.848   0.663
 2040WAT     H2 6363   0.437   5.700   0.713
 2041WAT      O 6364   7.004   4.157   2.236
 2041WAT     H1 6365   6.927   4.192   2.290
 2041WAT     H2 6366   6.980   4.067   2.198
 2042WAT      O 6367   9.059   7.796   7.860
 2042WAT     H1 6368   9.123   7.833   7.793
 2042WAT     H2 6369   9.076   7.699   7.874
 2043WAT      O 6370   7.553   7.957   7.699
 2043WAT     H1 6371   7.539   7.897   7.778
 2043WAT     H2 6372   7.559   7.901   7.616
 2044WAT      O 6373   8.004   5.068   4.274
 2044WAT     H1 6374   8.027   5.130   4.349
 2044WAT     H2 6375   8.087   5.021   4.243
 2045WAT      O 6376   0.739   9.422   0.636
 2045WAT     H1 6377   0.680   9.439   0.557
 2045WAT     H2 6378   0.730   9.327   0.665
 2046WAT      O 6379   2.329   8.591   4.018
 2046WAT     H1 6380   2.263   8.664   4.006
 2046WAT     H2 6381   2.315   8.547   4.107
 2047WAT      O 6382   8.752   1.989   8.700
 2047WAT     H1 6383   8.745   2.086   8.724
 2047WAT     H2 6384   8.745   1.933   8.783
 2048WAT      O 6385   8.931   4.428   7.591
 2048WAT     H1 6386   8.871   4.391   7.520
 2048WAT     H2 6387   9.018   4.457   7.549
 2049WAT      O 6388   0.923   5.220   7.118
 2049WAT     H1 6389   0.983   5.299   7.133
 2049WAT     H2 6390   0.899   5.214   7.021
 2050WAT      O 6391   9.202   2.586   4.584
 2050WAT     H1 6392   9.133   2.592   4.657
 2050WAT     H2 6393   9.171   2.638   4.505
 2051WAT      O 6394   6.754   6.698   0.767
 2051WAT     H1 6395   6.776   6.668   0.674
 2051WAT     H2 6396   6.655   6.704   0.777
 2052WAT      O 6397   0.308   5.653   4.650
 2052WAT     H1 6398   0.336   5.650   4.554
 2052WAT     H2 6399   0.350   5.576   4.699
 2053WAT      O 6400   1.219   3.538   9.829
 2053WAT     H1 6401   1.285   3.613   9.828
 2053WAT     H2 6402   1.137   3.566   9.879
 2054WAT      O 6403   0.564   1.716   9.771
 2054WAT     H1 6404   0.523   1.751   9.856
 2054WAT     H2 6405   0.632   1.782   9.738
 2055WAT      O 6406   3.191   2.399   9.763
 2055WAT     H1 6407   3.128   2.344   9.817
 2055WAT     H2 6408   3.139   2.470   9.714
 2056WAT      O 6409   7.839   1.221   7.162
 2056WAT     H1 6410   7.848   1.270   7.075
 2056WAT     H2 6411   7.743   1.219   7.189
 2057WAT      O 6412   9.378   9.279   2.918
 2057WAT     H1 6413   9.374   9.352   2.987
 2057WAT     H2 6414   9.438   9.308   2.843
 2058WAT      O 6415   2.914   5.773   3.448
 2058WAT     H1 6416   3.006   5.741   3.471
 2058WAT     H2 6417   2.846   5.712   3.490
 2059WAT      O 6418   6.332   8.097   2.689
 2059WAT     H1 6419   6.271   8.032   2.644
 2059WAT     H2 6420   6.286   8.138   2.767
 2060WAT      O 6421   8.726   6.132   6.541
 2060WAT     H1 6422   8.805   6.104   6.487
 2060WAT     H2 6423   8.643   6.117   6.488
 2061WAT      O 6424   9.031   7.527   3.289
 2061WAT     H1 6425   9.019   7.448   3.228
 2061WAT     H2 6426   8.958   7.528   3.357
 2062WAT      O 6427   2.788   8.959   1.552
 2062WAT     H1 6428   2.699   8.981   1.593
 2062WAT     H2 6429   2.861   9.003   1.605
 2063WAT      O 6430   4.857   5.061   4.416
 2063WAT     H1 6431   4.898   5.079   4.327
 2063WAT     H2 6432   4.874   5.139   4.477
 2064WAT      O 6433   5.178   3.878   1.028
 2064WAT     H1 6434   5.199   3.787   1.062
 2064WAT     H2 6435   5.125   3.872   0.943
 2065WAT      O 6436   7.708   9.459   2.451
 2065WAT     H1 6437   7.704   9.534   2.385
 2065WAT     H2 6438   7.625   9.404   2.446
 2066WAT      O 6439   9.607   2.845   8.548
 2066WAT     H1 6440   9.586   2.912   8.618
 2066WAT     H2 6441   9.653   2.889   8.471
 2067WAT      O 6442   1.549   4.239   3.260
 2067WAT     H1 6443   1.562   4.323   3.313
 2067WAT     H2 6444   1.621   4.232   3.190
 2068WAT      O 6445   3.982   1.196   5.755
 2068WAT     H1 6446   4.014   1.291   5.752
 2068WAT     H2 6447   3.884   1.193   5.734
 2069WAT      O 6448   1.744   0.529   5.564
 2069WAT     H1 6449   1.817   0.467   5.534
 2069WAT     H2 6450   1.775   0.623   5.558
 2070WAT      O 6451   6.095   5.056   6.577
 2070WAT     H1 6452   6.114   4.996   6.500
 2070WAT     H2 6453   6.130   5.014   6.661
 2071WAT      O 6454   0.138   2.670   0.772
 2071WAT     H1 6455   0.128   2.760   0.730
 2071WAT     H2 6456   0.118   2.677   0.870
 2072WAT      O 6457   7.829   2.032   9.734
 2072WAT     H1 6458   7.799   2.104   9.797
 2072WAT     H2 6459   7.764   2.023   9.659
 2073WAT      O 6460   1.294   3.764   2.326
 2073WAT     H1 6461   1.245   3.805   2.403
 2073WAT     H2 6462   1.372   3.821   2.302
 2074WAT      O 6463   5.865   0.017   8.303
 2074WAT     H1 6464   5.828  -0.014   8.391
 2074WAT     H2 6465   5.965   0.020   8.309
 2075WAT      O 6466   4.584   6.833   3.058
 2075WAT     H1 6467   4.493   6.858   3.024
 2075WAT     H2 6468   4.654   6.863   2.993
 2076WAT      O 6469   5.943   1.969   3.051
 2076WAT     H1 6470   6.035   1.931   3.058
 2076WAT     H2 6471   5.946   2.053   2.996
 2077WAT      O 6472   4.743   3.711   3.146
 2077WAT     H1 6473   4.665   3.725   3.207
 2077WAT     H2 6474   4.810   3.783   3.161
 2078WAT      O 6475   0.747   9.307   2.707
 2078WAT     H1 6476   0.749   9.399   2.668
 2078WAT     H2 6477   0.822   9.298   2.773
 2079WAT      O 6478   2.855   9.513   3.012
 2079WAT     H1 6479   2.921   9.468   3.071
 2079WAT     H2 6480   2.762   9.494   3.045
 2080WAT      O 6481   7.925   8.100   2.806
 2080WAT     H1 6482   7.961   8.113   2.713
 2080WAT     H2 6483   7.927   8.187   2.855
 2081WAT      O 6484   3.867   7.652   5.706
 2081WAT     H1 6485   3.919   7.566   5.714
 2081WAT     H2 6486   3.929   7.729   5.716
 2082WAT      O 6487   7.086   9.332   3.546
 2082WAT     H1 6488   7.062   9.261   3.479
 2082WAT     H2 6489   7.120   9.288   3.630
 2083WAT      O 6490   4.141   1.809   0.953
 2083WAT     H1 6491   4.169   1.718   0.984
 2083WAT     H2 6492   4.164   1.820   0.856
 2084WAT      O 6493   8.808   7.990   0.251
 2084WAT     H1 6494   8.885   7.930   0.272
 2084WAT     H2 6495   8.764   7.960   0.166
 2085WAT      O 6496   1.511   7.666   1.785
 2085WAT     H1 6497   1.541   7.730   1.713
 2085WAT     H2 6498   1.413   7.651   1.777
 2086WAT      O 6499   4.144   4.777   1.731
 2086WAT     H1 6500   4.078   4.717   1.687
 2086WAT     H2 6501   4.099   4.862   1.759
 2087WAT      O 6502   8.942   2.985   9.266
 2087WAT     H1 6503   8.875   3.036   9.321
 2087WAT     H2 6504   9.002   3.050   9.219
 2088WAT      O 6505   5.781   6.473   8.690
 2088WAT     H1 6506   5.815   6.386   8.725
 2088WAT     H2 6507   5.755   6.463   8.594
 2089WAT      O 6508   7.016   4.744   3.349
 2089WAT     H1 6509   7.084   4.804   3.392
 2089WAT     H2 6510   7.027   4.651   3.383
 2090WAT      O 6511   2.192   7.595   7.554
 2090WAT     H1 6512   2.141   7.600   7.640
 2090WAT     H2 6513   2.129   7.606   7.477
 2091WAT      O 6514   3.053   9.836   1.305
 2091WAT     H1 6515   2.994   9.915   1.321
 2091WAT     H2 6516   2.997   9.759   1.273
 2092WAT      O 6517   3.647   2.998   0.613
 2092WAT     H1 6518   3.672   3.089   0.579
 2092WAT     H2 6519   3.600   2.947   0.540
 2093WAT      O 6520   5.938   4.460   3.250
 2093WAT     H1 6521   6.017   4.473   3.309
 2093WAT     H2 6522   5.868   4.528   3.271
 2094WAT      O 6523   0.913   0.454   7.517
 2094WAT     H1 6524   0.947   0.491   7.603
 2094WAT     H2 6525   0.813   0.453   7.518
 2095WAT      O 6526   0.845   6.650   7.743
 2095WAT     H1 6527   0.750   6.619   7.738
 2095WAT     H2 6528   0.868   6.703   7.661
 2096WAT      O 6529   4.711   7.687   1.391
 2096WAT     H1 6530   4.724   7.715   1.295
 2096WAT     H2 6531   4.641   7.746   1.432
 2097WAT      O 6532   5.637   5.639   2.275
 2097WAT     H1 6533   5.629   5.702   2.352
 2097WAT     H2 6534   5.576   5.669   2.201
 2098WAT      O 6535   5.600   2.108   1.001
 2098WAT     H1 6536   5.624   2.109   1.098
 2098WAT     H2 6537   5.656   2.039   0.954
 2099WAT      O 6538   6.259   6.561   7.575
 2099WAT     H1 6539   6.285   6.500   7.650
 2099WAT     H2 6540   6.306   6.534   7.492
 2100WAT      O 6541   1.276   1.437   1.419
 2100WAT     H1 6542   1.296   1.345   1.454
 2100WAT     H2 6543   1.244   1.495   1.494
 2101WAT      O 6544   4.607   2.493   1.471
 2101WAT     H1 6545   4.553   2.561   1.422
 2101WAT     H2 6546   4.546   2.420   1.502
 2102WAT      O 6547   1.577   3.441   0.834
 2102WAT     H1 6548   1.479   3.423   0.839
 2102WAT     H2 6549   1.597   3.531   0.874
 2103WAT      O 6550   7.200   9.398   7.477
 2103WAT     H1 6551   7.181   9.431   7.385
 2103WAT     H2 6552   7.268   9.324   7.472
 2104WAT      O 6553   5.287   3.383   1.262
 2104WAT     H1 6554   5.329   3.307   1.212
 2104WAT     H2 6555   5.335   3.396   1.349
 2105WAT      O 6556   1.330   1.132   8.109
 2105WAT     H1 6557   1.408   1.137   8.171
 2105WAT     H2 6558   1.303   1.224   8.081
 2106WAT      O 6559   1.375   1.866   8.875
 2106WAT     H1 6560   1.335   1.922   8.947
 2106WAT     H2 6561   1.365   1.769   8.898
 2107WAT      O 6562   9.363   8.825   4.182
 2107WAT     H1 6563   9.297   8.766   4.226
 2107WAT     H2 6564   9.436   8.849   4.246
 2108WAT      O 6565   8.223   6.716   8.792
 2108WAT     H1 6566   8.234   6.670   8.880
 2108WAT     H2 6567   8.251   6.655   8.718
 2109WAT      O 6568   2.046   7.856   0.698
 2109WAT     H1 6569   2.001   7.775   0.659
 2109WAT     H2 6570   2.110   7.894   0.630
 2110WAT      O 6571   2.750   1.904   2.369
 2110WAT     H1 6572   2.713   1.996   2.379
 2110WAT     H2 6573   2.702   1.857   2.295
 2111WAT      O 6574   3.174   3.181   2.646
 2111WAT     H1 6575   3.118   3.201   2.566
 2111WAT     H2 6576   3.177   3.082   2.661
 2112WAT      O 6577   8.631   6.484   0.308
 2112WAT     H1 6578   8.541   6.503   0.347
 2112WAT     H2 6579   8.639   6.528   0.219
 2113WAT      O 6580   4.470   3.559   7.939
 2113WAT     H1 6581   4.509   3.640   7.983
 2113WAT     H2 6582   4.508   3.476   7.981
 2114WAT      O 6583   8.733   7.931   2.218
 2114WAT     H1 6584   8.670   7.917   2.141
 2114WAT     H2 6585   8.794   8.007   2.198
 2115WAT      O 6586   8.100   2.401   0.725
 2115WAT     H1 6587   8.112   2.433   0.631
 2115WAT     H2 6588   8.027   2.453   0.768
 2116WAT      O 6589   4.933   3.897   1.945
 2116WAT     H1 6590   4.943   3.817   1.885
 2116WAT     H2 6591   4.916   3.865   2.038
 2117WAT      O 6592   2.613   0.415   2.219
 2117WAT     H1 6593   2.543   0.354   2.182
 2117WAT     H2 6594   2.618   0.498   2.163
 2118WAT      O 6595   2.506   3.925   1.998
 2118WAT     H1 6596   2.516   4.008   2.053
 2118WAT     H2 6597   2.414   3.922   1.958
 2119WAT      O 6598   0.831   8.096   6.379
 2119WAT     H1 6599   0.835   8.135   6.471
 2119WAT     H2 6600   0.917   8.114   6.331
 2120WAT      O 6601   1.138   5.260   1.306
 2120WAT     H1 6602   1.124   5.162   1.323
 2120WAT     H2 6603   1.224   5.274   1.257
 2121WAT      O 6604   3.781   3.980   2.979
 2121WAT     H1 6605   3.822   4.054   2.926
 2121WAT     H2 6606   3.815   3.892   2.944
 2122WAT      O 6607   7.562   3.086   3.567
 2122WAT     H1 6608   7.624   3.032   3.509
 2122WAT     H2 6609   7.493   3.130   3.509
 2123WAT      O 6610   4.037   3.966   8.788
 2123WAT     H1 6611   4.130   3.996   8.765
 2123WAT     H2 6612   3.989   4.039   8.836
 2124WAT      O 6613   0.554   9.726   7.104
 2124WAT     H1 6614   0.553   9.628   7.124
 2124WAT     H2 6615   0.609   9.773   7.172
 2125WAT      O 6616   4.528   6.207   1.203
 2125WAT     H1 6617   4.528   6.148   1.123
 2125WAT     H2 6618   4.573   6.294   1.180
 2126WAT      O 6619   5.622   0.256   4.557
 2126WAT     H1 6620   5.555   0.217   4.620
 2126WAT     H2 6621   5.713   0.250   4.598
 2127WAT      O 6622   7.497   2.282   8.542
 2127WAT     H1 6623   7.504   2.198   8.489
 2127WAT     H2 6624   7.456   2.262   8.631
 2128WAT      O 6625   2.146   4.821   8.705
 2128WAT     H1 6626   2.231   4.872   8.714
 2128WAT     H2 6627   2.155   4.733   8.752
 2129WAT      O 6628   0.196   1.192   4.466
 2129WAT     H1 6629   0.200   1.098   4.501
 2129WAT     H2 6630   0.284   1.237   4.483
 2130WAT      O 6631   8.613   1.555   5.956
 2130WAT     H1 6632   8.698   1.605   5.937
 2130WAT     H2 6633   8.601   1.544   6.054
 2131WAT      O 6634   7.332   4.946   8.874
 2131WAT     H1 6635   7.242   4.910   8.900
 2131WAT     H2 6636   7.381   4.974   8.957
 2132WAT      O 6637   2.689   6.442   2.789
 2132WAT     H1 6638   2.642   6.488   2.713
 2132WAT     H2 6639   2.627   6.377   2.833
 2133WAT      O 6640   5.971   9.673   1.942
 2133WAT     H1 6641   6.071   9.678   1.940
 2133WAT     H2 6642   5.942   9.616   2.018
 2134WAT      O 6643   6.956   2.493   7.287
 2134WAT     H1 6644   7.035   2.522   7.340
 2134WAT     H2 6645   6.959   2.393   7.276
 2135WAT      O 6646   2.367   4.451   6.278
 2135WAT     H1 6647   2.356   4.482   6.372
 2135WAT     H2 6648   2.454   4.484   6.242
 2136WAT      O 6649   5.787   5.379   8.014
 2136WAT     H1 6650   5.857   5.427   7.960
 2136WAT     H2 6651   5.696   5.402   7.979
 2137WAT      O 6652   9.804   2.577   2.422
 2137WAT     H1 6653   9.768   2.493   2.462
 2137WAT     H2 6654   9.766   2.589   2.330
 2138WAT      O 6655   5.382   5.084   3.831
 2138WAT     H1 6656   5.479   5.074   3.809
 2138WAT     H2 6657   5.370   5.164   3.889
 2139WAT      O 6658   4.235   5.012   4.180
 2139WAT     H1 6659   4.300   5.037   4.251
 2139WAT     H2 6660   4.142   5.019   4.215
 2140WAT      O 6661   1.740   0.074   3.236
 2140WAT     H1 6662   1.765   0.066   3.140
 2140WAT     H2 6663   1.822   0.094   3.290
 2141WAT      O 6664   3.220   2.929   8.007
 2141WAT     H1 6665   3.198   2.991   8.082
 2141WAT     H2 6666   3.164   2.847   8.013
 2142WAT      O 6667   3.635   3.737   1.443
 2142WAT     H1 6668   3.550   3.765   1.488
 2142WAT     H2 6669   3.640   3.780   1.353
 2143WAT      O 6670   1.362   0.150   7.535
 2143WAT     H1 6671   1.366   0.209   7.455
 2143WAT     H2 6672   1.447   0.098   7.543
 2144WAT      O 6673   7.580   7.863   7.181
 2144WAT     H1 6674   7.572   7.810   7.097
 2144WAT     H2 6675   7.674   7.895   7.192
 2145WAT      O 6676   4.746   0.391   0.623
 2145WAT     H1 6677   4.774   0.341   0.705
 2145WAT     H2 6678   4.675   0.457   0.647
 2146WAT      O 6679   1.246   9.003   3.792
 2146WAT     H1 6680   1.311   8.927   3.800
 2146WAT     H2 6681   1.183   8.985   3.716
 2147WAT      O 6682   7.912   5.091   6.189
 2147WAT     H1 6683   7.837   5.024   6.192
 2147WAT     H2 6684   7.966   5.077   6.106
 2148WAT      O 6685   4.294   0.565   3.147
 2148WAT     H1 6686   4.363   0.509   3.100
 2148WAT     H2 6687   4.252   0.628   3.082
 2149WAT      O 6688   1.991   1.774   4.225
 2149WAT     H1 6689   1.954   1.782   4.317
 2149WAT     H2 6690   2.036   1.860   4.200
 2150WAT      O 6691   4.132   5.739   3.377
 2150WAT     H1 6692   4.077   5.808   3.328
 2150WAT     H2 6693   4.216   5.722   3.327
 2151WAT      O 6694   2.495   2.309   2.893
 2151WAT     H1 6695   2.395   2.311   2.892
 2151WAT     H2 6696   2.531   2.394   2.855
 2152WAT      O 6697   1.794   1.832   6.462
 2152WAT     H1 6698   1.764   1.828   6.557
 2152WAT     H2 6699   1.882   1.785   6.452
 2153WAT      O 6700   9.209   1.030   9.543
 2153WAT     H1 6701   9.253   1.106   9.591
 2153WAT     H2 6702   9.182   1.060   9.452
 2154WAT      O 6703   4.889   7.645   2.262
 2154WAT     H1 6704   4.855   7.608   2.175
 2154WAT     H2 6705   4.834   7.726   2.286
 2155WAT      O 6706   4.036   6.688   4.955
 2155WAT     H1 6707   3.937   6.697   4.961
 2155WAT     H2 6708   4.067   6.714   4.864
 2156WAT      O 6709   7.210   4.450   8.337
 2156WAT     H1 6710   7.189   4.431   8.433
 2156WAT     H2 6711   7.137   4.415   8.279
 2157WAT      O 6712   6.268   1.966   7.075
 2157WAT     H1 6713   6.298   1.873   7.054
 2157WAT     H2 6714   6.259   2.018   6.990
 2158WAT      O 6715   4.322   1.478   9.255
 2158WAT     H1 6716   4.336   1.394   9.203
 2158WAT     H2 6717   4.390   1.546   9.226
 2159WAT      O 6718   4.442   4.808   4.872
 2159WAT     H1 6719   4.445   4.782   4.968
 2159WAT     H2 6720   4.346   4.820   4.844
 2160WAT      O 6721   6.044   7.963   1.441
 2160WAT     H1 6722   6.119   8.028   1.428
 2160WAT     H2 6723   5.994   7.986   1.524
 2161WAT      O 6724   3.191   4.548   2.515
 2161WAT     H1 6725   3.224   4.455   2.529
 2161WAT     H2 6726   3.213   4.578   2.422
 2162WAT      O 6727   7.522   0.111   5.767
 2162WAT     H1 6728   7.619   0.135   5.773
 2162WAT     H2 6729   7.474   0.181   5.715
 2163WAT      O 6730   4.668   5.003   3.163
 2163WAT     H1 6731   4.723   5.076   3.123
 2163WAT     H2 6732   4.693   4.990   3.259
 2164WAT      O 6733   7.547   0.435   2.196
 2164WAT     H1 6734   7.608   0.373   2.147
 2164WAT     H2 6735   7.458   0.437   2.150
 2165WAT      O 6736   3.866   2.435   4.697
 2165WAT     H1 6737   3.860   2.530   4.666
 2165WAT     H2 6738   3.775   2.404   4.724
 2166WAT      O 6739   6.854   6.569   1.794
 2166WAT     H1 6740   6.885   6.541   1.703
 2166WAT     H2 6741   6.779   6.635   1.785
 2167WAT      O 6742   3.822   2.671   3.111
 2167WAT     H1 6743   3.783   2.676   3.019
 2167WAT     H2 6744   3.877   2.587   3.119
 2168WAT      O 6745   5.641   6.663   0.719
 2168WAT     H1 6746   5.696   6.580   0.704
 2168WAT     H2 6747   5.692   6.726   0.777
 2169WAT      O 6748   7.049   8.961   6.472
 2169WAT     H1 6749   7.051   9.032   6.401
 2169WAT     H2 6750   7.044   8.871   6.428
 2170WAT      O 6751   4.491   0.842   5.067
 2170WAT     H1 6752   4.453   0.901   5.139
 2170WAT     H2 6753   4.510   0.898   4.986
 2171WAT      O 6754   6.463   5.842   3.090
 2171WAT     H1 6755   6.396   5.780   3.049
 2171WAT     H2 6756   6.434   5.867   3.183
 2172WAT      O 6757   9.708   5.061   0.119
 2172WAT     H1 6758   9.779   5.112   0.071
 2172WAT     H2 6759   9.630   5.047   0.058
 2173WAT      O 6760   6.530   9.393   9.715
 2173WAT     H1 6761   6.538   9.478   9.766
 2173WAT     H2 6762   6.471   9.407   9.636
 2174WAT      O 6763   5.590   3.436   2.925
 2174WAT     H1 6764   5.588   3.364   2.856
 2174WAT     H2 6765   5.685   3.466   2.939
 2175WAT      O 6766   6.129   0.572   6.406
 2175WAT     H1 6767   6.075   0.554   6.324
 2175WAT     H2 6768   6.225   0.551   6.388
 2176WAT      O 6769   1.959   1.834   7.983
 2176WAT     H1 6770   2.054   1.807   7.973
 2176WAT     H2 6771   1.954   1.923   8.030
 2177WAT      O 6772   2.506   6.731   3.893
 2177WAT     H1 6773   2.466   6.777   3.814
 2177WAT     H2 6774   2.500   6.632   3.881
 2178WAT      O 6775   1.320   9.719   3.011
 2178WAT     H1 6776   1.307   9.817   3.028
 2178WAT     H2 6777   1.403   9.689   3.058
 2179WAT      O 6778   4.510   6.100   0.949
 2179WAT     H1 6779   4.445   6.047   0.894
 2179WAT     H2 6780   4.539   6.181   0.898
 2180WAT      O 6781   7.613   8.917   5.151
 2180WAT     H1 6782   7.592   8.936   5.247
 2180WAT     H2 6783   7.560   8.977   5.093
 2181WAT      O 6784   9.321   9.683   7.742
 2181WAT     H1 6785   9.283   9.711   7.829
 2181WAT     H2 6786   9.262   9.713   7.668
 2182WAT      O 6787   2.765   1.443   3.800
 2182WAT     H1 6788   2.770   1.532   3.844
 2182WAT     H2 6789   2.689   1.443   3.735
 2183WAT      O 6790   5.335   0.933   4.135
 2183WAT     H1 6791   5.293   1.023   4.122
 2183WAT     H2 6792   5.304   0.871   4.064
 2184WAT      O 6793   1.862   2.875   1.264
 2184WAT     H1 6794   1.875   2.969   1.232
 2184WAT     H2 6795   1.948   2.824   1.254
 2185WAT      O 6796   4.499   4.189   6.044
 2185WAT     H1 6797   4.515   4.278   6.086
 2185WAT     H2 6798   4.414   4.150   6.080
 2186WAT      O 6799   4.413   3.468   9.627
 2186WAT     H1 6800   4.509   3.493   9.644
 2186WAT     H2 6801   4.353   3.531   9.675
 2187WAT      O 6802   2.386   1.618   6.655
 2187WAT     H1 6803   2.339   1.541   6.613
 2187WAT     H2 6804   2.483   1.597   6.666
 2188WAT      O 6805   6.764   1.296   8.374
 2188WAT     H1 6806   6.823   1.294   8.294
 2188WAT     H2 6807   6.674   1.332   8.348
 2189WAT      O 6808   0.804   5.618   4.515
 2189WAT     H1 6809   0.751   5.567   4.448
 2189WAT     H2 6810   0.809   5.714   4.487
 2190WAT      O 6811   3.747   8.490   3.481
 2190WAT     H1 6812   3.705   8.435   3.554
 2190WAT     H2 6813   3.676   8.532   3.425
 2191WAT      O 6814   6.523   8.871   1.440
 2191WAT     H1 6815   6.512   8.834   1.533
 2191WAT     H2 6816   6.611   8.917   1.433
 2192WAT      O 6817   7.325   4.576   5.245
 2192WAT     H1 6818   7.244   4.540   5.292
 2192WAT     H2 6819   7.369   4.504   5.193
 2193WAT      O 6820   5.148   6.035   9.427
 2193WAT     H1 6821   5.112   5.968   9.493
 2193WAT     H2 6822   5.102   6.122   9.440
 2194WAT      O 6823   8.909   4.417   9.021
 2194WAT     H1 6824   8.888   4.514   9.007
 2194WAT     H2 6825   8.837   4.361   8.978
 2195WAT      O 6826   3.602   4.470   7.362
 2195WAT     H1 6827   3.575   4.438   7.271
 2195WAT     H2 6828   3.613   4.391   7.423
 2196WAT      O 6829   9.527   0.745   3.276
 2196WAT     H1 6830   9.567   0.835   3.292
 2196WAT     H2 6831   9.600   0.676   3.272
 2197WAT      O 6832   2.127   0.906   7.624
 2197WAT     H1 6833   2.213   0.855   7.620
 2197WAT     H2 6834   2.050   0.843   7.609
 2198WAT      O 6835   5.690   7.140   5.889
 2198WAT     H1 6836   5.764   7.155   5.954
 2198WAT     H2 6837   5.724   7.087   5.811
 2199WAT      O 6838   0.281   5.522   5.525
 2199WAT     H1 6839   0.192   5.561   5.549
 2199WAT     H2 6840   0.340   5.522   5.606
 2200WAT      O 6841   5.218   0.657   9.439
 2200WAT     H1 6842   5.189   0.640   9.533
 2200WAT     H2 6843   5.230   0.571   9.390
 2201WAT      O 6844   8.508   3.758   4.527
 2201WAT     H1 6845   8.582   3.721   4.583
 2201WAT     H2 6846   8.547   3.816   4.455
 2202WAT      O 6847   5.317   1.153   8.321
 2202WAT     H1 6848   5.262   1.128   8.400
 2202WAT     H2 6849   5.413   1.156   8.347
 2203WAT      O 6850   2.446   4.854   4.965
 2203WAT     H1 6851   2.404   4.769   4.996
 2203WAT     H2 6852   2.460   4.914   5.044
 2204WAT      O 6853   6.155   6.982   9.104
 2204WAT     H1 6854   6.187   6.977   9.010
 2204WAT     H2 6855   6.204   6.914   9.159
 2205WAT      O 6856   0.534   7.816   3.779
 2205WAT     H1 6857   0.529   7.717   3.792
 2205WAT     H2 6858   0.609   7.853   3.833
 2206WAT      O 6859   4.032   7.466   0.549
 2206WAT     H1 6860   3.939   7.455   0.515
 2206WAT     H2 6861   4.054   7.390   0.610
 2207WAT      O 6862   7.555   3.087   0.201
 2207WAT     H1 6863   7.562   3.167   0.259
 2207WAT     H2 6864   7.615   3.097   0.122
 2208WAT      O 6865   1.717   6.178   5.266
 2208WAT     H1 6866   1.696   6.159   5.362
 2208WAT     H2 6867   1.773   6.261   5.261
 2209WAT      O 6868   4.149   7.801   0.717
 2209WAT     H1 6869   4.070   7.755   0.758
 2209WAT     H2 6870   4.120   7.890   0.681
 2210WAT      O 6871   9.244   3.575   3.628
 2210WAT     H1 6872   9.177   3.563   3.556
 2210WAT     H2 6873   9.244   3.670   3.659
 2211WAT      O 6874   3.062   6.549   4.346
 2211WAT     H1 6875   3.061   6.639   4.389
 2211WAT     H2 6876   3.092   6.480   4.412
 2212WAT      O 6877   6.498   3.761   2.818
 2212WAT     H1 6878   6.515   3.810   2.904
 2212WAT     H2 6879   6.577   3.703   2.796
 2213WAT      O 6880   1.916   5.532   9.366
 2213WAT     H1 6881   2.014   5.530   9.347
 2213WAT     H2 6882   1.898   5.593   9.442
 2214WAT      O 6883   4.618   2.484   5.957
 2214WAT     H1 6884   4.574   2.457   5.871
 2214WAT     H2 6885   4.637   2.582   5.955
 2215WAT      O 6886   2.536   8.980   3.785
 2215WAT     H1 6887   2.453   8.961   3.733
 2215WAT     H2 6888   2.520   9.056   3.847
 2216WAT      O 6889   3.865   7.351   0.887
 2216WAT     H1 6890   3.935   7.289   0.923
 2216WAT     H2 6891   3.879   7.364   0.789
 2217WAT      O 6892   7.555   3.093   3.186
 2217WAT     H1 6893   7.489   3.122   3.256
 2217WAT     H2 6894   7.535   3.141   3.100
 2218WAT      O 6895   2.432   4.860   2.662
 2218WAT     H1 6896   2.519   4.868   2.709
 2218WAT     H2 6897   2.375   4.791   2.706
 2219WAT      O 6898   5.836   5.073   7.356
 2219WAT     H1 6899   5.902   5.025   7.413
 2219WAT     H2 6900   5.746   5.033   7.368
 2220WAT      O 6901   2.716   2.876   1.875
 2220WAT     H1 6902   2.620   2.850   1.866
 2220WAT     H2 6903   2.724   2.976   1.872
 2221WAT      O 6904   6.043   5.491   5.386
 2221WAT     H1 6905   6.043   5.404   5.335
 2221WAT     H2 6906   5.985   5.482   5.466
 2222WAT      O 6907   1.315   2.970   7.065
 2222WAT     H1 6908   1.271   2.894   7.016
 2222WAT     H2 6909   1.249   3.011   7.128
 2223WAT      O 6910   2.744   6.492   7.974
 2223WAT     H1 6911   2.809   6.445   7.915
 2223WAT     H2 6912   2.779   6.493   8.068
 2224WAT      O 6913   3.594   7.535   1.311
 2224WAT     H1 6914   3.688   7.514   1.335
 2224WAT     H2 6915   3.590   7.565   1.215
 2225WAT      O 6916   2.811   1.996   0.949
 2225WAT     H1 6917   2.853   2.076   0.993
 2225WAT     H2 6918   2.720   1.980   0.988
 2226WAT      O 6919   0.615   4.904   0.878
 2226WAT     H1 6920   0.581   4.831   0.819
 2226WAT     H2 6921   0.641   4.983   0.823
 2227WAT      O 6922   8.120   6.505   8.173
 2227WAT     H1 6923   8.044   6.508   8.107
 2227WAT     H2 6924   8.147   6.598   8.197
 2228WAT      O 6925   4.368   9.133   6.773
 2228WAT     H1 6926   4.338   9.069   6.703
 2228WAT     H2 6927   4.315   9.119   6.856
 2229WAT      O 6928   3.258   6.292   7.823
 2229WAT     H1 6929   3.285   6.328   7.912
 2229WAT     H2 6930   3.327   6.317   7.755
 2230WAT      O 6931   5.528   9.775   7.719
 2230WAT     H1 6932   5.460   9.845   7.696
 2230WAT     H2 6933   5.530   9.762   7.818
 2231WAT      O 6934   3.890   2.146   0.113
 2231WAT     H1 6935   3.801   2.175   0.079
 2231WAT     H2 6936   3.936   2.222   0.159
 2232WAT      O 6937   4.692   2.293   9.516
 2232WAT     H1 6938   4.606   2.305   9.565
 2232WAT     H2 6939   4.685   2.215   9.454
 2233WAT      O 6940   4.736   2.599   8.198
 2233WAT     H1 6941   4.828   2.560   8.194
 2233WAT     H2 6942   4.687   2.576   8.113
 2234WAT      O 6943   1.163   4.587   7.927
 2234WAT     H1 6944   1.104   4.585   8.008
 2234WAT     H2 6945   1.130   4.520   7.861
 2235WAT      O 6946   5.931   4.064   3.438
 2235WAT     H1 6947   5.901   3.975   3.472
 2235WAT     H2 6948   5.949   4.125   3.515
 2236WAT      O 6949   2.567   3.712   7.205
 2236WAT     H1 6950   2.562   3.766   7.122
 2236WAT     H2 6951   2.637   3.641   7.195
 2237WAT      O 6952   3.505   8.220   4.012
 2237WAT     H1 6953   3.420   8.234   4.063
 2237WAT     H2 6954   3.484   8.209   3.915
 2238WAT      O 6955   4.171   3.625   6.067
 2238WAT     H1 6956   4.183   3.702   6.005
 2238WAT     H2 6957   4.078   3.590   6.060
 2239WAT      O 6958   5.246   2.429   0.816
 2239WAT     H1 6959   5.167   2.446   0.875
 2239WAT     H2 6960   5.324   2.401   0.872
 2240WAT      O 6961   4.278   2.206   5.618
 2240WAT     H1 6962   4.191   2.213   5.666
 2240WAT     H2 6963   4.319   2.116   5.637
 2241WAT      O 6964   8.491   5.535   2.477
 2241WAT     H1 6965   8.552   5.602   2.519
 2241WAT     H2 6966   8.406   5.579   2.450
 2242WAT      O 6967   7.456   2.210   5.487
 2242WAT     H1 6968   7.374   2.157   5.507
 2242WAT     H2 6969   7.525   2.150   5.445
 2243WAT      O 6970   2.852   0.165   1.391
 2243WAT     H1 6971   2.813   0.103   1.459
 2243WAT     H2 6972   2.911   0.232   1.437
 2244WAT      O 6973   1.333   3.740   4.195
 2244WAT     H1 6974   1.252   3.798   4.189
 2244WAT     H2 6975   1.407   3.780   4.140
 2245WAT      O 6976   4.886   6.969   3.143
 2245WAT     H1 6977   4.948   7.016   3.205
 2245WAT     H2 6978   4.822   6.913   3.196
 2246WAT      O 6979   3.203   9.041   3.202
 2246WAT     H1 6980   3.146   9.008   3.277
 2246WAT     H2 6981   3.246   9.127   3.228
 2247WAT      O 6982   1.239   2.647   2.013
 2247WAT     H1 6983   1.287   2.559   2.002
 2247WAT     H2 6984   1.278   2.714   1.950
 2248WAT      O 6985   2.154   3.068   9.009
 2248WAT     H1 6986   2.127   3.001   9.079
 2248WAT     H2 6987   2.247   3.048   8.979
 2249WAT      O 6988   4.331   6.014   9.619
 2249WAT     H1 6989   4.346   5.983   9.713
 2249WAT     H2 6990   4.338   6.114   9.616
 2250WAT      O 6991   7.729   5.031   5.912
 2250WAT     H1 6992   7.825   5.050   5.893
 2250WAT     H2 6993   7.721   4.962   5.984
 2251WAT      O 6994   4.716   3.616   8.569
 2251WAT     H1 6995   4.763   3.624   8.657
 2251WAT     H2 6996   4.645   3.546   8.576
 2252WAT      O 6997   9.542   1.050   7.372
 2252WAT     H1 6998   9.529   1.036   7.274
 2252WAT     H2 6999   9.555   0.961   7.417
 2253WAT      O 7000   3.414   3.541   7.896
 2253WAT     H1 7001   3.460   3.478   7.834
 2253WAT     H2 7002   3.429   3.511   7.990
 2254WAT      O 7003   1.269   6.939   7.874
 2254WAT     H1 7004   1.200   6.932   7.946
 2254WAT     H2 7005   1.225   6.959   7.787
 2255WAT      O 7006   9.246   0.272   9.112
 2255WAT     H1 7007   9.341   0.303   9.106
 2255WAT     H2 7008   9.244   0.172   9.117
 2256WAT      O 7009   4.806   5.136   6.993
 2256WAT     H1 7010   4.793   5.153   6.895
 2256WAT     H2 7011   4.720   5.154   7.041
 2257WAT      O 7012   4.945   8.661   4.373
 2257WAT     H1 7013   4.994   8.577   4.346
 2257WAT     H2 7014   4.979   8.738   4.319
 2258WAT      O 7015   9.864   3.205   2.351
 2258WAT     H1 7016   9.776   3.239   2.382
 2258WAT     H2 7017   9.933   3.220   2.422
 2259WAT      O 7018   8.207   7.097   0.026
 2259WAT     H1 7019   8.246   7.121   0.115
 2259WAT     H2 7020   8.126   7.154   0.009
 2260WAT      O 7021   7.332   9.222   3.995
 2260WAT     H1 7022   7.265   9.260   3.931
 2260WAT     H2 7023   7.344   9.284   4.072
 2261WAT      O 7024   4.157   6.224   5.465
 2261WAT     H1 7025   4.251   6.251   5.486
 2261WAT     H2 7026   4.094   6.283   5.514
 2262WAT      O 7027   0.842   2.346   8.762
 2262WAT     H1 7028   0.914   2.293   8.807
 2262WAT     H2 7029   0.753   2.321   8.801
 2263WAT      O 7030   1.117   9.502   8.285
 2263WAT     H1 7031   1.158   9.540   8.367
 2263WAT     H2 7032   1.183   9.441   8.240
 2264WAT      O 7033   2.884   9.570   8.067
 2264WAT     H1 7034   2.932   9.652   8.097
 2264WAT     H2 7035   2.931   9.489   8.102
 2265WAT      O 7036   1.606   6.930   9.254
 2265WAT     H1 7037   1.565   6.980   9.330
 2265WAT     H2 7038   1.699   6.964   9.239
 2266WAT      O 7039   2.625   6.423   4.710
 2266WAT     H1 7040   2.638   6.430   4.611
 2266WAT     H2 7041   2.534   6.388   4.729
 2267WAT      O 7042   4.103   8.941   0.767
 2267WAT     H1 7043   4.024   8.960   0.708
 2267WAT     H2 7044   4.178   8.906   0.711
 2268WAT      O 7045   2.165   7.501   6.765
 2268WAT     H1 7046   2.146   7.565   6.691
 2268WAT     H2 7047   2.086   7.442   6.781
 2269WAT      O 7048   1.510   3.344   3.705
 2269WAT     H1 7049   1.558   3.265   3.667
 2269WAT     H2 7050   1.522   3.345   3.804
 2270WAT      O 7051   3.734   7.825   3.371
 2270WAT     H1 7052   3.783   7.748   3.330
 2270WAT     H2 7053   3.649   7.793   3.412
 2271WAT      O 7054   3.759   5.061   6.895
 2271WAT     H1 7055   3.820   5.126   6.940
 2271WAT     H2 7056   3.743   4.983   6.956
 2272WAT      O 7057   6.866   1.871   5.434
 2272WAT     H1 7058   6.867   1.802   5.506
 2272WAT     H2 7059   6.777   1.868   5.387
 2273WAT      O 7060   6.314   5.137   6.416
 2273WAT     H1 7061   6.341   5.043   6.435
 2273WAT     H2 7062   6.260   5.173   6.493
 2274WAT      O 7063   5.915   9.810   9.215
 2274WAT     H1 7064   5.954   9.737   9.273
 2274WAT     H2 7065   5.832   9.845   9.258
 2275WAT      O 7066   7.685   4.353   6.302
 2275WAT     H1 7067   7.652   4.445   6.280
 2275WAT     H2 7068   7.750   4.323   6.233
 2276WAT      O 7069   2.418   8.398   0.792
 2276WAT     H1 7070   2.369   8.414   0.706
 2276WAT     H2 7071   2.463   8.309   0.789
 2277WAT      O 7072   6.590   7.156   8.868
 2277WAT     H1 7073   6.535   7.076   8.845
 2277WAT     H2 7074   6.534   7.238   8.858
 2278WAT      O 7075   8.528   0.439   3.627
 2278WAT     H1 7076   8.456   0.437   3.696
 2278WAT     H2 7077   8.616   0.456   3.670
 2279WAT      O 7078   5.315   0.297   0.981
 2279WAT     H1 7079   5.409   0.265   0.989
 2279WAT     H2 7080   5.289   0.298   0.884
 2280WAT      O 7081   9.302   2.442   1.380
 2280WAT     H1 7082   9.239   2.379   1.335
 2280WAT     H2 7083   9.339   2.400   1.463
 2281WAT      O 7084   0.352   4.357   3.307
 2281WAT     H1 7085   0.364   4.327   3.212
 2281WAT     H2 7086   0.272   4.311   3.347
 2282WAT      O 7087   4.476   0.801   2.934
 2282WAT     H1 7088   4.444   0.826   3.025
 2282WAT     H2 7089   4.508   0.883   2.886
 2283WAT      O 7090   1.550   2.386   8.353
 2283WAT     H1 7091   1.510   2.329   8.424
 2283WAT     H2 7092   1.508   2.477   8.354
 2284WAT      O 7093   9.797   2.057   4.509
 2284WAT     H1 7094   9.700   2.084   4.506
 2284WAT     H2 7095   9.805   1.962   4.538
 2285WAT      O 7096   6.330   0.925   0.956
 2285WAT     H1 7097   6.337   0.827   0.937
 2285WAT     H2 7098   6.271   0.940   1.035
 2286WAT      O 7099   5.139   5.150   4.491
 2286WAT     H1 7100   5.159   5.177   4.397
 2286WAT     H2 7101   5.059   5.200   4.524
 2287WAT      O 7102   0.575   7.525   2.471
 2287WAT     H1 7103   0.634   7.603   2.494
 2287WAT     H2 7104   0.582   7.456   2.543
 2288WAT      O 7105   2.835   8.573   6.469
 2288WAT     H1 7106   2.811   8.616   6.555
 2288WAT     H2 7107   2.900   8.498   6.486
 2289WAT      O 7108   0.989   9.616   3.415
 2289WAT     H1 7109   1.048   9.539   3.391
 2289WAT     H2 7110   0.943   9.650   3.333
 2290WAT      O 7111   1.994   4.087   3.173
 2290WAT     H1 7112   2.045   4.040   3.245
 2290WAT     H2 7113   1.994   4.185   3.190
 2291WAT      O 7114   1.509   4.827   9.550
 2291WAT     H1 7115   1.506   4.737   9.592
 2291WAT     H2 7116   1.430   4.838   9.488
 2292WAT      O 7117   6.748   7.944   4.570
 2292WAT     H1 7118   6.835   7.979   4.538
 2292WAT     H2 7119   6.705   8.011   4.631
 2293WAT      O 7120   4.676   1.746   3.253
 2293WAT     H1 7121   4.748   1.726   3.186
 2293WAT     H2 7122   4.705   1.714   3.343
 2294WAT      O 7123   9.609   5.212   2.798
 2294WAT     H1 7124   9.578   5.293   2.748
 2294WAT     H2 7125   9.542   5.190   2.869
 2295WAT      O 7126   7.800   9.334   7.231
 2295WAT     H1 7127   7.704   9.344   7.205
 2295WAT     H2 7128   7.857   9.328   7.149
 2296WAT      O 7129   3.274   3.875   2.380
 2296WAT     H1 7130   3.289   3.974   2.381
 2296WAT     H2 7131   3.361   3.829   2.366
 2297WAT      O 7132   9.285   9.647   0.337
 2297WAT     H1 7133   9.205   9.587   0.335
 2297WAT     H2 7134   9.368   9.593   0.338
 2298WAT      O 7135   0.479   2.003   7.068
 2298WAT     H1 7136   0.382   2.023   7.081
 2298WAT     H2 7137   0.507   1.929   7.129
 2299WAT      O 7138   0.079   2.939   7.647
 2299WAT     H1 7139   0.136   3.010   7.688
 2299WAT     H2 7140  -0.009   2.935   7.695
 2300WAT      O 7141   9.680   6.200   1.957
 2300WAT     H1 7142   9.776   6.175   1.964
 2300WAT     H2 7143   9.647   6.231   2.047
 2301WAT      O 7144   1.939   0.791   1.026
 2301WAT     H1 7145   1.936   0.695   1.053
 2301WAT     H2 7146   1.846   0.829   1.029
 2302WAT      O 7147   2.899   8.052   0.490
 2302WAT     H1 7148   2.864   8.038   0.397
 2302WAT     H2 7149   2.975   7.989   0.506
 2303WAT      O 7150   9.365   5.051   6.617
 2303WAT     H1 7151   9.317   5.000   6.546
 2303WAT     H2 7152   9.393   4.989   6.691
 2304WAT      O 7153   5.276   6.358   3.539
 2304WAT     H1 7154   5.296   6.420   3.463
 2304WAT     H2 7155   5.298   6.264   3.512
 2305WAT      O 7156   9.836   6.591   0.515
 2305WAT     H1 7157   9.926   6.636   0.516
 2305WAT     H2 7158   9.805   6.578   0.609
 2306WAT      O 7159   9.356   4.471   0.171
 2306WAT     H1 7160   9.453   4.473   0.194
 2306WAT     H2 7161   9.341   4.405   0.097
 2307WAT      O 7162   9.475   6.884   7.588
 2307WAT     H1 7163   9.397   6.918   7.641
 2307WAT     H2 7164   9.488   6.786   7.605
 2308WAT      O 7165   5.718   3.212   0.412
 2308WAT     H1 7166   5.794   3.177   0.467
 2308WAT     H2 7167   5.707   3.310   0.429
 2309WAT      O 7168   5.686   2.597   5.122
 2309WAT     H1 7169   5.767   2.549   5.155
 2309WAT     H2 7170   5.672   2.681   5.175
 2310WAT      O 7171   6.865   6.819   2.571
 2310WAT     H1 7172   6.849   6.856   2.662
 2310WAT     H2 7173   6.814   6.733   2.560
 2311WAT      O 7174   9.296   2.912   1.651
 2311WAT     H1 7175   9.265   2.831   1.603
 2311WAT     H2 7176   9.344   2.973   1.587
 2312WAT      O 7177   6.627   8.977   1.788
 2312WAT     H1 7178   6.624   9.067   1.744
 2312WAT     H2 7179   6.612   8.988   1.886
 2313WAT      O 7180   9.829   3.880   0.190
 2313WAT     H1 7181   9.885   3.820   0.247
 2313WAT     H2 7182   9.763   3.929   0.248
 2314WAT      O 7183   2.692   1.791   5.890
 2314WAT     H1 7184   2.718   1.772   5.984
 2314WAT     H2 7185   2.672   1.888   5.880
 2315WAT      O 7186   8.886   9.455   0.995
 2315WAT     H1 7187   8.831   9.415   1.067
 2315WAT     H2 7188   8.973   9.486   1.032
 2316WAT      O 7189   6.999   7.733   5.178
 2316WAT     H1 7190   6.974   7.824   5.211
 2316WAT     H2 7191   7.020   7.736   5.081
 2317WAT      O 7192   0.794   8.978   8.896
 2317WAT     H1 7193   0.866   8.991   8.828
 2317WAT     H2 7194   0.725   8.916   8.859
 2318WAT      O 7195   2.532   4.633   6.150
 2318WAT     H1 7196   2.628   4.621   6.126
 2318WAT     H2 7197   2.523   4.707   6.217
 2319WAT      O 7198   8.163   2.799   4.132
 2319WAT     H1 7199   8.113   2.865   4.189
 2319WAT     H2 7200   8.208   2.848   4.057
 2320WAT      O 7201   4.107   2.614   6.358
 2320WAT     H1 7202   4.159   2.559   6.424
 2320WAT     H2 7203   4.050   2.555   6.302
 2321WAT      O 7204   2.314   3.054   2.842
 2321WAT     H1 7205   2.387   3.085   2.781
 2321WAT     H2 7206   2.236   3.116   2.836
 2322WAT      O 7207   5.270   1.275   7.784
 2322WAT     H1 7208   5.337   1.349   7.794
 2322WAT     H2 7209   5.317   1.186   7.792
 2323WAT      O 7210   4.874   0.137   4.318
 2323WAT     H1 7211   4.972   0.154   4.304
 2323WAT     H2 7212   4.824   0.160   4.235
 2324WAT      O 7213   5.858   7.494   3.678
 2324WAT     H1 7214   5.799   7.537   3.747
 2324WAT     H2 7215   5.850   7.545   3.592
 2325WAT      O 7216   5.861   0.124   5.745
 2325WAT     H1 7217   5.776   0.074   5.731
 2325WAT     H2 7218   5.841   0.216   5.780
 2326WAT      O 7219   9.159   1.072   2.022
 2326WAT     H1 7220   9.246   1.023   2.024
 2326WAT     H2 7221   9.168   1.159   2.071
 2327WAT      O 7222   5.855   6.815   6.213
 2327WAT     H1 7223   5.869   6.727   6.258
 2327WAT     H2 7224   5.932   6.833   6.152
 2328WAT      O 7225   4.099   1.900   0.409
 2328WAT     H1 7226   4.110   1.926   0.313
 2328WAT     H2 7227   4.077   1.980   0.463
 2329WAT      O 7228   5.361   8.821   3.286
 2329WAT     H1 7229   5.402   8.872   3.210
 2329WAT     H2 7230   5.278   8.775   3.254
 2330WAT      O 7231   2.444   8.648   6.844
 2330WAT     H1 7232   2.368   8.628   6.906
 2330WAT     H2 7233   2.417   8.722   6.782
 2331WAT      O 7234   2.695   9.178   5.684
 2331WAT     H1 7235   2.782   9.223   5.703
 2331WAT     H2 7236   2.644   9.231   5.616
 2332WAT      O 7237   8.536   5.602   7.745
 2332WAT     H1 7238   8.597   5.592   7.824
 2332WAT     H2 7239   8.527   5.699   7.723
 2333WAT      O 7240   5.570   3.536   3.667
 2333WAT     H1 7241   5.581   3.634   3.680
 2333WAT     H2 7242   5.631   3.487   3.730
 2334WAT      O 7243   3.235   2.139   6.830
 2334WAT     H1 7244   3.181   2.056   6.844
 2334WAT     H2 7245   3.181   2.219   6.854
 2335WAT      O 7246   7.362   4.502   6.337
 2335WAT     H1 7247   7.451   4.538   6.309
 2335WAT     H2 7248   7.373   4.440   6.414
 2336WAT      O 7249   8.604   8.930   2.382
 2336WAT     H1 7250   8.629   8.849   2.435
 2336WAT     H2 7251   8.516   8.915   2.338
 2337WAT      O 7252   0.897   9.280   3.758
 2337WAT     H1 7253   0.886   9.370   3.715
 2337WAT     H2 7254   0.994   9.257   3.761
 2338WAT      O 7255   3.523   0.305   5.928
 2338WAT     H1 7256   3.431   0.268   5.929
 2338WAT     H2 7257   3.522   0.400   5.960
 2339WAT      O 7258   5.873   6.236   0.225
 2339WAT     H1 7259   5.880   6.183   0.140
 2339WAT     H2 7260   5.819   6.318   0.209
 2340WAT      O 7261   6.628   5.798   1.937
 2340WAT     H1 7262   6.577   5.714   1.922
 2340WAT     H2 7263   6.719   5.776   1.973
 2341WAT      O 7264   1.180   9.793   6.498
 2341WAT     H1 7265   1.162   9.701   6.463
 2341WAT     H2 7266   1.151   9.799   6.593
 2342WAT      O 7267   8.119   1.335   8.452
 2342WAT     H1 7268   8.034   1.310   8.500
 2342WAT     H2 7269   8.197   1.291   8.497
 2343WAT      O 7270   2.903   7.616   2.976
 2343WAT     H1 7271   2.949   7.705   2.968
 2343WAT     H2 7272   2.970   7.547   3.005
 2344WAT      O 7273   0.813   4.767   7.372
 2344WAT     H1 7274   0.776   4.679   7.343
 2344WAT     H2 7275   0.821   4.828   7.293
 2345WAT      O 7276   4.745   4.107   7.638
 2345WAT     H1 7277   4.752   4.195   7.593
 2345WAT     H2 7278   4.765   4.117   7.736
 2346WAT      O 7279   1.486   6.597   4.437
 2346WAT     H1 7280   1.399   6.585   4.483
 2346WAT     H2 7281   1.472   6.603   4.338
 2347WAT      O 7282   7.173   4.206   3.993
 2347WAT     H1 7283   7.236   4.194   4.069
 2347WAT     H2 7284   7.108   4.279   4.013
 2348WAT      O 7285   9.583   1.712   9.250
 2348WAT     H1 7286   9.661   1.665   9.209
 2348WAT     H2 7287   9.559   1.667   9.336
 2349WAT      O 7288   8.788   4.216   7.721
 2349WAT     H1 7289   8.766   4.274   7.642
 2349WAT     H2 7290   8.845   4.267   7.785
 2350WAT      O 7291   1.682   5.654   2.237
 2350WAT     H1 7292   1.626   5.737   2.240
 2350WAT     H2 7293   1.645   5.587   2.301
 2351WAT      O 7294   8.259   1.279   9.732
 2351WAT     H1 7295   8.186   1.218   9.764
 2351WAT     H2 7296   8.312   1.233   9.661
 2352WAT      O 7297   7.669   6.385   6.572
 2352WAT     H1 7298   7.769   6.378   6.561
 2352WAT     H2 7299   7.630   6.294   6.586
 2353WAT      O 7300   6.595   8.987   6.844
 2353WAT     H1 7301   6.678   8.935   6.863
 2353WAT     H2 7302   6.618   9.082   6.826
 2354WAT      O 7303   0.661   3.747   6.278
 2354WAT     H1 7304   0.630   3.654   6.256
 2354WAT     H2 7305   0.585   3.800   6.315
 2355WAT      O 7306   6.146   7.829   7.203
 2355WAT     H1 7307   6.135   7.774   7.120
 2355WAT     H2 7308   6.239   7.819   7.238
 2356WAT      O 7309   3.196   8.215   7.320
 2356WAT     H1 7310   3.110   8.206   7.268
 2356WAT     H2 7311   3.218   8.311   7.331
 2357WAT      O 7312   3.582   4.473   8.768
 2357WAT     H1 7313   3.594   4.376   8.749
 2357WAT     H2 7314   3.485   4.496   8.762
 2358WAT      O 7315   6.298   4.635   8.500
 2358WAT     H1 7316   6.289   4.638   8.400
 2358WAT     H2 7317   6.220   4.682   8.542
 2359WAT      O 7318   1.114   7.252   9.611
 2359WAT     H1 7319   1.170   7.311   9.553
 2359WAT     H2 7320   1.024   7.294   9.625
 2360WAT      O 7321   9.883   5.880   0.530
 2360WAT     H1 7322   9.919   5.924   0.612
 2360WAT     H2 7323   9.849   5.949   0.467
 2361WAT      O 7324   3.122   3.701   5.358
 2361WAT     H1 7325   3.221   3.712   5.347
 2361WAT     H2 7326   3.102   3.608   5.391
 2362WAT      O 7327   6.227   2.223   8.934
 2362WAT     H1 7328   6.224   2.166   9.016
 2362WAT     H2 7329   6.322   2.250   8.915
 2363WAT      O 7330   7.543   4.874   2.236
 2363WAT     H1 7331   7.533   4.903   2.331
 2363WAT     H2 7332   7.461   4.823   2.209
 2364WAT      O 7333   6.359   8.460   5.866
 2364WAT     H1 7334   6.313   8.378   5.899
 2364WAT     H2 7335   6.396   8.511   5.944
 2365WAT      O 7336   4.528   8.290   8.534
 2365WAT     H1 7337   4.467   8.365   8.512
 2365WAT     H2 7338   4.606   8.291   8.471
 2366WAT      O 7339   1.979   3.322   7.224
 2366WAT     H1 7340   2.045   3.330   7.299
 2366WAT     H2 7341   1.914   3.397   7.227
 2367WAT      O 7342   4.356   9.309   3.878
 2367WAT     H1 7343   4.406   9.378   3.826
 2367WAT     H2 7344   4.279   9.275   3.824
 2368WAT      O 7345   1.379   5.530   6.914
 2368WAT     H1 7346   1.371   5.519   7.013
 2368WAT     H2 7347   1.430   5.453   6.876
 2369WAT      O 7348   7.647   6.201   3.912
 2369WAT     H1 7349   7.619   6.156   3.827
 2369WAT     H2 7350   7.745   6.189   3.926
 2370WAT      O 7351   7.685   8.289   6.113
 2370WAT     H1 7352   7.628   8.348   6.170
 2370WAT     H2 7353   7.751   8.241   6.170
 2371WAT      O 7354   1.793   1.633   3.641
 2371WAT     H1 7355   1.845   1.702   3.692
 2371WAT     H2 7356   1.849   1.550   3.631
 2372WAT      O 7357   2.605   4.564   0.636
 2372WAT     H1 7358   2.649   4.642   0.593
 2372WAT     H2 7359   2.674   4.506   0.679
 2373WAT      O 7360   4.104   8.568   4.433
 2373WAT     H1 7361   4.143   8.657   4.411
 2373WAT     H2 7362   4.035   8.579   4.505
 2374WAT      O 7363   0.229   0.109   3.331
 2374WAT     H1 7364   0.222   0.198   3.286
 2374WAT     H2 7365   0.191   0.039   3.271
 2375WAT      O 7366   5.752   9.707   4.703
 2375WAT     H1 7367   5.808   9.743   4.628
 2375WAT     H2 7368   5.743   9.608   4.693
 2376WAT      O 7369   3.855   8.391   2.283
 2376WAT     H1 7370   3.808   8.367   2.368
 2376WAT     H2 7371   3.802   8.356   2.205
 2377WAT      O 7372   6.181   4.992   6.850
 2377WAT     H1 7373   6.146   4.918   6.909
 2377WAT     H2 7374   6.129   5.076   6.868
 2378WAT      O 7375   6.877   5.460   9.531
 2378WAT     H1 7376   6.967   5.478   9.491
 2378WAT     H2 7377   6.870   5.362   9.552
 2379WAT      O 7378   1.947   6.577   4.573
 2379WAT     H1 7379   1.958   6.496   4.515
 2379WAT     H2 7380   2.004   6.651   4.538
 2380WAT      O 7381   2.763   8.320   7.797
 2380WAT     H1 7382   2.666   8.304   7.818
 2380WAT     H2 7383   2.776   8.414   7.768
 2381WAT      O 7384   5.837   5.434   4.030
 2381WAT     H1 7385   5.832   5.347   3.981
 2381WAT     H2 7386   5.885   5.420   4.117
 2382WAT      O 7387   0.177   5.455   0.239
 2382WAT     H1 7388   0.199   5.359   0.224
 2382WAT     H2 7389   0.216   5.486   0.326
 2383WAT      O 7390   5.340   5.848   6.042
 2383WAT     H1 7391   5.310   5.753   6.046
 2383WAT     H2 7392   5.345   5.885   6.135
 2384WAT      O 7393   8.306   2.511   5.099
 2384WAT     H1 7394   8.246   2.548   5.169
 2384WAT     H2 7395   8.255   2.445   5.043
 2385WAT      O 7396   6.011   6.292   2.859
 2385WAT     H1 7397   5.973   6.202   2.837
 2385WAT     H2 7398   6.076   6.318   2.788
 2386WAT      O 7399   7.776   8.167   4.278
 2386WAT     H1 7400   7.725   8.141   4.195
 2386WAT     H2 7401   7.872   8.180   4.255
 2387WAT      O 7402   1.175   9.056   6.073
 2387WAT     H1 7403   1.135   9.040   6.163
 2387WAT     H2 7404   1.103   9.081   6.008
 2388WAT      O 7405   5.846   9.207   9.634
 2388WAT     H1 7406   5.885   9.200   9.726
 2388WAT     H2 7407   5.753   9.169   9.635
 2389WAT      O 7408   2.823   6.838   9.134
 2389WAT     H1 7409   2.875   6.805   9.213
 2389WAT     H2 7410   2.817   6.938   9.137
 2390WAT      O 7411   5.284   8.149   6.622
 2390WAT     H1 7412   5.302   8.199   6.707
 2390WAT     H2 7413   5.201   8.093   6.634
 2391WAT      O 7414   0.971   5.297   7.734
 2391WAT     H1 7415   0.969   5.200   7.755
 2391WAT     H2 7416   1.020   5.313   7.648
 2392WAT      O 7417   0.220   8.992   9.018
 2392WAT     H1 7418   0.276   9.075   9.019
 2392WAT     H2 7419   0.192   8.972   8.924
 2393WAT      O 7420   2.014   0.506   0.625
 2393WAT     H1 7421   2.052   0.578   0.684
 2393WAT     H2 7422   1.924   0.480   0.660
 2394WAT      O 7423   4.212   0.669   8.252
 2394WAT     H1 7424   4.149   0.600   8.287
 2394WAT     H2 7425   4.282   0.624   8.196
 2395WAT      O 7426   4.436   6.678   4.935
 2395WAT     H1 7427   4.417   6.771   4.968
 2395WAT     H2 7428   4.362   6.617   4.963
 2396WAT      O 7429   0.024   2.338   7.993
 2396WAT     H1 7430  -0.069   2.333   8.030
 2396WAT     H2 7431   0.022   2.382   7.903
 2397WAT      O 7432   9.722   6.822   2.206
 2397WAT     H1 7433   9.733   6.919   2.229
 2397WAT     H2 7434   9.638   6.810   2.153
 2398WAT      O 7435   9.094   7.565   5.490
 2398WAT     H1 7436   9.085   7.471   5.458
 2398WAT     H2 7437   9.056   7.627   5.421
 2399WAT      O 7438   3.805   8.803   8.997
 2399WAT     H1 7439   3.820   8.712   8.959
 2399WAT     H2 7440   3.861   8.815   9.078
 2400WAT      O 7441   3.830   9.495   7.290
 2400WAT     H1 7442   3.792   9.456   7.374
 2400WAT     H2 7443   3.773   9.572   7.260
 2401WAT      O 7444   8.990   6.036   6.736
 2401WAT     H1 7445   9.034   5.968   6.678
 2401WAT     H2 7446   8.895   6.008   6.753
 2402WAT      O 7447   0.550   5.602   1.797
 2402WAT     H1 7448   0.455   5.611   1.827
 2402WAT     H2 7449   0.557   5.528   1.730
 2403WAT      O 7450   5.240   8.244   1.523
 2403WAT     H1 7451   5.275   8.308   1.454
 2403WAT     H2 7452   5.180   8.294   1.586
 2404WAT      O 7453   8.825   2.768   7.021
 2404WAT     H1 7454   8.903   2.707   7.008
 2404WAT     H2 7455   8.840   2.853   6.970
 2405WAT      O 7456   2.382   2.469   4.629
 2405WAT     H1 7457   2.318   2.401   4.665
 2405WAT     H2 7458   2.352   2.560   4.656
 2406WAT      O 7459   0.910   9.225   3.339
 2406WAT     H1 7460   0.867   9.198   3.425
 2406WAT     H2 7461   1.007   9.199   3.341
 2407WAT      O 7462   9.508   1.488   8.591
 2407WAT     H1 7463   9.465   1.578   8.585
 2407WAT     H2 7464   9.568   1.485   8.672
 2408WAT      O 7465   9.209   0.563   4.955
 2408WAT     H1 7466   9.184   0.500   4.881
 2408WAT     H2 7467   9.182   0.523   5.043
 2409WAT      O 7468   3.567   0.625   1.224
 2409WAT     H1 7469   3.477   0.654   1.256
 2409WAT     H2 7470   3.608   0.698   1.170
 2410WAT      O 7471   8.268   9.317   7.358
 2410WAT     H1 7472   8.193   9.268   7.314
 2410WAT     H2 7473   8.354   9.293   7.315
 2411WAT      O 7474   5.567   1.960   2.210
 2411WAT     H1 7475   5.538   1.896   2.138
 2411WAT     H2 7476   5.562   2.053   2.175
 2412WAT      O 7477   1.621   2.295   0.436
 2412WAT     H1 7478   1.611   2.394   0.452
 2412WAT     H2 7479   1.605   2.246   0.521
 2413WAT      O 7480   3.085   8.256   3.824
 2413WAT     H1 7481   3.027   8.295   3.895
 2413WAT     H2 7482   3.093   8.321   3.748
 2414WAT      O 7483   9.657   2.564   5.222
 2414WAT     H1 7484   9.684   2.623   5.146
 2414WAT     H2 7485   9.557   2.560   5.228
 2415WAT      O 7486   3.358   7.981   2.177
 2415WAT     H1 7487   3.287   8.042   2.142
 2415WAT     H2 7488   3.315   7.903   2.224
 2416WAT      O 7489   2.164   4.099   1.391
 2416WAT     H1 7490   2.110   4.101   1.475
 2416WAT     H2 7491   2.135   4.020   1.335
 2417WAT      O 7492   5.465   5.855   4.386
 2417WAT     H1 7493   5.476   5.897   4.476
 2417WAT     H2 7494   5.530   5.780   4.376
 2418WAT      O 7495   8.104   2.221   3.150
 2418WAT     H1 7496   8.071   2.246   3.241
 2418WAT     H2 7497   8.027   2.213   3.087
 2419WAT      O 7498   3.668   3.760   3.610
 2419WAT     H1 7499   3.749   3.783   3.556
 2419WAT     H2 7500   3.595   3.730   3.548
 2420WAT      O 7501   5.878   9.137   1.882
 2420WAT     H1 7502   5.883   9.040   1.908
 2420WAT     H2 7503   5.785   9.159   1.854
 2421WAT      O 7504   2.896   3.288   4.031
 2421WAT     H1 7505   2.864   3.321   3.942
 2421WAT     H2 7506   2.868   3.353   4.102
 2422WAT      O 7507   0.123   1.524   7.547
 2422WAT     H1 7508   0.099   1.472   7.628
 2422WAT     H2 7509   0.155   1.615   7.573
 2423WAT      O 7510   3.842   6.846   6.610
 2423WAT     H1 7511   3.841   6.897   6.696
 2423WAT     H2 7512   3.795   6.899   6.539
 2424WAT      O 7513   8.738   8.300   0.004
 2424WAT     H1 7514   8.791   8.363  -0.053
 2424WAT     H2 7515   8.647   8.337   0.020
 2425WAT      O 7516   0.023   1.833   9.047
 2425WAT     H1 7517   0.123   1.843   9.055
 2425WAT     H2 7518  -0.008   1.872   8.961
 2426WAT      O 7519   3.210   6.824   6.414
 2426WAT     H1 7520   3.137   6.841   6.480
 2426WAT     H2 7521   3.294   6.799   6.462
 2427WAT      O 7522   0.052   9.177   9.118
 2427WAT     H1 7523   0.116   9.103   9.096
 2427WAT     H2 7524   0.073   9.257   9.063
 2428WAT      O 7525   1.656   9.591   4.863
 2428WAT     H1 7526   1.723   9.616   4.794
 2428WAT     H2 7527   1.700   9.589   4.953
 2429WAT      O 7528   3.282   7.743   2.267
 2429WAT     H1 7529   3.221   7.680   2.218
 2429WAT     H2 7530   3.368   7.696   2.288
 2430WAT      O 7531   6.439   5.147   1.797
 2430WAT     H1 7532   6.450   5.240   1.762
 2430WAT     H2 7533   6.448   5.147   1.896
 2431WAT      O 7534   5.788   9.347   7.318
 2431WAT     H1 7535   5.825   9.394   7.398
 2431WAT     H2 7536   5.794   9.406   7.238
 2432WAT      O 7537   3.789   6.998   2.694
 2432WAT     H1 7538   3.737   7.011   2.610
 2432WAT     H2 7539   3.886   7.005   2.675
 2433WAT      O 7540   1.010   3.632   1.747
 2433WAT     H1 7541   0.964   3.583   1.674
 2433WAT     H2 7542   1.108   3.636   1.728
 2434WAT      O 7543   5.860   7.762   4.923
 2434WAT     H1 7544   5.948   7.757   4.875
 2434WAT     H2 7545   5.875   7.758   5.022
 2435WAT      O 7546   6.721   3.085   3.382
 2435WAT     H1 7547   6.712   3.059   3.286
 2435WAT     H2 7548   6.656   3.158   3.403
 2436WAT      O 7549   2.749   4.762   7.369
 2436WAT     H1 7550   2.652   4.767   7.347
 2436WAT     H2 7551   2.793   4.693   7.311
 2437WAT      O 7552   6.720   7.948   3.837
 2437WAT     H1 7553   6.653   7.985   3.902
 2437WAT     H2 7554   6.767   8.023   3.791
 2438WAT      O 7555   7.000   7.267   8.375
 2438WAT     H1 7556   7.072   7.323   8.335
 2438WAT     H2 7557   6.932   7.326   8.418
 2439WAT      O 7558   7.204   9.471   2.883
 2439WAT     H1 7559   7.216   9.570   2.890
 2439WAT     H2 7560   7.107   9.449   2.883
 2440WAT      O 7561   6.116   6.652   4.428
 2440WAT     H1 7562   6.076   6.730   4.477
 2440WAT     H2 7563   6.062   6.633   4.346
 2441WAT      O 7564   9.833   1.367   1.617
 2441WAT     H1 7565   9.858   1.320   1.701
 2441WAT     H2 7566   9.815   1.300   1.545
 2442WAT      O 7567   4.624   3.749   2.197
 2442WAT     H1 7568   4.568   3.816   2.247
 2442WAT     H2 7569   4.643   3.784   2.105
 2443WAT      O 7570   9.880   3.663   1.064
 2443WAT     H1 7571   9.808   3.602   1.099
 2443WAT     H2 7572   9.838   3.750   1.035
 2444WAT      O 7573   0.600   7.140   3.538
 2444WAT     H1 7574   0.602   7.239   3.528
 2444WAT     H2 7575   0.535   7.101   3.473
 2445WAT      O 7576   0.845   6.381   1.876
 2445WAT     H1 7577   0.925   6.386   1.936
 2445WAT     H2 7578   0.828   6.471   1.835
 2446WAT      O 7579   6.024   2.038   2.413
 2446WAT     H1 7580   5.926   2.038   2.394
 2446WAT     H2 7581   6.074   2.011   2.330
 2447WAT      O 7582   5.385   4.397   9.060
 2447WAT     H1 7583   5.397   4.484   9.013
 2447WAT     H2 7584   5.295   4.358   9.038
 2448WAT      O 7585   5.299   3.221   5.153
 2448WAT     H1 7586   5.309   3.184   5.061
 2448WAT     H2 7587   5.215   3.185   5.194
 2449WAT      O 7588   5.781   0.556   0.457
 2449WAT     H1 7589   5.772   0.522   0.363
 2449WAT     H2 7590   5.842   0.636   0.457
 2450WAT      O 7591   4.489   9.408   3.211
 2450WAT     H1 7592   4.435   9.462   3.148
 2450WAT     H2 7593   4.473   9.311   3.194
 2451WAT      O 7594   8.113   1.128   9.354
 2451WAT     H1 7595   8.099   1.144   9.257
 2451WAT     H2 7596   8.138   1.213   9.399
 2452WAT      O 7597   9.280   0.769   5.360
 2452WAT     H1 7598   9.182   0.781   5.340
 2452WAT     H2 7599   9.331   0.766   5.274
 2453WAT      O 7600   0.548   4.359   0.231
 2453WAT     H1 7601   0.602   4.275   0.228
 2453WAT     H2 7602   0.508   4.376   0.141
 2454WAT      O 7603   1.393   9.382   5.244
 2454WAT     H1 7604   1.384   9.451   5.172
 2454WAT     H2 7605   1.346   9.412   5.326
 2455WAT      O 7606   5.405   0.327   9.424
 2455WAT     H1 7607   5.443   0.294   9.338
 2455WAT     H2 7608   5.477   0.374   9.476
 2456WAT      O 7609   6.317   8.482   8.373
 2456WAT     H1 7610   6.239   8.501   8.313
 2456WAT     H2 7611   6.364   8.568   8.394
 2457WAT      O 7612   9.084   8.147   8.702
 2457WAT     H1 7613   9.055   8.196   8.785
 2457WAT     H2 7614   9.008   8.092   8.668
 2458WAT      O 7615   0.333   7.538   1.780
 2458WAT     H1 7616   0.264   7.602   1.746
 2458WAT     H2 7617   0.293   7.446   1.784
 2459WAT      O 7618   1.445   7.161   0.187
 2459WAT     H1 7619   1.451   7.247   0.239
 2459WAT     H2 7620   1.485   7.087   0.241
 2460WAT      O 7621   7.219   7.110   5.468
 2460WAT     H1 7622   7.264   7.025   5.495
 2460WAT     H2 7623   7.165   7.094   5.385
 2461WAT      O 7624   2.508   0.766   5.522
 2461WAT     H1 7625   2.498   0.698   5.450
 2461WAT     H2 7626   2.427   0.766   5.580
 2462WAT      O 7627   6.827   5.691   7.416
 2462WAT     H1 7628   6.746   5.681   7.473
 2462WAT     H2 7629   6.905   5.715   7.473
 2463WAT      O 7630   8.260   2.227   2.308
 2463WAT     H1 7631   8.185   2.264   2.253
 2463WAT     H2 7632   8.224   2.192   2.394
 2464WAT      O 7633   3.847   3.877   9.584
 2464WAT     H1 7634   3.923   3.938   9.607
 2464WAT     H2 7635   3.842   3.803   9.651
 2465WAT      O 7636   4.680   7.427   6.467
 2465WAT     H1 7637   4.715   7.366   6.396
 2465WAT     H2 7638   4.687   7.382   6.556
 2466WAT      O 7639   2.075   4.142   3.566
 2466WAT     H1 7640   2.143   4.169   3.634
 2466WAT     H2 7641   1.985   4.135   3.609
 2467WAT      O 7642   7.299   6.945   4.402
 2467WAT     H1 7643   7.341   6.985   4.320
 2467WAT     H2 7644   7.273   6.850   4.383
 2468WAT      O 7645   1.802   0.933   7.951
 2468WAT     H1 7646   1.795   0.921   7.852
 2468WAT     H2 7647   1.843   1.023   7.971
 2469WAT      O 7648   9.094   8.780   6.582
 2469WAT     H1 7649   9.170   8.845   6.578
 2469WAT     H2 7650   9.008   8.829   6.599
 2470WAT      O 7651   3.484   0.164   5.654
 2470WAT     H1 7652   3.439   0.076   5.671
 2470WAT     H2 7653   3.470   0.225   5.732
 2471WAT      O 7654   4.832   0.416   4.959
 2471WAT     H1 7655   4.910   0.356   4.978
 2471WAT     H2 7656   4.851   0.471   4.878
 2472WAT      O 7657   5.181   7.691   5.944
 2472WAT     H1 7658   5.170   7.677   5.845
 2472WAT     H2 7659   5.243   7.622   5.980
 2473WAT      O 7660   4.564   9.360   3.687
 2473WAT     H1 7661   4.566   9.460   3.697
 2473WAT     H2 7662   4.645   9.321   3.729
 2474WAT      O 7663   8.640   3.973   5.401
 2474WAT     H1 7664   8.726   3.940   5.364
 2474WAT     H2 7665   8.596   4.033   5.335
 2475WAT      O 7666   5.583   8.949   2.701
 2475WAT     H1 7667   5.668   8.985   2.663
 2475WAT     H2 7668   5.518   9.024   2.714
 2476WAT      O 7669   8.825   6.975   4.045
 2476WAT     H1 7670   8.912   6.938   4.079
 2476WAT     H2 7671   8.823   6.970   3.945
 2477WAT      O 7672   2.007   7.533   7.331
 2477WAT     H1 7673   1.913   7.544   7.363
 2477WAT     H2 7674   2.013   7.554   7.234
 2478WAT      O 7675   8.538   7.848   6.878
 2478WAT     H1 7676   8.548   7.855   6.978
 2478WAT     H2 7677   8.542   7.939   6.838
 2479WAT      O 7678   6.649   0.743   2.792
 2479WAT     H1 7679   6.736   0.726   2.837
 2479WAT     H2 7680   6.646   0.693   2.706
 2480WAT      O 7681   1.492   3.545   3.022
 2480WAT     H1 7682   1.526   3.566   2.930
 2480WAT     H2 7683   1.495   3.446   3.037
 2481WAT      O 7684   6.179   6.095   8.409
 2481WAT     H1 7685   6.259   6.056   8.364
 2481WAT     H2 7686   6.113   6.125   8.340
 2482WAT      O 7687   6.308   7.776   2.602
 2482WAT     H1 7688   6.259   7.691   2.583
 2482WAT     H2 7689   6.371   7.795   2.527
 2483WAT      O 7690   7.234   9.526   4.337
 2483WAT     H1 7691   7.205   9.579   4.257
 2483WAT     H2 7692   7.270   9.587   4.407
 2484WAT      O 7693   5.013   9.700   8.959
 2484WAT     H1 7694   5.066   9.665   9.035
 2484WAT     H2 7695   4.916   9.702   8.984
 2485WAT      O 7696   1.895   5.316   0.936
 2485WAT     H1 7697   1.952   5.373   0.876
 2485WAT     H2 7698   1.940   5.228   0.952
 2486WAT      O 7699   4.341   7.482   3.441
 2486WAT     H1 7700   4.306   7.548   3.375
 2486WAT     H2 7701   4.378   7.403   3.394
 2487WAT      O 7702   6.725   9.014   7.723
 2487WAT     H1 7703   6.626   9.001   7.716
 2487WAT     H2 7704   6.746   9.111   7.730
 2488WAT      O 7705   6.580   2.799   6.025
 2488WAT     H1 7706   6.642   2.877   6.033
 2488WAT     H2 7707   6.631   2.714   6.037
 2489WAT      O 7708   5.615   7.265   0.325
 2489WAT     H1 7709   5.520   7.250   0.296
 2489WAT     H2 7710   5.670   7.186   0.297
 2490WAT      O 7711   7.336   5.566   6.848
 2490WAT     H1 7712   7.310   5.635   6.780
 2490WAT     H2 7713   7.425   5.589   6.887
 2491WAT      O 7714   7.334   1.461   4.034
 2491WAT     H1 7715   7.291   1.480   4.122
 2491WAT     H2 7716   7.284   1.508   3.962
 2492WAT      O 7717   0.740   0.482   2.137
 2492WAT     H1 7718   0.789   0.565   2.110
 2492WAT     H2 7719   0.731   0.479   2.236
 2493WAT      O 7720   5.614   8.738   5.474
 2493WAT     H1 7721   5.714   8.749   5.466
 2493WAT     H2 7722   5.593   8.681   5.553
 2494WAT      O 7723   7.111   1.725   1.128
 2494WAT     H1 7724   7.133   1.751   1.034
 2494WAT     H2 7725   7.194   1.696   1.175
 2495WAT      O 7726   3.274   2.609   6.674
 2495WAT     H1 7727   3.294   2.511   6.673
 2495WAT     H2 7728   3.175   2.623   6.670
 2496WAT      O 7729   9.387   6.135   1.178
 2496WAT     H1 7730   9.302   6.086   1.156
 2496WAT     H2 7731   9.439   6.083   1.246
 2497WAT      O 7732   1.339   8.831   4.622
 2497WAT     H1 7733   1.323   8.758   4.688
 2497WAT     H2 7734   1.384   8.908   4.667
 2498WAT      O 7735   0.848   9.505   7.896
 2498WAT     H1 7736   0.767   9.556   7.925
 2498WAT     H2 7737   0.827   9.407   7.896
 2499WAT      O 7738   3.054   5.205   0.495
 2499WAT     H1 7739   3.039   5.304   0.495
 2499WAT     H2 7740   3.019   5.167   0.409
 2500WAT      O 7741   1.466   6.400   8.546
 2500WAT     H1 7742   1.434   6.454   8.468
 2500WAT     H2 7743   1.523   6.458   8.604
 2501WAT      O 7744   8.584   3.636   9.520
 2501WAT     H1 7745   8.523   3.666   9.594
 2501WAT     H2 7746   8.663   3.589   9.559
 2502WAT      O 7747   7.177   3.077   1.904
 2502WAT     H1 7748   7.194   3.170   1.937
 2502WAT     H2 7749   7.136   3.081   1.812
 2503WAT      O 7750   6.177   9.141   6.659
 2503WAT     H1 7751   6.242   9.081   6.614
 2503WAT     H2 7752   6.142   9.208   6.593
 2504WAT      O 7753   4.482   6.417   2.972
 2504WAT     H1 7754   4.494   6.441   2.875
 2504WAT     H2 7755   4.473   6.317   2.980
 2505WAT      O 7756   4.973   7.029   9.504
 2505WAT     H1 7757   4.917   7.024   9.587
 2505WAT     H2 7758   4.963   6.944   9.452
 2506WAT      O 7759   7.435   9.113   6.965
 2506WAT     H1 7760   7.389   9.202   6.969
 2506WAT     H2 7761   7.368   9.040   6.975
 2507WAT      O 7762   5.038   7.280   9.390
 2507WAT     H1 7763   4.988   7.210   9.442
 2507WAT     H2 7764   5.136   7.263   9.397
 2508WAT      O 7765   6.130   9.792   8.789
 2508WAT     H1 7766   6.210   9.770   8.845
 2508WAT     H2 7767   6.114   9.718   8.724
 2509WAT      O 7768   8.338   3.658   2.301
 2509WAT     H1 7769   8.365   3.639   2.395
 2509WAT     H2 7770   8.238   3.658   2.294
 2510WAT      O 7771   7.474   5.770   1.968
 2510WAT     H1 7772   7.495   5.737   2.060
 2510WAT     H2 7773   7.379   5.746   1.945
 2511WAT      O 7774   9.887   3.546   3.822
 2511WAT     H1 7775   9.822   3.473   3.799
 2511WAT     H2 7776   9.976   3.506   3.844
 2512WAT      O 7777   7.870   2.448   7.929
 2512WAT     H1 7778   7.893   2.449   7.832
 2512WAT     H2 7779   7.844   2.356   7.956
 2513WAT      O 7780   1.217   5.736   5.227
 2513WAT     H1 7781   1.267   5.709   5.310
 2513WAT     H2 7782   1.120   5.712   5.238
 2514WAT      O 7783   7.523   9.097   2.280
 2514WAT     H1 7784   7.623   9.101   2.280
 2514WAT     H2 7785   7.487   9.167   2.341
 2515WAT      O 7786   8.053   2.847   8.034
 2515WAT     H1 7787   7.983   2.907   7.995
 2515WAT     H2 7788   8.042   2.754   7.997
 2516WAT      O 7789   2.953   2.556   5.225
 2516WAT     H1 7790   3.024   2.511   5.279
 2516WAT     H2 7791   2.995   2.617   5.158
 2517WAT      O 7792   5.400   2.532   5.696
 2517WAT     H1 7793   5.303   2.554   5.693
 2517WAT     H2 7794   5.412   2.440   5.732
 2518WAT      O 7795   0.831   4.933   2.532
 2518WAT     H1 7796   0.855   5.029   2.512
 2518WAT     H2 7797   0.762   4.931   2.604
 2519WAT      O 7798   9.459   4.213   7.497
 2519WAT     H1 7799   9.492   4.126   7.459
 2519WAT     H2 7800   9.367   4.200   7.534
 2520WAT      O 7801   4.015   3.482   4.585
 2520WAT     H1 7802   4.024   3.432   4.671
 2520WAT     H2 7803   3.999   3.418   4.510
 2521WAT      O 7804   1.349   6.728   8.863
 2521WAT     H1 7805   1.283   6.800   8.840
 2521WAT     H2 7806   1.365   6.728   8.961
 2522WAT      O 7807   8.025   9.217   1.362
 2522WAT     H1 7808   8.045   9.268   1.445
 2522WAT     H2 7809   8.087   9.246   1.289
 2523WAT      O 7810   1.518   1.875   5.635
 2523WAT     H1 7811   1.484   1.880   5.541
 2523WAT     H2 7812   1.466   1.806   5.686
 2524WAT      O 7813   7.628   5.470   9.370
 2524WAT     H1 7814   7.699   5.535   9.398
 2524WAT     H2 7815   7.556   5.519   9.321
 2525WAT      O 7816   2.945   3.999   0.763
 2525WAT     H1 7817   2.920   4.027   0.670
 2525WAT     H2 7818   2.972   3.903   0.764
 2526WAT      O 7819   2.263   6.390   0.303
 2526WAT     H1 7820   2.350   6.402   0.255
 2526WAT     H2 7821   2.188   6.385   0.237
 2527WAT      O 7822   2.475   2.607   0.445
 2527WAT     H1 7823   2.445   2.692   0.403
 2527WAT     H2 7824   2.489   2.538   0.374
 2528WAT      O 7825   7.810   5.855   5.399
 2528WAT     H1 7826   7.792   5.909   5.316
 2528WAT     H2 7827   7.764   5.767   5.392
 2529WAT      O 7828   6.668   3.216   4.679
 2529WAT     H1 7829   6.576   3.182   4.699
 2529WAT     H2 7830   6.735   3.145   4.702
 2530WAT      O 7831   7.452   0.614   9.659
 2530WAT     H1 7832   7.406   0.618   9.570
 2530WAT     H2 7833   7.493   0.524   9.671
 2531WAT      O 7834   6.734   9.451   3.329
 2531WAT     H1 7835   6.651   9.437   3.382
 2531WAT     H2 7836   6.719   9.521   3.259
 2532WAT      O 7837   8.291   0.452   3.783
 2532WAT     H1 7838   8.233   0.377   3.751
 2532WAT     H2 7839   8.337   0.424   3.867
 2533WAT      O 7840   4.023   1.135   4.435
 2533WAT     H1 7841   3.968   1.053   4.416
 2533WAT     H2 7842   4.070   1.164   4.351
 2534WAT      O 7843   8.752   1.244   7.040
 2534WAT     H1 7844   8.711   1.277   7.125
 2534WAT     H2 7845   8.768   1.322   6.978
 2535WAT      O 7846   0.620   2.564   5.092
 2535WAT     H1 7847   0.534   2.615   5.091
 2535WAT     H2 7848   0.696   2.627   5.109
 2536WAT      O 7849   7.805   3.885   6.011
 2536WAT     H1 7850   7.823   3.787   6.021
 2536WAT     H2 7851   7.854   3.920   5.931
 2537WAT      O 7852   4.678   4.770   1.738
 2537WAT     H1 7853   4.687   4.683   1.787
 2537WAT     H2 7854   4.625   4.757   1.655
 2538WAT      O 7855   7.267   0.949   2.542
 2538WAT     H1 7856   7.279   1.047   2.527
 2538WAT     H2 7857   7.171   0.925   2.525
 2539WAT      O 7858   6.459   8.986   8.779
 2539WAT     H1 7859   6.553   8.965   8.751
 2539WAT     H2 7860   6.453   8.984   8.878
 2540WAT      O 7861   3.298   2.521   2.619
 2540WAT     H1 7862   3.253   2.609   2.604
 2540WAT     H2 7863   3.393   2.525   2.587
 2541WAT      O 7864   1.464   7.554   1.061
 2541WAT     H1 7865   1.518   7.515   1.136
 2541WAT     H2 7866   1.378   7.590   1.098
 2542WAT      O 7867   4.919   0.981   6.472
 2542WAT     H1 7868   4.966   0.987   6.560
 2542WAT     H2 7869   4.947   0.897   6.425
 2543WAT      O 7870   0.991   6.591   8.405
 2543WAT     H1 7871   0.989   6.560   8.500
 2543WAT     H2 7872   1.069   6.651   8.391
 2544WAT      O 7873   4.369   8.309   0.932
 2544WAT     H1 7874   4.415   8.260   0.859
 2544WAT     H2 7875   4.419   8.298   1.018
 2545WAT      O 7876   1.188   6.044   2.829
 2545WAT     H1 7877   1.173   6.097   2.912
 2545WAT     H2 7878   1.259   6.087   2.773
 2546WAT      O 7879   4.487   3.713   3.271
 2546WAT     H1 7880   4.479   3.656   3.188
 2546WAT     H2 7881   4.515   3.656   3.348
 2547WAT      O 7882   2.776   1.024   8.893
 2547WAT     H1 7883   2.828   1.019   8.979
 2547WAT     H2 7884   2.782   1.117   8.856
 2548WAT      O 7885   5.128   2.163   0.416
 2548WAT     H1 7886   5.225   2.153   0.394
 2548WAT     H2 7887   5.075   2.094   0.366
 2549WAT      O 7888   9.605   8.162   0.838
 2549WAT     H1 7889   9.573   8.226   0.768
 2549WAT     H2 7890   9.626   8.074   0.795
 2550WAT      O 7891   0.129   0.307   2.565
 2550WAT     H1 7892   0.041   0.306   2.612
 2550WAT     H2 7893   0.184   0.383   2.597
 2551WAT      O 7894   6.369   7.333   3.369
 2551WAT     H1 7895   6.326   7.250   3.406
 2551WAT     H2 7896   6.465   7.336   3.396
 2552WAT      O 7897   9.540   5.993   1.365
 2552WAT     H1 7898   9.611   6.062   1.379
 2552WAT     H2 7899   9.582   5.904   1.351
 2553WAT      O 7900   4.076   9.599   7.211
 2553WAT     H1 7901   3.977   9.610   7.220
 2553WAT     H2 7902   4.113   9.567   7.298
 2554WAT      O 7903   4.475   7.356   5.286
 2554WAT     H1 7904   4.388   7.331   5.244
 2554WAT     H2 7905   4.483   7.455   5.292
 2555WAT      O 7906   8.242   9.345   0.424
 2555WAT     H1 7907   8.320   9.284   0.412
 2555WAT     H2 7908   8.228   9.364   0.521
 2556WAT      O 7909   6.111   6.398   1.181
 2556WAT     H1 7910   6.070   6.461   1.246
 2556WAT     H2 7911   6.089   6.304   1.207
 2557WAT      O 7912   5.053   7.414   7.757
 2557WAT     H1 7913   5.146   7.437   7.784
 2557WAT     H2 7914   5.055   7.349   7.681
 2558WAT      O 7915   0.818   8.183   5.003
 2558WAT     H1 7916   0.855   8.116   5.066
 2558WAT     H2 7917   0.803   8.140   4.914
 2559WAT      O 7918   5.506   8.685   6.629
 2559WAT     H1 7919   5.415   8.651   6.608
 2559WAT     H2 7920   5.571   8.653   6.560
 2560WAT      O 7921   7.015   1.277   3.964
 2560WAT     H1 7922   7.006   1.366   3.918
 2560WAT     H2 7923   7.086   1.223   3.918
 2561WAT      O 7924   1.283   2.231   0.168
 2561WAT     H1 7925   1.382   2.245   0.172
 2561WAT     H2 7926   1.250   2.256   0.077
 2562WAT      O 7927   1.286   1.619   8.903
 2562WAT     H1 7928   1.198   1.615   8.855
 2562WAT     H2 7929   1.340   1.538   8.880
 2563WAT      O 7930   0.694   1.190   1.424
 2563WAT     H1 7931   0.675   1.281   1.460
 2563WAT     H2 7932   0.663   1.121   1.489
 2564WAT      O 7933   8.086   1.829   3.259
 2564WAT     H1 7934   8.156   1.888   3.220
 2564WAT     H2 7935   8.040   1.779   3.186
 2565WAT      O 7936   7.671   3.629   1.998
 2565WAT     H1 7937   7.591   3.615   1.941
 2565WAT     H2 7938   7.648   3.609   2.093
 2566WAT      O 7939   8.023   4.650   4.349
 2566WAT     H1 7940   7.924   4.663   4.355
 2566WAT     H2 7941   8.059   4.703   4.272
 2567WAT      O 7942   9.181   2.646   2.186
 2567WAT     H1 7943   9.267   2.641   2.134
 2567WAT     H2 7944   9.198   2.621   2.281
 2568WAT      O 7945   3.554   1.728   7.123
 2568WAT     H1 7946   3.555   1.628   7.112
 2568WAT     H2 7947   3.646   1.764   7.106
 2569WAT      O 7948   8.144   9.056   0.596
 2569WAT     H1 7949   8.184   9.138   0.637
 2569WAT     H2 7950   8.124   8.990   0.668
 2570WAT      O 7951   9.216   6.344   1.890
 2570WAT     H1 7952   9.299   6.305   1.849
 2570WAT     H2 7953   9.152   6.271   1.912
 2571WAT      O 7954   8.940   5.764   0.398
 2571WAT     H1 7955   8.976   5.692   0.457
 2571WAT     H2 7956   8.978   5.754   0.306
 2572WAT      O 7957   4.725   5.219   2.968
 2572WAT     H1 7958   4.635   5.201   2.929
 2572WAT     H2 7959   4.786   5.255   2.898
 2573WAT      O 7960   6.876   1.615   6.060
 2573WAT     H1 7961   6.955   1.562   6.029
 2573WAT     H2 7962   6.907   1.698   6.107
 2574WAT      O 7963   7.686   2.001   7.185
 2574WAT     H1 7964   7.630   2.083   7.176
 2574WAT     H2 7965   7.727   1.978   7.096
 2575WAT      O 7966   1.556   3.383   3.981
 2575WAT     H1 7967   1.616   3.460   3.960
 2575WAT     H2 7968   1.554   3.368   4.080
 2576WAT      O 7969   6.306   6.528   3.019
 2576WAT     H1 7970   6.338   6.622   3.003
 2576WAT     H2 7971   6.385   6.470   3.040
 2577WAT      O 7972   1.963   7.425   9.338
 2577WAT     H1 7973   2.013   7.393   9.418
 2577WAT     H2 7974   1.919   7.513   9.359
 2578WAT      O 7975   5.973   2.486   0.128
 2578WAT     H1 7976   5.955   2.551   0.202
 2578WAT     H2 7977   5.917   2.509   0.048
 2579WAT      O 7978   4.845   8.233   6.011
 2579WAT     H1 7979   4.825   8.139   6.040
 2579WAT     H2 7980   4.944   8.244   6.002
 2580WAT      O 7981   5.437   6.481   0.820
 2580WAT     H1 7982   5.528   6.506   0.787
 2580WAT     H2 7983   5.393   6.562   0.861
 2581WAT      O 7984   4.941   2.328   0.865
 2581WAT     H1 7985   4.946   2.336   0.766
 2581WAT     H2 7986   4.848   2.350   0.896
 2582WAT      O 7987   6.221   5.806   1.916
 2582WAT     H1 7988   6.229   5.880   1.982
 2582WAT     H2 7989   6.224   5.718   1.964
 2583WAT      O 7990   2.788   6.843   0.095
 2583WAT     H1 7991   2.727   6.887   0.160
 2583WAT     H2 7992   2.801   6.747   0.120
 2584WAT      O 7993   2.108   6.384   6.105
 2584WAT     H1 7994   2.135   6.288   6.116
 2584WAT     H2 7995   2.190   6.441   6.102
 2585WAT      O 7996   1.201   1.726   1.873
 2585WAT     H1 7997   1.166   1.721   1.966
 2585WAT     H2 7998   1.252   1.811   1.860
 2586WAT      O 7999   1.064   6.330   5.079
 2586WAT     H1 8000   1.040   6.404   5.016
 2586WAT     H2 8001   1.037   6.243   5.039
 2587WAT      O 8002   2.918   1.001   9.129
 2587WAT     H1 8003   2.994   1.040   9.077
 2587WAT     H2 8004   2.917   1.040   9.221
 2588WAT      O 8005   0.254   9.708   9.309
 2588WAT     H1 8006   0.306   9.666   9.234
 2588WAT     H2 8007   0.314   9.769   9.361
 2589WAT      O 8008   4.527   8.999   9.662
 2589WAT     H1 8009   4.467   9.069   9.624
 2589WAT     H2 8010   4.481   8.910   9.660
 2590WAT      O 8011   0.578   3.068   1.869
 2590WAT     H1 8012   0.500   3.105   1.919
 2590WAT     H2 8013   0.635   3.014   1.932
 2591WAT      O 8014   7.926   0.299   3.852
 2591WAT     H1 8015   7.899   0.394   3.833
 2591WAT     H2 8016   7.972   0.260   3.772
 2592WAT      O 8017   6.852   1.965   0.052
 2592WAT     H1 8018   6.941   1.965   0.007
 2592WAT     H2 8019   6.817   2.059   0.057
 2593WAT      O 8020   6.474   0.120   5.535
 2593WAT     H1 8021   6.434   0.036   5.572
 2593WAT     H2 8022   6.499   0.181   5.610
 2594WAT      O 8023   6.846   0.093   1.618
 2594WAT     H1 8024   6.838   0.034   1.699
 2594WAT     H2 8025   6.757   0.135   1.599
 2595WAT      O 8026   0.095   5.730   5.914
 2595WAT     H1 8027   0.084   5.828   5.894
 2595WAT     H2 8028   0.106   5.680   5.828
 2596WAT      O 8029   7.678   9.620   2.176
 2596WAT     H1 8030   7.583   9.649   2.188
 2596WAT     H2 8031   7.730   9.695   2.135
 2597WAT      O 8032   2.188   8.611   7.754
 2597WAT     H1 8033   2.246   8.612   7.673
 2597WAT     H2 8034   2.165   8.705   7.779
 2598WAT      O 8035   5.093   4.087   2.821
 2598WAT     H1 8036   4.995   4.104   2.834
 2598WAT     H2 8037   5.120   4.006   2.872
 2599WAT      O 8038   3.620   3.629   2.137
 2599WAT     H1 8039   3.693   3.569   2.169
 2599WAT     H2 8040   3.535   3.607   2.185
 2600WAT      O 8041   4.250   9.542   7.981
 2600WAT     H1 8042   4.249   9.482   7.900
 2600WAT     H2 8043   4.342   9.579   7.993
 2601WAT      O 8044   4.410   8.713   7.944
 2601WAT     H1 8045   4.343   8.666   7.887
 2601WAT     H2 8046   4.366   8.747   8.027
 2602WAT      O 8047   9.489   3.772   0.379
 2602WAT     H1 8048   9.538   3.754   0.293
 2602WAT     H2 8049   9.541   3.734   0.455
 2603WAT      O 8050   1.788   1.583   1.527
 2603WAT     H1 8051   1.732   1.665   1.538
 2603WAT     H2 8052   1.744   1.521   1.462
 2604WAT      O 8053   0.041   9.612   9.427
 2604WAT     H1 8054   0.065   9.553   9.504
 2604WAT     H2 8055   0.124   9.645   9.382
 2605WAT      O 8056   1.761   5.142   7.208
 2605WAT     H1 8057   1.826   5.072   7.237
 2605WAT     H2 8058   1.790   5.182   7.121
 2606WAT      O 8059   2.247   1.737   2.991
 2606WAT     H1 8060   2.180   1.694   3.053
 2606WAT     H2 8061   2.224   1.833   2.979
 2607WAT      O 8062   8.524   3.882   1.581
 2607WAT     H1 8063   8.478   3.893   1.669
 2607WAT     H2 8064   8.489   3.800   1.535
 2608WAT      O 8065   8.297   5.199   7.978
 2608WAT     H1 8066   8.272   5.243   7.892
 2608WAT     H2 8067   8.224   5.213   8.045
 2609WAT      O 8068   2.507   8.096   2.022
 2609WAT     H1 8069   2.581   8.029   2.014
 2609WAT     H2 8070   2.419   8.051   2.006
 2610WAT      O 8071   3.834   3.516   4.067
 2610WAT     H1 8072   3.841   3.609   4.104
 2610WAT     H2 8073   3.853   3.518   3.969
 2611WAT      O 8074   3.245   9.292   8.938
 2611WAT     H1 8075   3.211   9.336   9.021
 2611WAT     H2 8076   3.301   9.213   8.963
 2612WAT      O 8077   8.488   2.728   4.620
 2612WAT     H1 8078   8.436   2.665   4.563
 2612WAT     H2 8079   8.558   2.677   4.671
 2613WAT      O 8080   8.089   4.724   9.690
 2613WAT     H1 8081   8.023   4.783   9.642
 2613WAT     H2 8082   8.046   4.686   9.771
 2614WAT      O 8083   8.603   4.790   7.602
 2614WAT     H1 8084   8.563   4.840   7.679
 2614WAT     H2 8085   8.656   4.713   7.637
 2615WAT      O 8086   2.541   8.598   1.967
 2615WAT     H1 8087   2.568   8.640   1.880
 2615WAT     H2 8088   2.498   8.510   1.949
 2616WAT      O 8089   2.627   2.713   1.552
 2616WAT     H1 8090   2.577   2.645   1.499
 2616WAT     H2 8091   2.562   2.774   1.598
 2617WAT      O 8092   8.563   3.731   5.739
 2617WAT     H1 8093   8.659   3.707   5.750
 2617WAT     H2 8094   8.555   3.826   5.710
 2618WAT      O 8095   1.385   8.681   1.619
 2618WAT     H1 8096   1.479   8.680   1.654
 2618WAT     H2 8097   1.329   8.743   1.674
 2619WAT      O 8098   5.266   3.552   9.073
 2619WAT     H1 8099   5.352   3.600   9.058
 2619WAT     H2 8100   5.259   3.475   9.010
 2620WAT      O 8101   1.111   4.051   7.089
 2620WAT     H1 8102   1.032   4.030   7.031
 2620WAT     H2 8103   1.104   3.999   7.175
 2621WAT      O 8104   7.731   1.561   2.947
 2621WAT     H1 8105   7.664   1.586   2.877
 2621WAT     H2 8106   7.784   1.482   2.915
 2622WAT      O 8107   5.311   9.178   1.773
 2622WAT     H1 8108   5.324   9.275   1.753
 2622WAT     H2 8109   5.326   9.162   1.871
 2623WAT      O 8110   0.022   3.995   3.194
 2623WAT     H1 8111  -0.053   4.062   3.189
 2623WAT     H2 8112  -0.004   3.912   3.145
 2624WAT      O 8113   0.131   0.624   3.217
 2624WAT     H1 8114   0.121   0.710   3.266
 2624WAT     H2 8115   0.101   0.636   3.122
 2625WAT      O 8116   8.213   7.633   9.547
 2625WAT     H1 8117   8.195   7.675   9.636
 2625WAT     H2 8118   8.234   7.703   9.480
 2626WAT      O 8119   8.138   1.239   5.733
 2626WAT     H1 8120   8.140   1.337   5.753
 2626WAT     H2 8121   8.203   1.191   5.792
 2627WAT      O 8122   9.330   2.076   9.396
 2627WAT     H1 8123   9.404   2.009   9.403
 2627WAT     H2 8124   9.370   2.167   9.387
 2628WAT      O 8125   0.016   5.617   7.368
 2628WAT     H1 8126  -0.076   5.597   7.335
 2628WAT     H2 8127   0.069   5.533   7.376
 2629WAT      O 8128   6.558   6.482   2.322
 2629WAT     H1 8129   6.460   6.500   2.331
 2629WAT     H2 8130   6.588   6.507   2.230
 2630WAT      O 8131   4.234   7.806   4.888
 2630WAT     H1 8132   4.234   7.786   4.986
 2630WAT     H2 8133   4.293   7.885   4.870
 2631WAT      O 8134   7.551   7.413   9.123
 2631WAT     H1 8135   7.631   7.354   9.113
 2631WAT     H2 8136   7.573   7.489   9.185
 2632WAT      O 8137   2.404   6.040   1.816
 2632WAT     H1 8138   2.448   6.073   1.899
 2632WAT     H2 8139   2.431   6.096   1.739
 2633WAT      O 8140   8.200   7.345   1.963
 2633WAT     H1 8141   8.282   7.402   1.958
 2633WAT     H2 8142   8.155   7.345   1.873
 2634WAT      O 8143   0.325   1.933   5.625
 2634WAT     H1 8144   0.385   1.941   5.705
 2634WAT     H2 8145   0.240   1.982   5.642
 2635WAT      O 8146   0.419   5.771   2.690
 2635WAT     H1 8147   0.363   5.694   2.722
 2635WAT     H2 8148   0.506   5.771   2.739
 2636WAT      O 8149   2.876   2.990   7.165
 2636WAT     H1 8150   2.834   2.981   7.075
 2636WAT     H2 8151   2.866   2.905   7.216
 2637WAT      O 8152   5.159   1.253   1.840
 2637WAT     H1 8153   5.220   1.261   1.919
 2637WAT     H2 8154   5.154   1.157   1.812
 2638WAT      O 8155   3.596   4.045   8.828
 2638WAT     H1 8156   3.522   4.016   8.889
 2638WAT     H2 8157   3.562   4.048   8.734
 2639WAT      O 8158   7.745   8.874   8.960
 2639WAT     H1 8159   7.685   8.841   9.033
 2639WAT     H2 8160   7.730   8.971   8.945
 2640WAT      O 8161   1.745   4.731   5.208
 2640WAT     H1 8162   1.687   4.659   5.247
 2640WAT     H2 8163   1.722   4.742   5.111
 2641WAT      O 8164   5.316   8.850   2.226
 2641WAT     H1 8165   5.385   8.875   2.157
 2641WAT     H2 8166   5.344   8.765   2.271
 2642WAT      O 8167   6.323   6.197   8.163
 2642WAT     H1 8168   6.315   6.285   8.116
 2642WAT     H2 8169   6.410   6.195   8.214
 2643WAT      O 8170   9.269   6.657   6.906
 2643WAT     H1 8171   9.316   6.712   6.974
 2643WAT     H2 8172   9.325   6.649   6.823
 2644WAT      O 8173   0.277   0.452   8.751
 2644WAT     H1 8174   0.223   0.395   8.689
 2644WAT     H2 8175   0.245   0.546   8.746
 2645WAT      O 8176   8.995   8.881   0.689
 2645WAT     H1 8177   8.973   8.784   0.691
 2645WAT     H2 8178   9.086   8.895   0.729
 2646WAT      O 8179   6.613   4.426   9.149
 2646WAT     H1 8180   6.706   4.395   9.126
 2646WAT     H2 8181   6.611   4.456   9.244
 2647WAT      O 8182   8.599   7.103   9.037
 2647WAT     H1 8183   8.504   7.077   9.016
 2647WAT     H2 8184   8.643   7.029   9.088
 2648WAT      O 8185   5.744   5.643   6.635
 2648WAT     H1 8186   5.774   5.570   6.695
 2648WAT     H2 8187   5.770   5.621   6.541
 2649WAT      O 8188   9.529   4.723   4.266
 2649WAT     H1 8189   9.570   4.648   4.214
 2649WAT     H2 8190   9.531   4.807   4.211
 2650WAT      O 8191   6.350   3.221   9.217
 2650WAT     H1 8192   6.331   3.278   9.297
 2650WAT     H2 8193   6.446   3.196   9.217
 2651WAT      O 8194   5.755   2.162   4.608
 2651WAT     H1 8195   5.835   2.115   4.570
 2651WAT     H2 8196   5.736   2.125   4.699
 2652WAT      O 8197   8.824   7.221   0.265
 2652WAT     H1 8198   8.805   7.134   0.309
 2652WAT     H2 8199   8.793   7.296   0.323
 2653WAT      O 8200   3.490   0.139   8.148
 2653WAT     H1 8201   3.505   0.236   8.165
 2653WAT     H2 8202   3.396   0.123   8.119
 2654WAT      O 8203   3.650   6.986   5.235
 2654WAT     H1 8204   3.655   6.895   5.275
 2654WAT     H2 8205   3.557   7.002   5.200
 2655WAT      O 8206   3.300   4.522   9.036
 2655WAT     H1 8207   3.235   4.561   9.101
 2655WAT     H2 8208   3.337   4.437   9.074
 2656WAT      O 8209   1.038   1.274   7.866
 2656WAT     H1 8210   1.068   1.178   7.861
 2656WAT     H2 8211   1.107   1.327   7.915
 2657WAT      O 8212   7.024   1.220   2.189
 2657WAT     H1 8213   7.035   1.285   2.264
 2657WAT     H2 8214   7.108   1.168   2.177
 2658WAT      O 8215   4.627   1.689   5.467
 2658WAT     H1 8216   4.669   1.645   5.546
 2658WAT     H2 8217   4.696   1.737   5.414
 2659WAT      O 8218   2.194   9.423   0.065
 2659WAT     H1 8219   2.138   9.343   0.046
 2659WAT     H2 8220   2.252   9.406   0.145
 2660WAT      O 8221   9.528   4.011   9.551
 2660WAT     H1 8222   9.560   4.009   9.456
 2660WAT     H2 8223   9.605   3.993   9.613
 2661WAT      O 8224   9.494   1.838   6.666
 2661WAT     H1 8225   9.569   1.782   6.699
 2661WAT     H2 8226   9.491   1.924   6.716
 2662WAT      O 8227   2.808   9.216   7.516
 2662WAT     H1 8228   2.719   9.220   7.471
 2662WAT     H2 8229   2.860   9.300   7.497
 2663WAT      O 8230   3.430   7.407   0.929
 2663WAT     H1 8231   3.402   7.369   0.840
 2663WAT     H2 8232   3.361   7.385   0.997
 2664WAT      O 8233   3.461   2.943   9.694
 2664WAT     H1 8234   3.452   2.975   9.789
 2664WAT     H2 8235   3.511   2.856   9.693
 2665WAT      O 8236   9.872   9.366   3.095
 2665WAT     H1 8237   9.891   9.271   3.121
 2665WAT     H2 8238   9.924   9.388   3.013
 2666WAT      O 8239   6.405   4.891   3.743
 2666WAT     H1 8240   6.313   4.862   3.769
 2666WAT     H2 8241   6.455   4.813   3.706
 2667WAT      O 8242   4.727   3.140   6.550
 2667WAT     H1 8243   4.800   3.129   6.618
 2667WAT     H2 8244   4.762   3.189   6.470
 2668WAT      O 8245   5.744   0.634   3.177
 2668WAT     H1 8246   5.734   0.688   3.260
 2668WAT     H2 8247   5.664   0.648   3.118
 2669WAT      O 8248   2.192   8.761   1.561
 2669WAT     H1 8249   2.179   8.834   1.628
 2669WAT     H2 8250   2.285   8.724   1.569
 2670WAT      O 8251   1.385   2.867   2.199
 2670WAT     H1 8252   1.370   2.800   2.127
 2670WAT     H2 8253   1.322   2.849   2.275
 2671WAT      O 8254   5.940   6.445   0.011
 2671WAT     H1 8255   5.875   6.465  -0.062
 2671WAT     H2 8256   5.892   6.435   0.098
 2672WAT      O 8257   0.452   1.254   4.225
 2672WAT     H1 8258   0.365   1.253   4.175
 2672WAT     H2 8259   0.450   1.185   4.297
 2673WAT      O 8260   5.512   1.827   8.252
 2673WAT     H1 8261   5.516   1.906   8.190
 2673WAT     H2 8262   5.434   1.838   8.314
 2674WAT      O 8263   7.603   0.528   0.803
 2674WAT     H1 8264   7.691   0.539   0.757
 2674WAT     H2 8265   7.592   0.599   0.872
 2675WAT      O 8266   7.532   1.393   0.295
 2675WAT     H1 8267   7.537   1.356   0.388
 2675WAT     H2 8268   7.619   1.435   0.271
 2676WAT      O 8269   3.400   7.889   6.673
 2676WAT     H1 8270   3.358   7.801   6.654
 2676WAT     H2 8271   3.348   7.961   6.627
 2677WAT      O 8272   0.951   7.295   6.099
 2677WAT     H1 8273   0.989   7.211   6.137
 2677WAT     H2 8274   0.910   7.276   6.010
 2678WAT      O 8275   4.509   5.931   7.146
 2678WAT     H1 8276   4.595   5.882   7.137
 2678WAT     H2 8277   4.481   5.966   7.056
 2679WAT      O 8278   4.219   3.610   3.079
 2679WAT     H1 8279   4.207   3.552   3.160
 2679WAT     H2 8280   4.242   3.703   3.108
 2680WAT      O 8281   8.722   2.316   2.846
 2680WAT     H1 8282   8.690   2.384   2.779
 2680WAT     H2 8283   8.690   2.343   2.938
 2681WAT      O 8284   8.033   0.731   8.712
 2681WAT     H1 8285   8.054   0.825   8.685
 2681WAT     H2 8286   7.954   0.730   8.772
 2682WAT      O 8287  -0.001   3.015   1.422
 2682WAT     H1 8288  -0.066   3.014   1.498
 2682WAT     H2 8289   0.092   3.022   1.458
 2683WAT      O 8290   7.183   7.299   7.939
 2683WAT     H1 8291   7.230   7.277   8.025
 2683WAT     H2 8292   7.246   7.284   7.862
 2684WAT      O 8293   5.275   4.668   0.156
 2684WAT     H1 8294   5.316   4.594   0.209
 2684WAT     H2 8295   5.346   4.712   0.101
 2685WAT      O 8296   9.447   2.596   4.834
 2685WAT     H1 8297   9.413   2.572   4.924
 2685WAT     H2 8298   9.451   2.514   4.777
 2686WAT      O 8299   3.371   2.706   5.083
 2686WAT     H1 8300   3.374   2.653   4.998
 2686WAT     H2 8301   3.454   2.689   5.135
 2687WAT      O 8302   8.899   3.995   3.374
 2687WAT     H1 8303   8.895   4.066   3.305
 2687WAT     H2 8304   8.988   3.996   3.419
 2688WAT      O 8305   9.451   8.415   5.836
 2688WAT     H1 8306   9.452   8.437   5.739
 2688WAT     H2 8307   9.543   8.391   5.866
 2689WAT      O 8308   2.907   5.315   4.169
 2689WAT     H1 8309   2.934   5.222   4.195
 2689WAT     H2 8310   2.930   5.378   4.243
 2690WAT      O 8311   4.671   5.885   2.320
 2690WAT     H1 8312   4.617   5.956   2.274
 2690WAT     H2 8313   4.707   5.822   2.252
 2691WAT      O 8314   2.982   6.995   4.225
 2691WAT     H1 8315   2.928   6.923   4.269
 2691WAT     H2 8316   2.920   7.063   4.186
 2692WAT      O 8317   5.629   0.466   0.666
 2692WAT     H1 8318   5.554   0.440   0.605
 2692WAT     H2 8319   5.701   0.511   0.614
 2693WAT      O 8320   2.556   4.490   4.309
 2693WAT     H1 8321   2.494   4.488   4.387
 2693WAT     H2 8322   2.646   4.457   4.336
 2694WAT      O 8323   3.161   1.055   8.213
 2694WAT     H1 8324   3.092   0.991   8.180
 2694WAT     H2 8325   3.116   1.139   8.246
 2695WAT      O 8326   0.500   5.558   0.680
 2695WAT     H1 8327   0.549   5.592   0.599
 2695WAT     H2 8328   0.559   5.495   0.731
 2696WAT      O 8329   1.453   8.356   6.587
 2696WAT     H1 8330   1.482   8.419   6.515
 2696WAT     H2 8331   1.460   8.262   6.554
 2697WAT      O 8332   0.641   2.149   2.809
 2697WAT     H1 8333   0.650   2.177   2.904
 2697WAT     H2 8334   0.583   2.215   2.760
 2698WAT      O 8335   4.151   7.295   3.821
 2698WAT     H1 8336   4.161   7.229   3.895
 2698WAT     H2 8337   4.140   7.387   3.859
 2699WAT      O 8338   7.373   2.727   7.490
 2699WAT     H1 8339   7.335   2.808   7.535
 2699WAT     H2 8340   7.438   2.682   7.552
 2700WAT      O 8341   5.558   0.417   3.375
 2700WAT     H1 8342   5.602   0.438   3.463
 2700WAT     H2 8343   5.503   0.495   3.346
 2701WAT      O 8344   7.981   8.362   0.400
 2701WAT     H1 8345   8.030   8.275   0.394
 2701WAT     H2 8346   7.917   8.359   0.477
 2702WAT      O 8347   7.807   0.675   5.036
 2702WAT     H1 8348   7.797   0.674   4.937
 2702WAT     H2 8349   7.754   0.751   5.074
 2703WAT      O 8350   7.856   1.610   1.833
 2703WAT     H1 8351   7.851   1.529   1.893
 2703WAT     H2 8352   7.859   1.580   1.738
 2704WAT      O 8353   0.181   9.469   4.311
 2704WAT     H1 8354   0.189   9.523   4.228
 2704WAT     H2 8355   0.085   9.466   4.340
 2705WAT      O 8356   3.411   6.370   9.872
 2705WAT     H1 8357   3.450   6.460   9.852
 2705WAT     H2 8358   3.472   6.320   9.932
 2706WAT      O 8359   6.849   5.802   4.476
 2706WAT     H1 8360   6.834   5.715   4.524
 2706WAT     H2 8361   6.766   5.857   4.480
 2707WAT      O 8362   5.486   5.640   5.808
 2707WAT     H1 8363   5.545   5.695   5.867
 2707WAT     H2 8364   5.541   5.591   5.741
 2708WAT      O 8365   8.138   0.667   9.031
 2708WAT     H1 8366   8.139   0.696   9.127
 2708WAT     H2 8367   8.103   0.742   8.975
 2709WAT      O 8368   5.949   4.043   5.332
 2709WAT     H1 8369   6.044   4.015   5.316
 2709WAT     H2 8370   5.911   3.991   5.408
 2710WAT      O 8371   0.852   7.640   2.519
 2710WAT     H1 8372   0.842   7.731   2.478
 2710WAT     H2 8373   0.940   7.633   2.565
 2711WAT      O 8374   1.124   1.459   0.554
 2711WAT     H1 8375   1.070   1.383   0.520
 2711WAT     H2 8376   1.158   1.437   0.646
 2712WAT      O 8377   2.731   7.140   4.837
 2712WAT     H1 8378   2.774   7.174   4.920
 2712WAT     H2 8379   2.700   7.047   4.851
 2713WAT      O 8380   7.415   5.606   9.230
 2713WAT     H1 8381   7.326   5.611   9.185
 2713WAT     H2 8382   7.460   5.695   9.224
 2714WAT      O 8383   5.043   1.762   1.881
 2714WAT     H1 8384   5.096   1.835   1.838
 2714WAT     H2 8385   5.104   1.703   1.934
 2715WAT      O 8386   8.431   4.009   2.646
 2715WAT     H1 8387   8.486   3.976   2.569
 2715WAT     H2 8388   8.446   4.107   2.658
 2716WAT      O 8389   8.052   3.591   2.900
 2716WAT     H1 8390   8.035   3.683   2.865
 2716WAT     H2 8391   7.976   3.563   2.959
 2717WAT      O 8392   0.496   5.508   1.508
 2717WAT     H1 8393   0.430   5.438   1.535
 2717WAT     H2 8394   0.448   5.596   1.501
 2718WAT      O 8395   5.294   3.298   4.443
 2718WAT     H1 8396   5.199   3.304   4.415
 2718WAT     H2 8397   5.353   3.333   4.370
 2719WAT      O 8398   3.656   3.180   7.358
 2719WAT     H1 8399   3.719   3.249   7.395
 2719WAT     H2 8400   3.590   3.225   7.298
 2720WAT      O 8401  -0.004   8.520   8.753
 2720WAT     H1 8402   0.045   8.600   8.719
 2720WAT     H2 8403   0.061   8.456   8.794
 2721WAT      O 8404   5.963   4.930   8.632
 2721WAT     H1 8405   5.969   4.929   8.731
 2721WAT     H2 8406   5.882   4.878   8.603
 2722WAT      O 8407   9.087   7.483   8.948
 2722WAT     H1 8408   9.032   7.402   8.931
 2722WAT     H2 8409   9.098   7.497   9.046
 2723WAT      O 8410   9.735   0.873   2.915
 2723WAT     H1 8411   9.762   0.784   2.952
 2723WAT     H2 8412   9.694   0.929   2.987
 2724WAT      O 8413   7.549   1.762   0.989
 2724WAT     H1 8414   7.514   1.842   0.939
 2724WAT     H2 8415   7.649   1.758   0.980
 2725WAT      O 8416   6.409   8.371   7.033
 2725WAT     H1 8417   6.450   8.411   6.951
 2725WAT     H2 8418   6.467   8.388   7.112
 2726WAT      O 8419   6.290   2.091   7.566
 2726WAT     H1 8420   6.298   2.175   7.621
 2726WAT     H2 8421   6.297   2.011   7.625
 2727WAT      O 8422   3.101   1.139   0.870
 2727WAT     H1 8423   3.093   1.067   0.801
 2727WAT     H2 8424   3.033   1.210   0.853
 2728WAT      O 8425   4.816   5.152   7.420
 2728WAT     H1 8426   4.871   5.197   7.490
 2728WAT     H2 8427   4.781   5.065   7.456
 2729WAT      O 8428   6.860   2.361   1.771
 2729WAT     H1 8429   6.956   2.383   1.789
 2729WAT     H2 8430   6.852   2.316   1.682
 2730WAT      O 8431   3.172   9.641   4.870
 2730WAT     H1 8432   3.142   9.580   4.798
 2730WAT     H2 8433   3.263   9.614   4.902
 2731WAT      O 8434   5.096   7.519   5.103
 2731WAT     H1 8435   5.091   7.496   5.006
 2731WAT     H2 8436   5.131   7.442   5.155
 2732WAT      O 8437   3.423   6.227   3.231
 2732WAT     H1 8438   3.382   6.300   3.176
 2732WAT     H2 8439   3.429   6.257   3.326
 2733WAT      O 8440   0.565   4.307   3.483
 2733WAT     H1 8441   0.500   4.324   3.409
 2733WAT     H2 8442   0.517   4.265   3.560
 2734WAT      O 8443   1.354   5.616   7.641
 2734WAT     H1 8444   1.409   5.698   7.659
 2734WAT     H2 8445   1.303   5.592   7.724
 2735WAT      O 8446   6.347   3.761   4.693
 2735WAT     H1 8447   6.311   3.713   4.613
 2735WAT     H2 8448   6.324   3.858   4.687
 2736WAT      O 8449   7.947   9.705   1.165
 2736WAT     H1 8450   7.992   9.678   1.250
 2736WAT     H2 8451   7.871   9.766   1.185
 2737WAT      O 8452   3.691   0.594   1.452
 2737WAT     H1 8453   3.731   0.505   1.476
 2737WAT     H2 8454   3.643   0.586   1.365
 2738WAT      O 8455   7.682   4.280   5.304
 2738WAT     H1 8456   7.742   4.242   5.235
 2738WAT     H2 8457   7.661   4.211   5.373
 2739WAT      O 8458   9.219   3.517   1.114
 2739WAT     H1 8459   9.205   3.526   1.212
 2739WAT     H2 8460   9.168   3.590   1.066
 2740WAT      O 8461   7.511   6.889   2.443
 2740WAT     H1 8462   7.537   6.980   2.411
 2740WAT     H2 8463   7.436   6.854   2.386
 2741WAT      O 8464   3.801   5.783   3.192
 2741WAT     H1 8465   3.768   5.825   3.108
 2741WAT     H2 8466   3.855   5.702   3.169
 2742WAT      O 8467   7.994   1.478   2.243
 2742WAT     H1 8468   8.041   1.521   2.166
 2742WAT     H2 8469   8.003   1.379   2.235
 2743WAT      O 8470   8.101   3.891   1.071
 2743WAT     H1 8471   8.007   3.902   1.103
 2743WAT     H2 8472   8.146   3.820   1.125
 2744WAT      O 8473   3.649   8.620   5.613
 2744WAT     H1 8474   3.634   8.550   5.544
 2744WAT     H2 8475   3.744   8.652   5.608
 2745WAT      O 8476   8.226   2.600   2.378
 2745WAT     H1 8477   8.162   2.525   2.361
 2745WAT     H2 8478   8.311   2.583   2.329
 2746WAT      O 8479   9.268   3.418   3.089
 2746WAT     H1 8480   9.245   3.438   3.184
 2746WAT     H2 8481   9.185   3.417   3.034
 2747WAT      O 8482   4.508   9.636   5.531
 2747WAT     H1 8483   4.591   9.690   5.547
 2747WAT     H2 8484   4.469   9.609   5.619
 2748WAT      O 8485   7.005   6.210   4.614
 2748WAT     H1 8486   6.960   6.142   4.671
 2748WAT     H2 8487   7.103   6.212   4.635
 2749WAT      O 8488   9.271   9.793   0.584
 2749WAT     H1 8489   9.296   9.760   0.493
 2749WAT     H2 8490   9.239   9.716   0.639
 2750WAT      O 8491   7.552   1.077   8.590
 2750WAT     H1 8492   7.551   0.980   8.563
 2750WAT     H2 8493   7.620   1.090   8.662
 2751WAT      O 8494   4.811   0.716   9.401
 2751WAT     H1 8495   4.719   0.686   9.425
 2751WAT     H2 8496   4.812   0.816   9.395
 2752WAT      O 8497   2.980   0.316   3.041
 2752WAT     H1 8498   2.938   0.341   3.128
 2752WAT     H2 8499   2.919   0.255   2.991
 2753WAT      O 8500   5.265   9.283   7.730
 2753WAT     H1 8501   5.248   9.239   7.642
 2753WAT     H2 8502   5.224   9.374   7.730
 2754WAT      O 8503   2.805   4.502   5.849
 2754WAT     H1 8504   2.810   4.531   5.753
 2754WAT     H2 8505   2.753   4.418   5.856
 2755WAT      O 8506   5.635   3.457   6.788
 2755WAT     H1 8507   5.705   3.435   6.856
 2755WAT     H2 8508   5.561   3.508   6.831
 2756WAT      O 8509   1.102   9.256   8.794
 2756WAT     H1 8510   1.059   9.184   8.740
 2756WAT     H2 8511   1.188   9.283   8.752
 2757WAT      O 8512   6.116   8.835   5.688
 2757WAT     H1 8513   6.176   8.881   5.753
 2757WAT     H2 8514   6.148   8.741   5.673
 2758WAT      O 8515   4.747   8.604   2.488
 2758WAT     H1 8516   4.647   8.596   2.483
 2758WAT     H2 8517   4.782   8.640   2.402
 2759WAT      O 8518   5.198   1.450   1.028
 2759WAT     H1 8519   5.285   1.400   1.030
 2759WAT     H2 8520   5.199   1.513   0.951
 2760WAT      O 8521   8.656   4.130   6.560
 2760WAT     H1 8522   8.676   4.057   6.625
 2760WAT     H2 8523   8.579   4.103   6.502
 2761WAT      O 8524   0.316   5.533   3.583
 2761WAT     H1 8525   0.352   5.545   3.676
 2761WAT     H2 8526   0.231   5.585   3.573
 2762WAT      O 8527   6.632   3.955   4.392
 2762WAT     H1 8528   6.667   3.868   4.428
 2762WAT     H2 8529   6.537   3.942   4.363
 2763WAT      O 8530   8.705   3.983   0.188
 2763WAT     H1 8531   8.764   4.051   0.145
 2763WAT     H2 8532   8.762   3.915   0.235
 2764WAT      O 8533   8.731   2.670   8.370
 2764WAT     H1 8534   8.721   2.674   8.270
 2764WAT     H2 8535   8.641   2.655   8.411
 2765WAT      O 8536   9.103   9.777   4.864
 2765WAT     H1 8537   9.042   9.781   4.785
 2765WAT     H2 8538   9.050   9.784   4.948
 2766WAT      O 8539   4.226   1.643   0.368
 2766WAT     H1 8540   4.183   1.732   0.380
 2766WAT     H2 8541   4.263   1.636   0.275
 2767WAT      O 8542   2.608   1.257   8.073
 2767WAT     H1 8543   2.707   1.267   8.086
 2767WAT     H2 8544   2.581   1.302   7.988
 2768WAT      O 8545   7.503   8.365   4.336
 2768WAT     H1 8546   7.491   8.279   4.287
 2768WAT     H2 8547   7.596   8.400   4.320
 2769WAT      O 8548   6.266   6.969   7.798
 2769WAT     H1 8549   6.359   6.940   7.775
 2769WAT     H2 8550   6.206   6.889   7.801
 2770WAT      O 8551   0.414   8.615   5.668
 2770WAT     H1 8552   0.475   8.693   5.651
 2770WAT     H2 8553   0.343   8.612   5.598
 2771WAT      O 8554   4.264   3.736   2.458
 2771WAT     H1 8555   4.187   3.694   2.411
 2771WAT     H2 8556   4.328   3.665   2.489
 2772WAT      O 8557   2.364   0.137   3.503
 2772WAT     H1 8558   2.303   0.063   3.474
 2772WAT     H2 8559   2.315   0.198   3.565
 2773WAT      O 8560   0.407   2.499   9.077
 2773WAT     H1 8561   0.352   2.510   8.994
 2773WAT     H2 8562   0.368   2.553   9.151
 2774WAT      O 8563   3.177   3.415   0.725
 2774WAT     H1 8564   3.189   3.380   0.633
 2774WAT     H2 8565   3.108   3.488   0.725
 2775WAT      O 8566   7.939   6.980   7.983
 2775WAT     H1 8567   8.038   6.994   7.991
 2775WAT     H2 8568   7.901   7.048   7.921
 2776WAT      O 8569   6.440   8.955   3.414
 2776WAT     H1 8570   6.358   8.908   3.446
 2776WAT     H2 8571   6.432   8.973   3.316
 2777WAT      O 8572   8.348   6.490   4.593
 2777WAT     H1 8573   8.325   6.431   4.670
 2777WAT     H2 8574   8.304   6.456   4.510
 2778WAT      O 8575   8.846   5.353   9.536
 2778WAT     H1 8576   8.775   5.397   9.591
 2778WAT     H2 8577   8.892   5.283   9.590
 2779WAT      O 8578   9.285   0.803   8.247
 2779WAT     H1 8579   9.185   0.798   8.243
 2779WAT     H2 8580   9.313   0.888   8.292
 2780WAT      O 8581   5.975   6.396   6.413
 2780WAT     H1 8582   5.910   6.373   6.485
 2780WAT     H2 8583   6.004   6.313   6.366
 2781WAT      O 8584   0.058   4.835   5.022
 2781WAT     H1 8585   0.117   4.768   5.066
 2781WAT     H2 8586   0.086   4.927   5.049
 2782WAT      O 8587   6.286   1.510   3.133
 2782WAT     H1 8588   6.191   1.527   3.161
 2782WAT     H2 8589   6.339   1.593   3.145
 2783WAT      O 8590   1.137   1.192   2.627
 2783WAT     H1 8591   1.094   1.267   2.678
 2783WAT     H2 8592   1.082   1.172   2.545
 2784WAT      O 8593   8.679   0.835   5.853
 2784WAT     H1 8594   8.632   0.760   5.899
 2784WAT     H2 8595   8.773   0.809   5.833
 2785WAT      O 8596   1.700   2.668   3.003
 2785WAT     H1 8597   1.659   2.579   3.021
 2785WAT     H2 8598   1.676   2.731   3.077
 2786WAT      O 8599   2.252   5.649   5.874
 2786WAT     H1 8600   2.303   5.715   5.930
 2786WAT     H2 8601   2.164   5.689   5.849
 2787WAT      O 8602   7.870   4.807   7.372
 2787WAT     H1 8603   7.816   4.757   7.304
 2787WAT     H2 8604   7.962   4.768   7.376
 2788WAT      O 8605   7.518   7.256   4.398
 2788WAT     H1 8606   7.427   7.266   4.357
 2788WAT     H2 8607   7.570   7.340   4.382
 2789WAT      O 8608   2.967   0.305   2.665
 2789WAT     H1 8609   3.037   0.320   2.735
 2789WAT     H2 8610   2.951   0.390   2.615
 2790WAT      O 8611   5.442   3.262   8.315
 2790WAT     H1 8612   5.388   3.178   8.321
 2790WAT     H2 8613   5.462   3.296   8.407
 2791WAT      O 8614   4.210   6.808   0.946
 2791WAT     H1 8615   4.288   6.829   1.005
 2791WAT     H2 8616   4.186   6.712   0.955
 2792WAT      O 8617   2.891   0.181   5.422
 2792WAT     H1 8618   2.924   0.095   5.383
 2792WAT     H2 8619   2.829   0.161   5.498
 2793WAT      O 8620   3.705   1.060   5.599
 2793WAT     H1 8621   3.688   1.115   5.681
 2793WAT     H2 8622   3.755   1.114   5.532
 2794WAT      O 8623   7.514   4.365   1.224
 2794WAT     H1 8624   7.601   4.315   1.221
 2794WAT     H2 8625   7.528   4.459   1.193
 2795WAT      O 8626   7.493   1.874   7.321
 2795WAT     H1 8627   7.508   1.775   7.330
 2795WAT     H2 8628   7.564   1.913   7.262
 2796WAT      O 8629   1.782   0.412   9.727
 2796WAT     H1 8630   1.739   0.496   9.760
 2796WAT     H2 8631   1.719   0.365   9.664
 2797WAT      O 8632   2.736   5.528   8.323
 2797WAT     H1 8633   2.829   5.562   8.334
 2797WAT     H2 8634   2.686   5.588   8.260
 2798WAT      O 8635   2.358   6.158   8.057
 2798WAT     H1 8636   2.427   6.115   7.998
 2798WAT     H2 8637   2.269   6.116   8.040
 2799WAT      O 8638   0.503   4.112   7.561
 2799WAT     H1 8639   0.599   4.125   7.533
 2799WAT     H2 8640   0.479   4.016   7.552
 2800WAT      O 8641   9.274   4.830   2.983
 2800WAT     H1 8642   9.274   4.905   2.916
 2800WAT     H2 8643   9.330   4.857   3.061
 2801WAT      O 8644   0.161   7.199   4.018
 2801WAT     H1 8645   0.139   7.296   4.029
 2801WAT     H2 8646   0.136   7.170   3.926
 2802WAT      O 8647   3.026   1.549   3.888
 2802WAT     H1 8648   3.053   1.474   3.827
 2802WAT     H2 8649   2.951   1.519   3.946
 2803WAT      O 8650   0.480   5.267   3.158
 2803WAT     H1 8651   0.573   5.231   3.161
 2803WAT     H2 8652   0.465   5.328   3.236
 2804WAT      O 8653   4.868   4.779   4.700
 2804WAT     H1 8654   4.916   4.787   4.613
 2804WAT     H2 8655   4.800   4.852   4.708
 2805WAT      O 8656   5.787   5.254   8.542
 2805WAT     H1 8657   5.741   5.193   8.606
 2805WAT     H2 8658   5.810   5.340   8.588
 2806WAT      O 8659   7.639   1.060   1.855
 2806WAT     H1 8660   7.683   0.971   1.841
 2806WAT     H2 8661   7.541   1.051   1.837
 2807WAT      O 8662   0.500   9.534   6.395
 2807WAT     H1 8663   0.472   9.557   6.302
 2807WAT     H2 8664   0.551   9.610   6.434
 2808WAT      O 8665   9.266   7.634   7.491
 2808WAT     H1 8666   9.360   7.599   7.493
 2808WAT     H2 8667   9.205   7.569   7.537
 2809WAT      O 8668   1.757   4.378   4.766
 2809WAT     H1 8669   1.784   4.441   4.694
 2809WAT     H2 8670   1.718   4.295   4.726
 2810WAT      O 8671   6.112   5.612   2.489
 2810WAT     H1 8672   6.117   5.678   2.564
 2810WAT     H2 8673   6.111   5.662   2.402
 2811WAT      O 8674   7.519   2.323   2.550
 2811WAT     H1 8675   7.479   2.260   2.483
 2811WAT     H2 8676   7.561   2.400   2.502
 2812WAT      O 8677   2.469   1.380   6.931
 2812WAT     H1 8678   2.395   1.319   6.904
 2812WAT     H2 8679   2.545   1.372   6.866
 2813WAT      O 8680   4.053   8.479   6.051
 2813WAT     H1 8681   4.110   8.398   6.038
 2813WAT     H2 8682   4.001   8.497   5.967
 2814WAT      O 8683   6.402   0.547   3.773
 2814WAT     H1 8684   6.499   0.558   3.754
 2814WAT     H2 8685   6.381   0.587   3.863
 2815WAT      O 8686   2.698   8.517   0.167
 2815WAT     H1 8687   2.676   8.608   0.131
 2815WAT     H2 8688   2.778   8.481   0.119
 2816WAT      O 8689   8.802   4.333   0.488
 2816WAT     H1 8690   8.869   4.407   0.491
 2816WAT     H2 8691   8.817   4.270   0.564
 2817WAT      O 8692   2.486   1.099   6.230
 2817WAT     H1 8693   2.404   1.117   6.175
 2817WAT     H2 8694   2.561   1.156   6.197
 2818WAT      O 8695   4.953   3.830   6.854
 2818WAT     H1 8696   4.875   3.801   6.910
 2818WAT     H2 8697   4.920   3.854   6.762
 2819WAT      O 8698   1.912   5.109   4.720
 2819WAT     H1 8699   1.860   5.070   4.643
 2819WAT     H2 8700   1.848   5.142   4.790
 2820WAT      O 8701   3.028   9.031   2.190
 2820WAT     H1 8702   2.984   8.941   2.189
 2820WAT     H2 8703   3.052   9.055   2.283
 2821WAT      O 8704   2.946   4.252   0.345
 2821WAT     H1 8705   3.022   4.304   0.383
 2821WAT     H2 8706   2.979   4.197   0.268
 2822WAT      O 8707   8.079   6.424   9.288
 2822WAT     H1 8708   8.034   6.335   9.274
 2822WAT     H2 8709   8.036   6.492   9.230
 2823WAT      O 8710   2.356   5.896   6.413
 2823WAT     H1 8711   2.387   5.950   6.334
 2823WAT     H2 8712   2.276   5.843   6.388
 2824WAT      O 8713   0.775   4.171   3.410
 2824WAT     H1 8714   0.818   4.141   3.496
 2824WAT     H2 8715   0.689   4.217   3.431
 2825WAT      O 8716   1.213   9.661   0.648
 2825WAT     H1 8717   1.234   9.577   0.698
 2825WAT     H2 8718   1.232   9.648   0.551
 2826WAT      O 8719   0.539   6.422   5.094
 2826WAT     H1 8720   0.504   6.330   5.114
 2826WAT     H2 8721   0.572   6.464   5.178
 2827WAT      O 8722   7.871   8.492   9.650
 2827WAT     H1 8723   7.969   8.494   9.628
 2827WAT     H2 8724   7.858   8.462   9.744
 2828WAT      O 8725   9.269   8.712   1.367
 2828WAT     H1 8726   9.223   8.711   1.456
 2828WAT     H2 8727   9.331   8.790   1.363
 2829WAT      O 8728   6.332   2.066   4.970
 2829WAT     H1 8729   6.420   2.109   4.949
 2829WAT     H2 8730   6.325   1.978   4.924
 2830WAT      O 8731   4.090   2.806   8.455
 2830WAT     H1 8732   4.111   2.763   8.543
 2830WAT     H2 8733   4.139   2.758   8.383
 2831WAT      O 8734   2.228   4.176   9.314
 2831WAT     H1 8735   2.222   4.245   9.386
 2831WAT     H2 8736   2.166   4.101   9.335
 2832WAT      O 8737   1.505   9.333   8.495
 2832WAT     H1 8738   1.416   9.363   8.461
 2832WAT     H2 8739   1.492   9.270   8.571
 2833WAT      O 8740   4.083   3.748   6.718
 2833WAT     H1 8741   4.052   3.827   6.664
 2833WAT     H2 8742   4.147   3.694   6.664
 2834WAT      O 8743   0.779   4.752   0.676
 2834WAT     H1 8744   0.700   4.762   0.616
 2834WAT     H2 8745   0.856   4.714   0.625
 2835WAT      O 8746   9.470   3.204   8.414
 2835WAT     H1 8747   9.432   3.291   8.383
 2835WAT     H2 8748   9.485   3.209   8.513
 2836WAT      O 8749   9.600   1.507   6.799
 2836WAT     H1 8750   9.562   1.486   6.889
 2836WAT     H2 8751   9.648   1.595   6.802
 2837WAT      O 8752   8.505   7.244   7.098
 2837WAT     H1 8753   8.508   7.171   7.167
 2837WAT     H2 8754   8.424   7.300   7.113
 2838WAT      O 8755   7.634   0.416   1.692
 2838WAT     H1 8756   7.536   0.407   1.674
 2838WAT     H2 8757   7.684   0.422   1.606
 2839WAT      O 8758   7.097   3.825   8.123
 2839WAT     H1 8759   7.162   3.786   8.188
 2839WAT     H2 8760   7.010   3.844   8.168
 2840WAT      O 8761   3.397   6.200   8.333
 2840WAT     H1 8762   3.341   6.165   8.258
 2840WAT     H2 8763   3.347   6.273   8.380
 2841WAT      O 8764   2.360   8.491   6.264
 2841WAT     H1 8765   2.348   8.590   6.258
 2841WAT     H2 8766   2.272   8.446   6.246
 2842WAT      O 8767   8.673   5.878   0.766
 2842WAT     H1 8768   8.631   5.836   0.685
 2842WAT     H2 8769   8.695   5.973   0.746
 2843WAT      O 8770   8.282   4.032   9.413
 2843WAT     H1 8771   8.257   3.939   9.440
 2843WAT     H2 8772   8.314   4.083   9.493
 2844WAT      O 8773   1.389   7.353   0.005
 2844WAT     H1 8774   1.377   7.270   0.059
 2844WAT     H2 8775   1.486   7.373  -0.006
 2845WAT      O 8776   0.842   1.694   0.223
 2845WAT     H1 8777   0.806   1.607   0.189
 2845WAT     H2 8778   0.913   1.676   0.292
 2846WAT      O 8779   3.673   0.842   7.623
 2846WAT     H1 8780   3.652   0.766   7.685
 2846WAT     H2 8781   3.593   0.901   7.614
 2847WAT      O 8782   2.979   8.185   6.453
 2847WAT     H1 8783   2.880   8.194   6.445
 2847WAT     H2 8784   3.012   8.120   6.385
 2848WAT      O 8785   3.812   8.055   5.627
 2848WAT     H1 8786   3.910   8.075   5.636
 2848WAT     H2 8787   3.782   8.002   5.706
 2849WAT      O 8788   8.478   6.901   2.213
 2849WAT     H1 8789   8.507   6.947   2.297
 2849WAT     H2 8790   8.504   6.804   2.218
 2850WAT      O 8791   6.729   7.242   5.850
 2850WAT     H1 8792   6.743   7.160   5.796
 2850WAT     H2 8793   6.789   7.315   5.816
 2851WAT      O 8794   3.152   7.765   5.846
 2851WAT     H1 8795   3.198   7.797   5.929
 2851WAT     H2 8796   3.092   7.837   5.812
 2852WAT      O 8797   5.802   4.174   9.598
 2852WAT     H1 8798   5.892   4.179   9.642
 2852WAT     H2 8799   5.735   4.221   9.654
 2853WAT      O 8800   8.577   4.185   5.183
 2853WAT     H1 8801   8.576   4.222   5.276
 2853WAT     H2 8802   8.496   4.217   5.133
 2854WAT      O 8803   6.862   4.070   4.103
 2854WAT     H1 8804   6.824   3.980   4.083
 2854WAT     H2 8805   6.872   4.122   4.017
 2855WAT      O 8806   3.059   6.297   8.291
 2855WAT     H1 8807   3.092   6.202   8.284
 2855WAT     H2 8808   3.110   6.344   8.363
 2856WAT      O 8809   3.632   6.982   4.277
 2856WAT     H1 8810   3.670   6.968   4.369
 2856WAT     H2 8811   3.688   6.934   4.210
 2857WAT      O 8812   9.349   9.023   1.230
 2857WAT     H1 8813   9.391   9.113   1.217
 2857WAT     H2 8814   9.419   8.957   1.259
 2858WAT      O 8815   8.416   5.904   7.125
 2858WAT     H1 8816   8.402   5.981   7.063
 2858WAT     H2 8817   8.340   5.899   7.190
 2859WAT      O 8818   6.471   3.426   5.161
 2859WAT     H1 8819   6.498   3.334   5.130
 2859WAT     H2 8820   6.373   3.426   5.184
 2860WAT      O 8821   0.111   7.789   4.758
 2860WAT     H1 8822   0.135   7.837   4.674
 2860WAT     H2 8823   0.028   7.735   4.744
 2861WAT      O 8824   9.260   8.997   5.246
 2861WAT     H1 8825   9.284   8.951   5.161
 2861WAT     H2 8826   9.184   9.060   5.231
 2862WAT      O 8827   4.082   6.674   3.291
 2862WAT     H1 8828   4.059   6.758   3.241
 2862WAT     H2 8829   4.179   6.674   3.313
 2863WAT      O 8830   6.387   4.731   5.641
 2863WAT     H1 8831   6.312   4.784   5.600
 2863WAT     H2 8832   6.361   4.635   5.645
 2864WAT      O 8833   6.103   6.446   4.646
 2864WAT     H1 8834   6.198   6.469   4.626
 2864WAT     H2 8835   6.042   6.502   4.589
 2865WAT      O 8836   8.701   4.419   1.475
 2865WAT     H1 8837   8.693   4.327   1.438
 2865WAT     H2 8838   8.631   4.478   1.434
 2866WAT      O 8839   1.434   6.827   7.542
 2866WAT     H1 8840   1.453   6.882   7.461
 2866WAT     H2 8841   1.335   6.825   7.558
 2867WAT      O 8842   2.728   5.741   2.813
 2867WAT     H1 8843   2.783   5.713   2.891
 2867WAT     H2 8844   2.787   5.754   2.733
 2868WAT      O 8845   5.947   4.037   9.111
 2868WAT     H1 8846   6.016   3.968   9.089
 2868WAT     H2 8847   5.857   4.005   9.084
 2869WAT      O 8848   8.391   8.171   4.763
 2869WAT     H1 8849   8.311   8.140   4.711
 2869WAT     H2 8850   8.360   8.218   4.846
 2870WAT      O 8851   0.726   5.599   1.410
 2870WAT     H1 8852   0.637   5.569   1.443
 2870WAT     H2 8853   0.720   5.623   1.314
 2871WAT      O 8854   9.481   5.353   7.266
 2871WAT     H1 8855   9.550   5.292   7.304
 2871WAT     H2 8856   9.498   5.446   7.295
 2872WAT      O 8857   8.458   3.637   1.865
 2872WAT     H1 8858   8.551   3.611   1.837
 2872WAT     H2 8859   8.393   3.571   1.829
 2873WAT      O 8860   2.105   2.652   0.525
 2873WAT     H1 8861   2.166   2.705   0.584
 2873WAT     H2 8862   2.090   2.562   0.565
 2874WAT      O 8863   7.409   9.113   9.750
 2874WAT     H1 8864   7.410   9.206   9.716
 2874WAT     H2 8865   7.503   9.078   9.755
 2875WAT      O 8866   8.764   7.284   3.759
 2875WAT     H1 8867   8.738   7.196   3.801
 2875WAT     H2 8868   8.764   7.274   3.660
 2876WAT      O 8869   5.988   7.360   0.699
 2876WAT     H1 8870   5.918   7.289   0.712
 2876WAT     H2 8871   6.050   7.333   0.625
 2877WAT      O 8872   5.116   8.457   9.688
 2877WAT     H1 8873   5.139   8.520   9.762
 2877WAT     H2 8874   5.032   8.407   9.710
 2878WAT      O 8875   8.515   9.568   2.343
 2878WAT     H1 8876   8.508   9.635   2.269
 2878WAT     H2 8877   8.526   9.477   2.304
 2879WAT      O 8878   7.477   4.036   2.356
 2879WAT     H1 8879   7.429   3.964   2.406
 2879WAT     H2 8880   7.464   4.123   2.402
 2880WAT      O 8881   7.161   3.988   3.830
 2880WAT     H1 8882   7.172   4.063   3.896
 2880WAT     H2 8883   7.132   3.905   3.877
 2881WAT      O 8884   5.807   8.154   6.675
 2881WAT     H1 8885   5.764   8.226   6.729
 2881WAT     H2 8886   5.906   8.165   6.678
 2882WAT      O 8887   0.756   5.575   8.095
 2882WAT     H1 8888   0.703   5.602   8.015
 2882WAT     H2 8889   0.736   5.637   8.171
 2883WAT      O 8890   1.927   6.740   8.478
 2883WAT     H1 8891   1.885   6.659   8.436
 2883WAT     H2 8892   1.870   6.820   8.460
 2884WAT      O 8893   3.584   7.404   2.422
 2884WAT     H1 8894   3.544   7.337   2.360
 2884WAT     H2 8895   3.571   7.375   2.516
 2885WAT      O 8896   2.938   4.737   1.055
 2885WAT     H1 8897   2.927   4.638   1.047
 2885WAT     H2 8898   2.858   4.777   1.100
 2886WAT      O 8899   0.425   3.935   6.338
 2886WAT     H1 8900   0.436   3.973   6.430
 2886WAT     H2 8901   0.351   3.982   6.291
 2887WAT      O 8902   5.029   2.371   5.587
 2887WAT     H1 8903   5.065   2.463   5.603
 2887WAT     H2 8904   5.065   2.337   5.500
 2888WAT      O 8905   1.751   8.805   6.512
 2888WAT     H1 8906   1.737   8.838   6.606
 2888WAT     H2 8907   1.759   8.705   6.513
 2889WAT      O 8908   6.216   7.913   4.502
 2889WAT     H1 8909   6.259   7.938   4.589
 2889WAT     H2 8910   6.129   7.962   4.492
 2890WAT      O 8911   8.775   5.150   9.057
 2890WAT     H1 8912   8.863   5.106   9.041
 2890WAT     H2 8913   8.705   5.108   9.000
 2891WAT      O 8914   5.379   8.539   5.455
 2891WAT     H1 8915   5.425   8.521   5.542
 2891WAT     H2 8916   5.445   8.538   5.380
 2892WAT      O 8917   9.848   5.518   4.992
 2892WAT     H1 8918   9.900   5.435   5.011
 2892WAT     H2 8919   9.764   5.494   4.944
 2893WAT      O 8920   0.220   5.655   7.744
 2893WAT     H1 8921   0.261   5.633   7.833
 2893WAT     H2 8922   0.289   5.644   7.672
 2894WAT      O 8923   0.348   6.975   4.173
 2894WAT     H1 8924   0.443   6.990   4.144
 2894WAT     H2 8925   0.291   7.051   4.141
 2895WAT      O 8926   7.363   1.988   4.367
 2895WAT     H1 8927   7.408   1.995   4.278
 2895WAT     H2 8928   7.343   1.892   4.387
 2896WAT      O 8929   3.906   1.705   3.173
 2896WAT     H1 8930   3.902   1.682   3.075
 2896WAT     H2 8931   3.813   1.707   3.210
 2897WAT      O 8932   7.939   5.011   1.184
 2897WAT     H1 8933   7.996   4.945   1.136
 2897WAT     H2 8934   7.976   5.028   1.275
 2898WAT      O 8935   1.978   6.453   5.045
 2898WAT     H1 8936   2.076   6.435   5.046
 2898WAT     H2 8937   1.932   6.381   4.993
 2899WAT      O 8938   7.936   8.383   8.615
 2899WAT     H1 8939   7.890   8.305   8.573
 2899WAT     H2 8940   7.937   8.371   8.715
 2900WAT      O 8941   2.104   9.537   3.976
 2900WAT     H1 8942   2.197   9.565   4.001
 2900WAT     H2 8943   2.081   9.451   4.022
 2901WAT      O 8944   1.142   5.780   4.658
 2901WAT     H1 8945   1.136   5.691   4.613
 2901WAT     H2 8946   1.050   5.812   4.681
 2902WAT      O 8947   2.410   5.873   4.588
 2902WAT     H1 8948   2.315   5.890   4.561
 2902WAT     H2 8949   2.412   5.804   4.661
 2903WAT      O 8950   0.436   3.741   0.649
 2903WAT     H1 8951   0.482   3.653   0.652
 2903WAT     H2 8952   0.410   3.763   0.555
 2904WAT      O 8953   3.274   6.200   7.408
 2904WAT     H1 8954   3.201   6.258   7.373
 2904WAT     H2 8955   3.237   6.111   7.434
 2905WAT      O 8956   6.818   0.737   9.043
 2905WAT     H1 8957   6.752   0.670   9.011
 2905WAT     H2 8958   6.779   0.787   9.121
 2906WAT      O 8959   7.416   6.794   0.453
 2906WAT     H1 8960   7.475   6.875   0.453
 2906WAT     H2 8961   7.408   6.758   0.545
 2907WAT      O 8962   9.073   9.128   3.179
 2907WAT     H1 8963   8.976   9.153   3.178
 2907WAT     H2 8964   9.112   9.141   3.088
 2908WAT      O 8965   4.037   2.368   0.223
 2908WAT     H1 8966   4.023   2.453   0.171
 2908WAT     H2 8967   4.133   2.341   0.217
 2909WAT      O 8968   8.687   0.522   1.245
 2909WAT     H1 8969   8.615   0.510   1.176
 2909WAT     H2 8970   8.776   0.500   1.205
 2910WAT      O 8971   9.725   0.427   8.127
 2910WAT     H1 8972   9.761   0.453   8.217
 2910WAT     H2 8973   9.632   0.392   8.137
 2911WAT      O 8974   8.425   0.198   2.272
 2911WAT     H1 8975   8.403   0.292   2.246
 2911WAT     H2 8976   8.523   0.190   2.287
 2912WAT      O 8977   0.284   2.063   2.508
 2912WAT     H1 8978   0.378   2.034   2.492
 2912WAT     H2 8979   0.271   2.081   2.606
 2913WAT      O 8980   8.464   1.199   5.377
 2913WAT     H1 8981   8.548   1.208   5.324
 2913WAT     H2 8982   8.472   1.252   5.462
 2914WAT      O 8983   6.678   4.824   8.591
 2914WAT     H1 8984   6.584   4.860   8.598
 2914WAT     H2 8985   6.703   4.780   8.677
 2915WAT      O 8986   5.037   5.584   6.874
 2915WAT     H1 8987   4.950   5.612   6.833
 2915WAT     H2 8988   5.026   5.573   6.973
 2916WAT      O 8989   4.252   5.735   0.016
 2916WAT     H1 8990   4.346   5.751   0.047
 2916WAT     H2 8991   4.189   5.781   0.078
 2917WAT      O 8992   7.766   9.255   3.217
 2917WAT     H1 8993   7.807   9.337   3.177
 2917WAT     H2 8994   7.668   9.253   3.196
 2918WAT      O 8995   1.985   1.789   9.877
 2918WAT     H1 8996   1.960   1.886   9.873
 2918WAT     H2 8997   1.910   1.737   9.917
 2919WAT      O 8998   1.932   5.993   3.956
 2919WAT     H1 8999   1.934   5.972   4.054
 2919WAT     H2 9000   1.889   5.918   3.907
 2920WAT      O 9001   0.256   4.841   6.071
 2920WAT     H1 9002   0.186   4.769   6.074
 2920WAT     H2 9003   0.346   4.799   6.060
 2921WAT      O 9004   0.237   3.701   6.299
 2921WAT     H1 9005   0.314   3.759   6.323
 2921WAT     H2 9006   0.253   3.659   6.209
 2922WAT      O 9007   7.744   5.742   0.160
 2922WAT     H1 9008   7.815   5.801   0.121
 2922WAT     H2 9009   7.655   5.772   0.126
 2923WAT      O 9010   2.845   0.677   2.840
 2923WAT     H1 9011   2.809   0.747   2.779
 2923WAT     H2 9012   2.783   0.598   2.840
 2924WAT      O 9013   1.666   6.273   8.401
 2924WAT     H1 9014   1.613   6.338   8.454
 2924WAT     H2 9015   1.616   6.186   8.395
 2925WAT      O 9016   2.337   1.505   1.448
 2925WAT     H1 9017   2.429   1.502   1.409
 2925WAT     H2 9018   2.269   1.503   1.374
 2926WAT      O 9019   9.495   0.634   7.967
 2926WAT     H1 9020   9.447   0.550   7.942
 2926WAT     H2 9021   9.540   0.621   8.055
 2927WAT      O 9022   1.058   7.253   1.077
 2927WAT     H1 9023   0.986   7.282   1.140
 2927WAT     H2 9024   1.123   7.328   1.064
 2928WAT      O 9025   8.230   4.481   2.499
 2928WAT     H1 9026   8.150   4.478   2.439
 2928WAT     H2 9027   8.297   4.545   2.461
 2929WAT      O 9028   9.304   4.393   8.845
 2929WAT     H1 9029   9.395   4.382   8.806
 2929WAT     H2 9030   9.306   4.369   8.943
 2930WAT      O 9031   3.901   3.275   5.897
 2930WAT     H1 9032   3.987   3.251   5.943
 2930WAT     H2 9033   3.899   3.374   5.883
 2931WAT      O 9034   0.311   6.911   4.594
 2931WAT     H1 9035   0.299   6.853   4.675
 2931WAT     H2 9036   0.362   6.993   4.619
 2932WAT      O 9037   7.392   4.464   1.708
 2932WAT     H1 9038   7.339   4.382   1.691
 2932WAT     H2 9039   7.420   4.504   1.620
 2933WAT      O 9040   4.705   9.353   7.406
 2933WAT     H1 9041   4.607   9.369   7.415
 2933WAT     H2 9042   4.721   9.276   7.344
 2934WAT      O 9043   6.086   3.144   7.125
 2934WAT     H1 9044   6.065   3.148   7.027
 2934WAT     H2 9045   6.020   3.201   7.175
 2935WAT      O 9046   6.970   0.328   3.177
 2935WAT     H1 9047   6.899   0.263   3.149
 2935WAT     H2 9048   7.028   0.286   3.247
 2936WAT      O 9049   3.446   7.337   6.964
 2936WAT     H1 9050   3.510   7.295   6.899
 2936WAT     H2 9051   3.440   7.435   6.946
 2937WAT      O 9052   1.293   0.678   5.614
 2937WAT     H1 9053   1.325   0.587   5.591
 2937WAT     H2 9054   1.281   0.684   5.713
 2938WAT      O 9055   4.819   3.437   2.451
 2938WAT     H1 9056   4.914   3.410   2.465
 2938WAT     H2 9057   4.787   3.403   2.363
 2939WAT      O 9058   2.840   2.033   2.672
 2939WAT     H1 9059   2.815   1.975   2.749
 2939WAT     H2 9060   2.759   2.078   2.636
 2940WAT      O 9061   0.933   6.654   9.815
 2940WAT     H1 9062   0.850   6.678   9.865
 2940WAT     H2 9063   1.013   6.689   9.863
 2941WAT      O 9064   5.914   8.544   8.908
 2941WAT     H1 9065   5.989   8.479   8.913
 2941WAT     H2 9066   5.874   8.542   8.816
 2942WAT      O 9067   5.413   4.180   4.165
 2942WAT     H1 9068   5.487   4.227   4.118
 2942WAT     H2 9069   5.400   4.089   4.126
 2943WAT      O 9070   0.868   9.814   1.415
 2943WAT     H1 9071   0.966   9.800   1.407
 2943WAT     H2 9072   0.839   9.884   1.348
 2944WAT      O 9073   1.206   4.567   2.298
 2944WAT     H1 9074   1.146   4.559   2.378
 2944WAT     H2 9075   1.157   4.612   2.223
 2945WAT      O 9076   0.099   0.658   7.115
 2945WAT     H1 9077   0.165   0.588   7.143
 2945WAT     H2 9078   0.122   0.690   7.022
 2946WAT      O 9079   0.955   2.725   3.832
 2946WAT     H1 9080   0.904   2.651   3.787
 2946WAT     H2 9081   0.968   2.800   3.767
 2947WAT      O 9082   5.136   3.845   2.978
 2947WAT     H1 9083   5.093   3.764   3.020
 2947WAT     H2 9084   5.231   3.851   3.009
 2948WAT      O 9085   5.179   2.465   5.234
 2948WAT     H1 9086   5.189   2.475   5.135
 2948WAT     H2 9087   5.151   2.552   5.274
 2949WAT      O 9088   0.147   3.501   0.779
 2949WAT     H1 9089   0.142   3.411   0.735
 2949WAT     H2 9090   0.137   3.491   0.878
 2950WAT      O 9091   4.751   1.750   1.942
 2950WAT     H1 9092   4.736   1.659   1.981
 2950WAT     H2 9093   4.848   1.772   1.943
 2951WAT      O 9094   6.083   8.198   6.690
 2951WAT     H1 9095   6.121   8.196   6.782
 2951WAT     H2 9096   6.145   8.151   6.627
 2952WAT      O 9097   0.227   2.134   3.265
 2952WAT     H1 9098   0.209   2.232   3.255
 2952WAT     H2 9099   0.236   2.092   3.175
 2953WAT      O 9100   2.272   9.140   0.608
 2953WAT     H1 9101   2.254   9.166   0.703
 2953WAT     H2 9102   2.256   9.218   0.548
 2954WAT      O 9103   7.589   1.170   5.122
 2954WAT     H1 9104   7.581   1.221   5.207
 2954WAT     H2 9105   7.517   1.199   5.058
 2955WAT      O 9106   0.830   5.832   1.684
 2955WAT     H1 9107   0.788   5.917   1.716
 2955WAT     H2 9108   0.833   5.766   1.759
 2956WAT      O 9109   7.489   0.584   3.444
 2956WAT     H1 9110   7.586   0.589   3.419
 2956WAT     H2 9111   7.475   0.625   3.534
 2957WAT      O 9112   1.828   3.338   8.619
 2957WAT     H1 9113   1.823   3.250   8.572
 2957WAT     H2 9114   1.787   3.409   8.562
 2958WAT      O 9115   2.683   3.681   7.879
 2958WAT     H1 9116   2.614   3.723   7.938
 2958WAT     H2 9117   2.743   3.623   7.933
 2959WAT      O 9118   8.212   1.315   0.827
 2959WAT     H1 9119   8.141   1.378   0.861
 2959WAT     H2 9120   8.191   1.290   0.733
 2960WAT      O 9121   6.558   8.775   5.118
 2960WAT     H1 9122   6.593   8.864   5.089
 2960WAT     H2 9123   6.462   8.783   5.145
 2961WAT      O 9124   4.386   9.042   1.069
 2961WAT     H1 9125   4.367   9.032   1.167
 2961WAT     H2 9126   4.302   9.028   1.017
 2962WAT      O 9127   4.319   6.564   6.275
 2962WAT     H1 9128   4.260   6.642   6.297
 2962WAT     H2 9129   4.408   6.576   6.319
 2963WAT      O 9130   1.087   1.233   2.007
 2963WAT     H1 9131   0.988   1.218   2.007
 2963WAT     H2 9132   1.117   1.260   1.915
 2964WAT      O 9133   9.649   4.083   6.921
 2964WAT     H1 9134   9.706   4.038   6.852
 2964WAT     H2 9135   9.587   4.147   6.875
 2965WAT      O 9136   9.614   5.600   8.946
 2965WAT     H1 9137   9.677   5.624   8.872
 2965WAT     H2 9138   9.666   5.585   9.030
 2966WAT      O 9139   2.000   2.791   5.816
 2966WAT     H1 9140   1.987   2.717   5.882
 2966WAT     H2 9141   2.095   2.822   5.819
 2967WAT      O 9142   6.551   3.689   1.198
 2967WAT     H1 9143   6.543   3.784   1.170
 2967WAT     H2 9144   6.461   3.645   1.196
 2968WAT      O 9145   2.686   8.769   8.735
 2968WAT     H1 9146   2.682   8.694   8.668
 2968WAT     H2 9147   2.724   8.850   8.691
 2969WAT      O 9148   6.871   2.559   6.527
 2969WAT     H1 9149   6.790   2.547   6.586
 2969WAT     H2 9150   6.938   2.489   6.549
 2970WAT      O 9151   7.046   6.474   3.979
 2970WAT     H1 9152   6.972   6.529   4.018
 2970WAT     H2 9153   7.011   6.383   3.955
 2971WAT      O 9154   3.568   6.092   9.679
 2971WAT     H1 9155   3.630   6.018   9.653
 2971WAT     H2 9156   3.486   6.053   9.722
 2972WAT      O 9157   0.286   2.842   6.982
 2972WAT     H1 9158   0.383   2.859   6.971
 2972WAT     H2 9159   0.267   2.819   7.078
 2973WAT      O 9160   7.043   9.028   4.062
 2973WAT     H1 9161   7.061   9.101   4.128
 2973WAT     H2 9162   7.112   8.956   4.072
 2974WAT      O 9163   4.123   7.144   5.510
 2974WAT     H1 9164   4.222   7.133   5.511
 2974WAT     H2 9165   4.080   7.057   5.535
 2975WAT      O 9166   1.310   4.688   1.057
 2975WAT     H1 9167   1.398   4.707   1.014
 2975WAT     H2 9168   1.250   4.642   0.991
 2976WAT      O 9169   1.426   4.804   7.228
 2976WAT     H1 9170   1.491   4.759   7.167
 2976WAT     H2 9171   1.375   4.735   7.278
 2977WAT      O 9172   2.345   7.129   9.333
 2977WAT     H1 9173   2.323   7.169   9.422
 2977WAT     H2 9174   2.361   7.202   9.267
 2978WAT      O 9175   6.279   9.038   0.884
 2978WAT     H1 9176   6.248   8.989   0.802
 2978WAT     H2 9177   6.214   9.024   0.958
 2979WAT      O 9178   1.691   5.613   6.309
 2979WAT     H1 9179   1.611   5.638   6.254
 2979WAT     H2 9180   1.708   5.684   6.377
 2980WAT      O 9181   9.238   0.229   8.364
 2980WAT     H1 9182   9.138   0.235   8.365
 2980WAT     H2 9183   9.276   0.320   8.346
 2981WAT      O 9184   7.387   3.506   7.046
 2981WAT     H1 9185   7.327   3.565   6.993
 2981WAT     H2 9186   7.444   3.562   7.106
 2982WAT      O 9187   0.527   2.720   1.183
 2982WAT     H1 9188   0.535   2.820   1.176
 2982WAT     H2 9189   0.482   2.685   1.101
 2983WAT      O 9190   6.507   8.429   8.869
 2983WAT     H1 9191   6.492   8.340   8.911
 2983WAT     H2 9192   6.432   8.448   8.805
 2984WAT      O 9193   5.194   1.048   8.100
 2984WAT     H1 9194   5.275   1.097   8.132
 2984WAT     H2 9195   5.218   0.988   8.024
 2985WAT      O 9196   7.844   0.914   0.981
 2985WAT     H1 9197   7.882   0.832   0.936
 2985WAT     H2 9198   7.904   0.941   1.056
 2986WAT      O 9199   0.513   8.370   5.594
 2986WAT     H1 9200   0.448   8.311   5.642
 2986WAT     H2 9201   0.479   8.464   5.594
 2987WAT      O 9202   4.822   6.518   2.413
 2987WAT     H1 9203   4.856   6.569   2.334
 2987WAT     H2 9204   4.849   6.422   2.405
 2988WAT      O 9205   8.214   4.829   6.626
 2988WAT     H1 9206   8.194   4.735   6.653
 2988WAT     H2 9207   8.135   4.868   6.578
 2989WAT      O 9208   6.224   2.139   0.891
 2989WAT     H1 9209   6.220   2.086   0.975
 2989WAT     H2 9210   6.211   2.078   0.813
 2990WAT      O 9211   4.239   6.037   6.410
 2990WAT     H1 9212   4.310   6.047   6.341
 2990WAT     H2 9213   4.210   5.942   6.416
 2991WAT      O 9214   2.661   2.093   1.688
 2991WAT     H1 9215   2.588   2.026   1.700
 2991WAT     H2 9216   2.723   2.090   1.766
 2992WAT      O 9217   6.866   4.426   5.051
 2992WAT     H1 9218   6.767   4.437   5.044
 2992WAT     H2 9219   6.907   4.513   5.081
 2993WAT      O 9220   7.399   7.390   3.757
 2993WAT     H1 9221   7.313   7.429   3.788
 2993WAT     H2 9222   7.382   7.300   3.716
 2994WAT      O 9223   0.746   3.740   3.106
 2994WAT     H1 9224   0.778   3.829   3.139
 2994WAT     H2 9225   0.824   3.685   3.076
 2995WAT      O 9226   6.554   6.956   1.786
 2995WAT     H1 9227   6.582   7.052   1.797
 2995WAT     H2 9228   6.632   6.903   1.753
 2996WAT      O 9229   8.952   2.237   7.422
 2996WAT     H1 9230   8.894   2.297   7.476
 2996WAT     H2 9231   9.048   2.254   7.444
 2997WAT      O 9232   3.674   2.482   2.763
 2997WAT     H1 9233   3.764   2.452   2.794
 2997WAT     H2 9234   3.635   2.545   2.830
 2998WAT      O 9235   9.414   7.656   2.813
 2998WAT     H1 9236   9.456   7.594   2.746
 2998WAT     H2 9237   9.424   7.750   2.781
 2999WAT      O 9238   5.445   6.868   5.489
 2999WAT     H1 9239   5.362   6.909   5.449
 2999WAT     H2 9240   5.419   6.796   5.553
 3000WAT      O 9241   9.053   2.867   0.770
 3000WAT     H1 9242   9.139   2.836   0.809
 3000WAT     H2 9243   9.062   2.879   0.672
 3001WAT      O 9244   4.305   0.451   4.588
 3001WAT     H1 9245   4.342   0.362   4.613
 3001WAT     H2 9246   4.378   0.519   4.592
 3002WAT      O 9247   8.052   1.430   7.638
 3002WAT     H1 9248   8.019   1.397   7.727
 3002WAT     H2 9249   8.018   1.369   7.566
 3003WAT      O 9250   7.620   6.261   3.330
 3003WAT     H1 9251   7.536   6.210   3.348
 3003WAT     H2 9252   7.602   6.359   3.338
 3004WAT      O 9253   7.955   3.151   7.594
 3004WAT     H1 9254   7.917   3.235   7.632
 3004WAT     H2 9255   7.931   3.074   7.654
 3005WAT      O 9256   9.047   1.232   6.477
 3005WAT     H1 9257   9.047   1.324   6.516
 3005WAT     H2 9258   8.998   1.170   6.537
 3006WAT      O 9259   0.171   6.854   6.831
 3006WAT     H1 9260   0.177   6.948   6.796
 3006WAT     H2 9261   0.176   6.856   6.931
 3007WAT      O 9262   7.656   7.928   3.304
 3007WAT     H1 9263   7.723   7.985   3.352
 3007WAT     H2 9264   7.703   7.867   3.241
 3008WAT      O 9265   8.845   1.811   5.136
 3008WAT     H1 9266   8.816   1.726   5.179
 3008WAT     H2 9267   8.824   1.888   5.197
 3009WAT      O 9268   0.292   7.564   7.270
 3009WAT     H1 9269   0.348   7.484   7.251
 3009WAT     H2 9270   0.274   7.613   7.184
 3010WAT      O 9271   5.590   3.240   2.762
 3010WAT     H1 9272   5.667   3.205   2.815
 3010WAT     H2 9273   5.510   3.181   2.777
 3011WAT      O 9274   1.344   9.732   9.012
 3011WAT     H1 9275   1.295   9.817   8.992
 3011WAT     H2 9276   1.304   9.689   9.092
 3012WAT      O 9277   1.334   9.507   4.785
 3012WAT     H1 9278   1.390   9.475   4.708
 3012WAT     H2 9279   1.348   9.605   4.798
 3013WAT      O 9280   0.499   9.263   6.376
 3013WAT     H1 9281   0.500   9.362   6.394
 3013WAT     H2 9282   0.437   9.219   6.440
 3014WAT      O 9283   4.277   6.272   3.413
 3014WAT     H1 9284   4.271   6.206   3.488
 3014WAT     H2 9285   4.326   6.354   3.444
 3015WAT      O 9286   9.054   1.208   7.760
 3015WAT     H1 9287   9.105   1.138   7.810
 3015WAT     H2 9288   9.117   1.277   7.724
 3016WAT      O 9289   2.562   6.490   8.723
 3016WAT     H1 9290   2.576   6.527   8.814
 3016WAT     H2 9291   2.588   6.558   8.655
 3017WAT      O 9292   3.097   7.085   7.455
 3017WAT     H1 9293   3.182   7.047   7.489
 3017WAT     H2 9294   3.108   7.183   7.438
 3018WAT      O 9295   3.196   6.203   4.365
 3018WAT     H1 9296   3.144   6.117   4.360
 3018WAT     H2 9297   3.173   6.251   4.449
 3019WAT      O 9298   2.803   7.537   6.646
 3019WAT     H1 9299   2.811   7.597   6.566
 3019WAT     H2 9300   2.845   7.580   6.725
 3020WAT      O 9301   3.387   8.915   2.605
 3020WAT     H1 9302   3.414   9.011   2.621
 3020WAT     H2 9303   3.371   8.870   2.692
 3021WAT      O 9304   1.258   4.517   6.377
 3021WAT     H1 9305   1.207   4.586   6.325
 3021WAT     H2 9306   1.202   4.484   6.453
 3022WAT      O 9307   9.663   6.940   5.968
 3022WAT     H1 9308   9.579   6.973   6.010
 3022WAT     H2 9309   9.659   6.953   5.869
 3023WAT      O 9310   3.754   6.543   7.407
 3023WAT     H1 9311   3.697   6.581   7.480
 3023WAT     H2 9312   3.850   6.568   7.424
 3024WAT      O 9313   9.760   9.085   0.349
 3024WAT     H1 9314   9.772   9.138   0.265
 3024WAT     H2 9315   9.835   9.019   0.357
 3025WAT      O 9316   6.288   2.336   6.149
 3025WAT     H1 9317   6.362   2.287   6.102
 3025WAT     H2 9318   6.298   2.434   6.133
 3026WAT      O 9319   8.656   6.023   5.721
 3026WAT     H1 9320   8.611   5.966   5.790
 3026WAT     H2 9321   8.608   6.014   5.634
 3027WAT      O 9322   5.471   7.350   1.361
 3027WAT     H1 9323   5.402   7.418   1.387
 3027WAT     H2 9324   5.515   7.315   1.443
 3028WAT      O 9325   4.637   8.091   6.925
 3028WAT     H1 9326   4.605   8.088   7.019
 3028WAT     H2 9327   4.584   8.026   6.869
 3029WAT      O 9328   6.971   4.508   8.834
 3029WAT     H1 9329   7.038   4.489   8.762
 3029WAT     H2 9330   6.879   4.502   8.796
 3030WAT      O 9331   9.008   9.828   5.108
 3030WAT     H1 9332   9.099   9.826   5.149
 3030WAT     H2 9333   8.946   9.771   5.162
 3031WAT      O 9334   4.190   2.926   8.710
 3031WAT     H1 9335   4.161   2.954   8.619
 3031WAT     H2 9336   4.226   2.833   8.707
 3032WAT      O 9337   5.975   2.339   5.788
 3032WAT     H1 9338   5.887   2.352   5.832
 3032WAT     H2 9339   6.019   2.428   5.775
 3033WAT      O 9340   0.208   2.780   1.283
 3033WAT     H1 9341   0.267   2.860   1.272
 3033WAT     H2 9342   0.165   2.759   1.196
 3034WAT      O 9343   2.923   7.786   5.002
 3034WAT     H1 9344   3.004   7.830   4.963
 3034WAT     H2 9345   2.883   7.725   4.933
 3035WAT      O 9346   7.195   4.929   2.582
 3035WAT     H1 9347   7.218   4.833   2.569
 3035WAT     H2 9348   7.169   4.945   2.678
 3036WAT      O 9349   8.543   7.490   3.504
 3036WAT     H1 9350   8.454   7.500   3.548
 3036WAT     H2 9351   8.539   7.417   3.436
 3037WAT      O 9352   3.719   8.112   6.298
 3037WAT     H1 9353   3.747   8.182   6.364
 3037WAT     H2 9354   3.782   8.113   6.221
 3038WAT      O 9355   7.804   6.629   7.682
 3038WAT     H1 9356   7.807   6.603   7.586
 3038WAT     H2 9357   7.893   6.611   7.724
 3039WAT      O 9358   0.869   4.153   6.030
 3039WAT     H1 9359   0.906   4.066   5.996
 3039WAT     H2 9360   0.826   4.138   6.119
 3040WAT      O 9361   0.001   1.813   6.571
 3040WAT     H1 9362  -0.009   1.758   6.488
 3040WAT     H2 9363   0.098   1.816   6.597
 3041WAT      O 9364   8.476   9.548   7.404
 3041WAT     H1 9365   8.495   9.484   7.478
 3041WAT     H2 9366   8.400   9.515   7.349
 3042WAT      O 9367   8.923   2.426   5.276
 3042WAT     H1 9368   8.888   2.518   5.295
 3042WAT     H2 9369   8.851   2.369   5.237
 3043WAT      O 9370   4.185   1.542   0.850
 3043WAT     H1 9371   4.095   1.499   0.858
 3043WAT     H2 9372   4.249   1.479   0.805
 3044WAT      O 9373   1.619   4.645   9.079
 3044WAT     H1 9374   1.629   4.589   9.161
 3044WAT     H2 9375   1.710   4.671   9.045
 3045WAT      O 9376   0.285   8.202   7.941
 3045WAT     H1 9377   0.199   8.161   7.910
 3045WAT     H2 9378   0.293   8.294   7.904
 3046WAT      O 9379   1.682   2.766   6.471
 3046WAT     H1 9380   1.659   2.831   6.399
 3046WAT     H2 9381   1.659   2.806   6.560
 3047WAT      O 9382   2.952   0.041   5.031
 3047WAT     H1 9383   3.040   0.008   5.064
 3047WAT     H2 9384   2.947   0.140   5.040
 3048WAT      O 9385   9.582   9.149   9.803
 3048WAT     H1 9386   9.601   9.080   9.733
 3048WAT     H2 9387   9.541   9.230   9.760
 3049WAT      O 9388   1.640   8.500   0.687
 3049WAT     H1 9389   1.578   8.423   0.705
 3049WAT     H2 9390   1.704   8.475   0.614
 3050WAT      O 9391   0.883   7.134   9.850
 3050WAT     H1 9392   0.898   7.052   9.796
 3050WAT     H2 9393   0.968   7.158   9.898
 3051WAT      O 9394   1.368   6.068   7.535
 3051WAT     H1 9395   1.269   6.073   7.538
 3051WAT     H2 9396   1.408   6.144   7.586
 3052WAT      O 9397   8.873   5.449   0.401
 3052WAT     H1 9398   8.835   5.542   0.404
 3052WAT     H2 9399   8.801   5.383   0.421
 3053WAT      O 9400   5.017   0.239   5.619
 3053WAT     H1 9401   4.973   0.248   5.530
 3053WAT     H2 9402   4.947   0.221   5.689
 3054WAT      O 9403   8.562   0.290   4.481
 3054WAT     H1 9404   8.544   0.379   4.523
 3054WAT     H2 9405   8.477   0.251   4.447
 3055WAT      O 9406   9.639   1.975   1.808
 3055WAT     H1 9407   9.620   1.903   1.742
 3055WAT     H2 9408   9.558   1.994   1.863
 3056WAT      O 9409   2.505   6.221   2.044
 3056WAT     H1 9410   2.602   6.226   2.067
 3056WAT     H2 9411   2.458   6.160   2.108
 3057WAT      O 9412   2.954   1.288   6.207
 3057WAT     H1 9413   3.002   1.237   6.136
 3057WAT     H2 9414   2.957   1.237   6.293
 3058WAT      O 9415   4.603   4.813   5.680
 3058WAT     H1 9416   4.559   4.753   5.745
 3058WAT     H2 9417   4.641   4.759   5.604
 3059WAT      O 9418   7.401   8.656   1.926
 3059WAT     H1 9419   7.314   8.665   1.879
 3059WAT     H2 9420   7.387   8.669   2.025
 3060WAT      O 9421   3.435   3.424   6.705
 3060WAT     H1 9422   3.477   3.340   6.670
 3060WAT     H2 9423   3.489   3.503   6.676
 3061WAT      O 9424   9.853   0.026   1.780
 3061WAT     H1 9425   9.905   0.092   1.726
 3061WAT     H2 9426   9.758   0.026   1.751
 3062WAT      O 9427   0.956   4.600   2.787
 3062WAT     H1 9428   1.024   4.632   2.852
 3062WAT     H2 9429   0.871   4.650   2.800
 3063WAT      O 9430   2.774   6.460   5.847
 3063WAT     H1 9431   2.770   6.554   5.814
 3063WAT     H2 9432   2.753   6.397   5.772
 3064WAT      O 9433   0.939   0.349   8.917
 3064WAT     H1 9434   0.856   0.293   8.918
 3064WAT     H2 9435   0.937   0.412   8.995
 3065WAT      O 9436   7.798   2.010   4.057
 3065WAT     H1 9437   7.798   1.911   4.072
 3065WAT     H2 9438   7.869   2.052   4.114
 3066WAT      O 9439   3.763   6.926   4.526
 3066WAT     H1 9440   3.702   6.862   4.572
 3066WAT     H2 9441   3.831   6.960   4.592
 3067WAT      O 9442   2.398   3.704   8.525
 3067WAT     H1 9443   2.459   3.783   8.528
 3067WAT     H2 9444   2.318   3.722   8.581
 3068WAT      O 9445   6.897   1.857   2.812
 3068WAT     H1 9446   6.877   1.951   2.786
 3068WAT     H2 9447   6.812   1.809   2.834
 3069WAT      O 9448   8.463   3.909   8.946
 3069WAT     H1 9449   8.544   3.964   8.927
 3069WAT     H2 9450   8.389   3.934   8.884
 3070WAT      O 9451   6.680   4.921   4.417
 3070WAT     H1 9452   6.734   4.840   4.394
 3070WAT     H2 9453   6.659   4.921   4.515
 3071WAT      O 9454   4.766   9.017   9.819
 3071WAT     H1 9455   4.852   8.973   9.796
 3071WAT     H2 9456   4.693   8.981   9.761
 3072WAT      O 9457   6.551   3.951   6.903
 3072WAT     H1 9458   6.528   3.916   6.812
 3072WAT     H2 9459   6.650   3.959   6.912
 3073WAT      O 9460   3.913   4.865   0.010
 3073WAT     H1 9461   3.855   4.785   0.024
 3073WAT     H2 9462   3.865   4.947   0.042
 3074WAT      O 9463   2.548   5.741   7.671
 3074WAT     H1 9464   2.581   5.743   7.577
 3074WAT     H2 9465   2.471   5.678   7.678
 3075WAT      O 9466   2.996   4.963   7.138
 3075WAT     H1 9467   3.089   4.997   7.120
 3075WAT     H2 9468   2.939   4.980   7.057
 3076WAT      O 9469   9.746   2.031   2.575
 3076WAT     H1 9470   9.648   2.013   2.567
 3076WAT     H2 9471   9.795   1.990   2.498
 3077WAT      O 9472   7.788   0.697   7.866
 3077WAT     H1 9473   7.773   0.762   7.940
 3077WAT     H2 9474   7.723   0.715   7.791
 3078WAT      O 9475   6.412   8.181   8.980
 3078WAT     H1 9476   6.418   8.085   9.007
 3078WAT     H2 9477   6.363   8.233   9.050
 3079WAT      O 9478   8.820   7.427   5.890
 3079WAT     H1 9479   8.873   7.458   5.811
 3079WAT     H2 9480   8.722   7.430   5.868
 3080WAT      O 9481   1.083   6.822   0.087
 3080WAT     H1 9482   0.999   6.871   0.111
 3080WAT     H2 9483   1.141   6.813   0.168
 3081WAT      O 9484   7.702   8.271   6.474
 3081WAT     H1 9485   7.697   8.367   6.445
 3081WAT     H2 9486   7.661   8.262   6.565
 3082WAT      O 9487   7.381   3.158   3.388
 3082WAT     H1 9488   7.320   3.079   3.384
 3082WAT     H2 9489   7.339   3.229   3.445
 3083WAT      O 9490   1.427   8.940   1.451
 3083WAT     H1 9491   1.449   9.029   1.411
 3083WAT     H2 9492   1.366   8.890   1.389
 3084WAT      O 9493   5.233   7.522   6.274
 3084WAT     H1 9494   5.152   7.491   6.323
 3084WAT     H2 9495   5.315   7.503   6.328
 3085WAT      O 9496   4.616   7.496   3.011
 3085WAT     H1 9497   4.619   7.397   3.024
 3085WAT     H2 9498   4.651   7.541   3.092
 3086WAT      O 9499   1.748   9.129   5.668
 3086WAT     H1 9500   1.661   9.096   5.703
 3086WAT     H2 9501   1.774   9.077   5.587
 3087WAT      O 9502   0.688   9.373   7.665
 3087WAT     H1 9503   0.593   9.350   7.642
 3087WAT     H2 9504   0.715   9.324   7.747
 3088WAT      O 9505   8.231   2.266   7.898
 3088WAT     H1 9506   8.150   2.223   7.938
 3088WAT     H2 9507   8.221   2.268   7.798
 3089WAT      O 9508   3.325   8.846   7.095
 3089WAT     H1 9509   3.414   8.802   7.083
 3089WAT     H2 9510   3.296   8.836   7.191
 3090WAT      O 9511   9.765   1.490   3.135
 3090WAT     H1 9512   9.707   1.413   3.109
 3090WAT     H2 9513   9.859   1.472   3.107
 3091WAT      O 9514   0.409   7.662   4.651
 3091WAT     H1 9515   0.381   7.703   4.737
 3091WAT     H2 9516   0.367   7.573   4.641
 3092WAT      O 9517   4.951   9.024   2.369
 3092WAT     H1 9518   4.882   9.025   2.442
 3092WAT     H2 9519   4.910   8.987   2.285
 3093WAT      O 9520   4.647   6.381   5.594
 3093WAT     H1 9521   4.582   6.389   5.519
 3093WAT     H2 9522   4.700   6.297   5.583
 3094WAT      O 9523   9.623   7.248   1.091
 3094WAT     H1 9524   9.555   7.319   1.073
 3094WAT     H2 9525   9.671   7.226   1.007
 3095WAT      O 9526   9.428   6.712   2.888
 3095WAT     H1 9527   9.436   6.768   2.970
 3095WAT     H2 9528   9.505   6.648   2.884
 3096WAT      O 9529   1.603   0.526   6.384
 3096WAT     H1 9530   1.671   0.457   6.407
 3096WAT     H2 9531   1.561   0.504   6.295
 3097WAT      O 9532   2.494   0.277   6.922
 3097WAT     H1 9533   2.431   0.284   7.000
 3097WAT     H2 9534   2.548   0.193   6.930
 3098WAT      O 9535   7.577   6.490   1.520
 3098WAT     H1 9536   7.578   6.492   1.620
 3098WAT     H2 9537   7.491   6.450   1.489
 3099WAT      O 9538   5.999   4.314   4.692
 3099WAT     H1 9539   6.014   4.412   4.692
 3099WAT     H2 9540   6.060   4.270   4.626
 3100WAT      O 9541   3.448   6.732   9.260
 3100WAT     H1 9542   3.506   6.814   9.255
 3100WAT     H2 9543   3.505   6.650   9.255
 3101WAT      O 9544   3.887   1.296   6.594
 3101WAT     H1 9545   3.921   1.213   6.637
 3101WAT     H2 9546   3.951   1.371   6.611
 3102WAT      O 9547   0.962   3.019   9.074
 3102WAT     H1 9548   1.055   3.026   9.040
 3102WAT     H2 9549   0.899   3.005   8.998
 3103WAT      O 9550   6.095   6.371   3.324
 3103WAT     H1 9551   6.182   6.413   3.350
 3103WAT     H2 9552   6.111   6.302   3.254
 3104WAT      O 9553   5.671   2.444   0.740
 3104WAT     H1 9554   5.642   2.457   0.646
 3104WAT     H2 9555   5.596   2.468   0.802
 3105WAT      O 9556   5.229   5.255   3.599
 3105WAT     H1 9557   5.191   5.261   3.691
 3105WAT     H2 9558   5.329   5.253   3.605
 3106WAT      O 9559   4.846   3.191   0.761
 3106WAT     H1 9560   4.917   3.166   0.696
 3106WAT     H2 9561   4.878   3.265   0.820
 3107WAT      O 9562   6.940   3.772   1.068
 3107WAT     H1 9563   6.857   3.718   1.056
 3107WAT     H2 9564   6.918   3.859   1.112
 3108WAT      O 9565   9.587   2.921   3.298
 3108WAT     H1 9566   9.665   2.981   3.280
 3108WAT     H2 9567   9.610   2.857   3.371
 3109WAT      O 9568   7.000   4.904   9.430
 3109WAT     H1 9569   6.965   4.893   9.524
 3109WAT     H2 9570   7.099   4.910   9.432
 3110WAT      O 9571   6.368   5.555   6.695
 3110WAT     H1 9572   6.278   5.593   6.717
 3110WAT     H2 9573   6.361   5.456   6.686
 3111WAT      O 9574   3.255   9.739   4.472
 3111WAT     H1 9575   3.295   9.651   4.497
 3111WAT     H2 9576   3.156   9.731   4.466
 3112WAT      O 9577   0.880   9.335   6.469
 3112WAT     H1 9578   0.803   9.382   6.513
 3112WAT     H2 9579   0.898   9.250   6.517
 3113WAT      O 9580   7.763   1.942   4.701
 3113WAT     H1 9581   7.741   1.967   4.795
 3113WAT     H2 9582   7.809   2.018   4.656
 3114WAT      O 9583   1.556   9.678   4.535
 3114WAT     H1 9584   1.568   9.650   4.440
 3114WAT     H2 9585   1.556   9.597   4.594
 3115WAT      O 9586   2.321   6.074   1.397
 3115WAT     H1 9587   2.299   6.172   1.387
 3115WAT     H2 9588   2.414   6.058   1.366
 3116WAT      O 9589   2.944   1.432   6.588
 3116WAT     H1 9590   3.028   1.485   6.601
 3116WAT     H2 9591   2.881   1.452   6.663
 3117WAT      O 9592   1.799   5.654   4.159
 3117WAT     H1 9593   1.856   5.715   4.104
 3117WAT     H2 9594   1.721   5.704   4.195
 3118WAT      O 9595   1.668   0.925   1.257
 3118WAT     H1 9596   1.585   0.953   1.305
 3118WAT     H2 9597   1.748   0.946   1.313
 3119WAT      O 9598   0.564   9.792   8.825
 3119WAT     H1 9599   0.637   9.836   8.876
 3119WAT     H2 9600   0.475   9.823   8.860
 3120WAT      O 9601   6.849   6.668   8.224
 3120WAT     H1 9602   6.948   6.657   8.210
 3120WAT     H2 9603   6.800   6.608   8.160
 3121WAT      O 9604   2.619   2.174   1.097
 3121WAT     H1 9605   2.596   2.193   1.193
 3121WAT     H2 9606   2.564   2.097   1.064
 3122WAT      O 9607   5.099   1.480   0.180
 3122WAT     H1 9608   5.037   1.524   0.245
 3122WAT     H2 9609   5.068   1.386   0.164
 3123WAT      O 9610   2.628   0.398   7.653
 3123WAT     H1 9611   2.543   0.404   7.704
 3123WAT     H2 9612   2.621   0.324   7.585
 3124WAT      O 9613   1.988   4.009   9.032
 3124WAT     H1 9614   1.903   4.011   9.086
 3124WAT     H2 9615   2.028   3.918   9.037
 3125WAT      O 9616   3.850   5.470   5.411
 3125WAT     H1 9617   3.889   5.532   5.343
 3125WAT     H2 9618   3.752   5.484   5.417
 3126WAT      O 9619   8.130   0.795   9.587
 3126WAT     H1 9620   8.216   0.797   9.639
 3126WAT     H2 9621   8.070   0.726   9.627
 3127WAT      O 9622   0.401   9.527   0.628
 3127WAT     H1 9623   0.349   9.523   0.542
 3127WAT     H2 9624   0.416   9.434   0.662
 3128WAT      O 9625   1.385   0.764   8.641
 3128WAT     H1 9626   1.381   0.861   8.617
 3128WAT     H2 9627   1.426   0.713   8.566
 3129WAT      O 9628   4.184   6.877   3.957
 3129WAT     H1 9629   4.148   6.787   3.982
 3129WAT     H2 9630   4.110   6.933   3.919
 3130WAT      O 9631   6.007   4.874   5.310
 3130WAT     H1 9632   6.062   4.834   5.236
 3130WAT     H2 9633   5.956   4.801   5.356
 3131WAT      O 9634   4.128   9.161   7.547
 3131WAT     H1 9635   4.138   9.203   7.457
 3131WAT     H2 9636   4.067   9.216   7.603
 3132WAT      O 9637   4.870   6.900   6.223
 3132WAT     H1 9638   4.878   6.831   6.150
 3132WAT     H2 9639   4.801   6.968   6.198
 3133WAT      O 9640   3.343   1.004   4.865
 3133WAT     H1 9641   3.287   1.087   4.858
 3133WAT     H2 9642   3.314   0.951   4.945
 3134WAT      O 9643   5.050   9.147   0.154
 3134WAT     H1 9644   5.026   9.073   0.217
 3134WAT     H2 9645   4.967   9.199   0.130
 3135WAT      O 9646   0.306   0.797   1.207
 3135WAT     H1 9647   0.285   0.894   1.199
 3135WAT     H2 9648   0.384   0.785   1.268
 3136WAT      O 9649   9.708   9.062   9.453
 3136WAT     H1 9650   9.641   9.024   9.518
 3136WAT     H2 9651   9.671   9.146   9.414
 3137WAT      O 9652   0.407   7.242   9.087
 3137WAT     H1 9653   0.475   7.172   9.107
 3137WAT     H2 9654   0.417   7.317   9.153
 3138WAT      O 9655   2.059   5.008   1.351
 3138WAT     H1 9656   2.131   5.050   1.296
 3138WAT     H2 9657   2.096   4.927   1.397
 3139WAT      O 9658   3.006   9.277   4.940
 3139WAT     H1 9659   3.038   9.317   5.026
 3139WAT     H2 9660   3.059   9.195   4.920
 3140WAT      O 9661   9.670   7.665   8.191
 3140WAT     H1 9662   9.737   7.695   8.123
 3140WAT     H2 9663   9.633   7.576   8.165
 3141WAT      O 9664   7.698   5.337   3.655
 3141WAT     H1 9665   7.688   5.349   3.753
 3141WAT     H2 9666   7.730   5.244   3.636
 3142WAT      O 9667   1.268   8.988   9.734
 3142WAT     H1 9668   1.345   8.926   9.716
 3142WAT     H2 9669   1.299   9.082   9.730
 3143WAT      O 9670   5.302   5.148   9.633
 3143WAT     H1 9671   5.232   5.076   9.637
 3143WAT     H2 9672   5.333   5.159   9.539
 3144WAT      O 9673   4.282   6.799   0.678
 3144WAT     H1 9674   4.377   6.828   0.693
 3144WAT     H2 9675   4.225   6.832   0.754
 3145WAT      O 9676   3.017   3.015   9.232
 3145WAT     H1 9677   2.928   3.014   9.187
 3145WAT     H2 9678   3.072   2.937   9.199
 3146WAT      O 9679   8.227   1.372   8.192
 3146WAT     H1 9680   8.219   1.397   8.289
 3146WAT     H2 9681   8.149   1.316   8.166
 3147WAT      O 9682   4.119   4.363   7.767
 3147WAT     H1 9683   4.032   4.313   7.761
 3147WAT     H2 9684   4.175   4.340   7.688
 3148WAT      O 9685   8.322   0.837   9.789
 3148WAT     H1 9686   8.253   0.906   9.808
 3148WAT     H2 9687   8.342   0.786   9.873
 3149WAT      O 9688   9.258   1.639   1.528
 3149WAT     H1 9689   9.308   1.626   1.442
 3149WAT     H2 9690   9.277   1.563   1.590
 3150WAT      O 9691   1.374   7.046   3.075
 3150WAT     H1 9692   1.433   7.035   3.155
 3150WAT     H2 9693   1.393   7.134   3.032
 3151WAT      O 9694   5.832   8.782   7.603
 3151WAT     H1 9695   5.808   8.822   7.515
 3151WAT     H2 9696   5.759   8.800   7.669
 3152WAT      O 9697   1.872   2.396   6.624
 3152WAT     H1 9698   1.838   2.473   6.678
 3152WAT     H2 9699   1.940   2.429   6.558
 3153WAT      O 9700   3.175   2.117   7.546
 3153WAT     H1 9701   3.124   2.120   7.632
 3153WAT     H2 9702   3.266   2.157   7.560
 3154WAT      O 9703   2.095   7.787   4.730
 3154WAT     H1 9704   2.070   7.734   4.649
 3154WAT     H2 9705   2.148   7.867   4.702
 3155WAT      O 9706   5.495   9.244   0.472
 3155WAT     H1 9707   5.421   9.192   0.515
 3155WAT     H2 9708   5.581   9.194   0.482
 3156WAT      O 9709   1.030   0.500   7.267
 3156WAT     H1 9710   0.965   0.474   7.339
 3156WAT     H2 9711   1.092   0.570   7.302
 3157WAT      O 9712   8.953   0.607   2.253
 3157WAT     H1 9713   8.866   0.595   2.204
 3157WAT     H2 9714   8.951   0.554   2.337
 3158WAT      O 9715   5.622   0.793   1.055
 3158WAT     H1 9716   5.645   0.719   0.991
 3158WAT     H2 9717   5.546   0.764   1.113
 3159WAT      O 9718   8.617   4.515   9.221
 3159WAT     H1 9719   8.692   4.477   9.274
 3159WAT     H2 9720   8.571   4.441   9.171
 3160WAT      O 9721   0.210   2.128   0.791
 3160WAT     H1 9722   0.205   2.093   0.698
 3160WAT     H2 9723   0.134   2.192   0.806
 3161WAT      O 9724   0.393   1.991   9.507
 3161WAT     H1 9725   0.337   2.028   9.433
 3161WAT     H2 9726   0.490   2.002   9.485
 3162WAT      O 9727   8.999   9.547   0.073
 3162WAT     H1 9728   8.978   9.505  -0.015
 3162WAT     H2 9729   9.077   9.608   0.063
 3163WAT      O 9730   9.183   5.878   4.564
 3163WAT     H1 9731   9.121   5.844   4.635
 3163WAT     H2 9732   9.263   5.819   4.558
 3164WAT      O 9733   8.753   4.785   9.728
 3164WAT     H1 9734   8.767   4.744   9.638
 3164WAT     H2 9735   8.803   4.732   9.796
 3165WAT      O 9736   5.329   3.604   1.890
 3165WAT     H1 9737   5.388   3.624   1.969
 3165WAT     H2 9738   5.248   3.554   1.921
 3166WAT      O 9739   6.822   6.785   7.229
 3166WAT     H1 9740   6.814   6.686   7.216
 3166WAT     H2 9741   6.764   6.815   7.305
 3167WAT      O 9742   5.181   4.494   2.675
 3167WAT     H1 9743   5.083   4.480   2.686
 3167WAT     H2 9744   5.207   4.580   2.720
 3168WAT      O 9745   1.345   0.115   7.141
 3168WAT     H1 9746   1.320   0.019   7.157
 3168WAT     H2 9747   1.319   0.141   7.048
 3169WAT      O 9748   3.473   3.172   2.707
 3169WAT     H1 9749   3.373   3.174   2.704
 3169WAT     H2 9750   3.508   3.264   2.720
 3170WAT      O 9751   2.843   1.092   4.934
 3170WAT     H1 9752   2.861   1.189   4.917
 3170WAT     H2 9753   2.768   1.060   4.877
 3171WAT      O 9754   5.460   7.696   2.108
 3171WAT     H1 9755   5.520   7.683   2.029
 3171WAT     H2 9756   5.459   7.793   2.134
 3172WAT      O 9757   7.157   8.104   8.086
 3172WAT     H1 9758   7.069   8.062   8.065
 3172WAT     H2 9759   7.153   8.202   8.070
 3173WAT      O 9760   8.346   6.736   5.447
 3173WAT     H1 9761   8.435   6.695   5.426
 3173WAT     H2 9762   8.286   6.666   5.486
 3174WAT      O 9763   5.230   4.379   8.198
 3174WAT     H1 9764   5.137   4.414   8.212
 3174WAT     H2 9765   5.273   4.429   8.123
 3175WAT      O 9766   6.986   3.527   9.645
 3175WAT     H1 9767   7.007   3.623   9.665
 3175WAT     H2 9768   7.014   3.506   9.551
 3176WAT      O 9769   1.743   7.697   7.091
 3176WAT     H1 9770   1.731   7.608   7.135
 3176WAT     H2 9771   1.826   7.697   7.036
 3177WAT      O 9772   7.307   3.783   9.606
 3177WAT     H1 9773   7.327   3.717   9.534
 3177WAT     H2 9774   7.209   3.783   9.625
 3178WAT      O 9775   7.527   8.846   9.123
 3178WAT     H1 9776   7.508   8.748   9.122
 3178WAT     H2 9777   7.530   8.879   9.218
 3179WAT      O 9778   8.343   1.941   6.386
 3179WAT     H1 9779   8.329   2.027   6.338
 3179WAT     H2 9780   8.381   1.960   6.477
 3180WAT      O 9781   4.171   6.359   3.958
 3180WAT     H1 9782   4.269   6.352   3.977
 3180WAT     H2 9783   4.156   6.353   3.859
 3181WAT      O 9784   0.664   8.380   3.332
 3181WAT     H1 9785   0.705   8.381   3.241
 3181WAT     H2 9786   0.703   8.455   3.386
 3182WAT      O 9787   2.804   2.308   7.747
 3182WAT     H1 9788   2.771   2.351   7.663
 3182WAT     H2 9789   2.896   2.272   7.732
 3183WAT      O 9790   7.812   0.726   8.882
 3183WAT     H1 9791   7.789   0.681   8.968
 3183WAT     H2 9792   7.756   0.687   8.808
 3184WAT      O 9793   0.047   0.021   8.116
 3184WAT     H1 9794   0.015   0.089   8.182
 3184WAT     H2 9795   0.056   0.063   8.026
 3185WAT      O 9796   1.243   0.528   2.543
 3185WAT     H1 9797   1.203   0.587   2.612
 3185WAT     H2 9798   1.341   0.518   2.561
 3186WAT      O 9799   5.586   4.354   7.144
 3186WAT     H1 9800   5.494   4.360   7.181
 3186WAT     H2 9801   5.596   4.418   7.067
 3187WAT      O 9802   5.491   3.039   4.524
 3187WAT     H1 9803   5.528   3.027   4.432
 3187WAT     H2 9804   5.518   3.129   4.559
 3188WAT      O 9805   7.861   3.431   1.478
 3188WAT     H1 9806   7.781   3.405   1.423
 3188WAT     H2 9807   7.865   3.372   1.559
 3189WAT      O 9808   0.584   8.843   8.751
 3189WAT     H1 9809   0.612   8.863   8.657
 3189WAT     H2 9810   0.594   8.745   8.769
 3190WAT      O 9811   1.283   5.539   7.175
 3190WAT     H1 9812   1.272   5.441   7.160
 3190WAT     H2 9813   1.260   5.562   7.269
 3191WAT      O 9814   8.996   7.324   3.107
 3191WAT     H1 9815   9.067   7.333   3.037
 3191WAT     H2 9816   8.906   7.338   3.067
 3192WAT      O 9817   5.997   9.255   7.952
 3192WAT     H1 9818   5.989   9.351   7.926
 3192WAT     H2 9819   5.947   9.198   7.887
 3193WAT      O 9820   4.264   6.878   3.574
 3193WAT     H1 9821   4.264   6.977   3.583
 3193WAT     H2 9822   4.174   6.847   3.544
 3194WAT      O 9823   9.532   9.657   4.825
 3194WAT     H1 9824   9.481   9.643   4.910
 3194WAT     H2 9825   9.480   9.718   4.765
 3195WAT      O 9826   8.734   0.479   9.068
 3195WAT     H1 9827   8.652   0.443   9.023
 3195WAT     H2 9828   8.793   0.522   9.001
 3196WAT      O 9829   6.263   0.292   5.494
 3196WAT     H1 9830   6.175   0.249   5.473
 3196WAT     H2 9831   6.337   0.229   5.473
 3197WAT      O 9832   3.649   8.253   7.926
 3197WAT     H1 9833   3.617   8.315   7.998
 3197WAT     H2 9834   3.619   8.160   7.947
 3198WAT      O 9835   7.534   3.084   7.817
 3198WAT     H1 9836   7.474   3.096   7.896
 3198WAT     H2 9837   7.495   3.131   7.738
 3199WAT      O 9838   6.584   2.180   5.648
 3199WAT     H1 9839   6.507   2.239   5.671
 3199WAT     H2 9840   6.550   2.095   5.609
 3200WAT      O 9841   6.364   9.412   7.513
 3200WAT     H1 9842   6.396   9.506   7.501
 3200WAT     H2 9843   6.438   9.348   7.489
 3201WAT      O 9844   7.129   7.137   7.310
 3201WAT     H1 9845   7.217   7.159   7.268
 3201WAT     H2 9846   7.124   7.039   7.326
 3202WAT      O 9847   9.357   2.645   0.687
 3202WAT     H1 9848   9.285   2.610   0.627
 3202WAT     H2 9849   9.424   2.573   0.705
 3203WAT      O 9850   7.749   2.981   7.498
 3203WAT     H1 9851   7.794   3.066   7.473
 3203WAT     H2 9852   7.651   2.987   7.475
 3204WAT      O 9853   0.167   0.269   9.361
 3204WAT     H1 9854   0.192   0.324   9.281
 3204WAT     H2 9855   0.123   0.184   9.332
 3205WAT      O 9856   8.834   9.222   2.629
 3205WAT     H1 9857   8.780   9.209   2.546
 3205WAT     H2 9858   8.928   9.244   2.603
 3206WAT      O 9859   9.723   8.030   3.356
 3206WAT     H1 9860   9.648   8.085   3.318
 3206WAT     H2 9861   9.696   7.995   3.446
 3207WAT      O 9862   5.097   1.194   1.005
 3207WAT     H1 9863   5.167   1.165   1.070
 3207WAT     H2 9864   5.100   1.293   0.994
 3208WAT      O 9865   0.549   8.157   6.760
 3208WAT     H1 9866   0.536   8.132   6.664
 3208WAT     H2 9867   0.478   8.221   6.787
 3209WAT      O 9868   4.633   8.830   9.216
 3209WAT     H1 9869   4.558   8.861   9.157
 3209WAT     H2 9870   4.665   8.907   9.271
 3210WAT      O 9871   1.956   9.426   7.181
 3210WAT     H1 9872   1.864   9.456   7.206
 3210WAT     H2 9873   1.964   9.420   7.082
 3211WAT      O 9874   5.099   4.912   4.061
 3211WAT     H1 9875   5.196   4.925   4.079
 3211WAT     H2 9876   5.055   5.000   4.045
 3212WAT      O 9877   1.631   7.308   1.970
 3212WAT     H1 9878   1.580   7.365   2.034
 3212WAT     H2 9879   1.571   7.238   1.932
 3213WAT      O 9880   8.200   3.424   2.388
 3213WAT     H1 9881   8.141   3.353   2.428
 3213WAT     H2 9882   8.218   3.494   2.457
 3214WAT      O 9883   7.859   7.500   5.523
 3214WAT     H1 9884   7.849   7.543   5.433
 3214WAT     H2 9885   7.943   7.532   5.566
 3215WAT      O 9886   9.251   9.703   7.086
 3215WAT     H1 9887   9.166   9.672   7.129
 3215WAT     H2 9888   9.230   9.773   7.017
 3216WAT      O 9889   4.919   1.771   6.026
 3216WAT     H1 9890   4.867   1.791   5.943
 3216WAT     H2 9891   4.926   1.672   6.037
 3217WAT      O 9892   2.948   1.881   8.417
 3217WAT     H1 9893   2.943   1.858   8.320
 3217WAT     H2 9894   2.988   1.804   8.467
 3218WAT      O 9895   3.337   7.814   6.133
 3218WAT     H1 9896   3.381   7.743   6.078
 3218WAT     H2 9897   3.342   7.790   6.229
 3219WAT      O 9898   4.353   1.962   1.787
 3219WAT     H1 9899   4.400   1.944   1.700
 3219WAT     H2 9900   4.414   1.938   1.863
 3220WAT      O 9901   9.184   3.416   3.352
 3220WAT     H1 9902   9.123   3.358   3.407
 3220WAT     H2 9903   9.279   3.390   3.371
 3221WAT      O 9904   3.541   3.834   7.378
 3221WAT     H1 9905   3.556   3.769   7.303
 3221WAT     H2 9906   3.452   3.878   7.366
 3222WAT      O 9907   6.285   9.117   5.971
 3222WAT     H1 9908   6.282   9.172   5.887
 3222WAT     H2 9909   6.317   9.025   5.948
 3223WAT      O 9910   1.205   5.486   9.758
 3223WAT     H1 9911   1.112   5.510   9.731
 3223WAT     H2 9912   1.269   5.515   9.686
 3224WAT      O 9913   6.295   6.689   5.381
 3224WAT     H1 9914   6.393   6.695   5.401
 3224WAT     H2 9915   6.249   6.636   5.453
 3225WAT      O 9916   5.572   1.268   2.315
 3225WAT     H1 9917   5.600   1.308   2.403
 3225WAT     H2 9918   5.481   1.229   2.324
 3226WAT      O 9919   1.786   5.983   5.620
 3226WAT     H1 9920   1.762   6.002   5.715
 3226WAT     H2 9921   1.748   5.894   5.593
 3227WAT      O 9922   9.507   8.386   4.592
 3227WAT     H1 9923   9.474   8.304   4.639
 3227WAT     H2 9924   9.595   8.414   4.631
 3228WAT      O 9925   9.531   2.724   8.913
 3228WAT     H1 9926   9.603   2.658   8.892
 3228WAT     H2 9927   9.502   2.713   9.008
 3229WAT      O 9928   5.790   2.871   3.355
 3229WAT     H1 9929   5.797   2.821   3.441
 3229WAT     H2 9930   5.747   2.960   3.371
 3230WAT      O 9931   7.139   8.822   7.219
 3230WAT     H1 9932   7.228   8.828   7.174
 3230WAT     H2 9933   7.138   8.883   7.298
 3231WAT      O 9934   4.313   6.170   8.912
 3231WAT     H1 9935   4.401   6.125   8.925
 3231WAT     H2 9936   4.260   6.120   8.844
 3232WAT      O 9937   4.814   7.075   5.289
 3232WAT     H1 9938   4.872   7.011   5.339
 3232WAT     H2 9939   4.791   7.036   5.200
 3233WAT      O 9940   5.125   0.090   4.210
 3233WAT     H1 9941   5.126   0.144   4.126
 3233WAT     H2 9942   5.138  -0.007   4.189
 3234WAT      O 9943   9.101   7.901   3.242
 3234WAT     H1 9944   9.180   7.928   3.296
 3234WAT     H2 9945   9.128   7.832   3.175
 3235WAT      O 9946   4.428   9.320   4.147
 3235WAT     H1 9947   4.390   9.310   4.055
 3235WAT     H2 9948   4.494   9.395   4.148
 3236WAT      O 9949   9.153   2.935   8.099
 3236WAT     H1 9950   9.232   2.877   8.079
 3236WAT     H2 9951   9.072   2.878   8.112
 3237WAT      O 9952   5.040   0.339   1.080
 3237WAT     H1 9953   5.127   0.299   1.055
 3237WAT     H2 9954   5.055   0.427   1.126
 3238WAT      O 9955   4.385   3.518   3.717
 3238WAT     H1 9956   4.319   3.527   3.642
 3238WAT     H2 9957   4.445   3.441   3.699
 3239WAT      O 9958   7.502   0.189   4.088
 3239WAT     H1 9959   7.556   0.176   4.005
 3239WAT     H2 9960   7.533   0.270   4.137
 3240WAT      O 9961   6.327   7.338   6.127
 3240WAT     H1 9962   6.232   7.360   6.146
 3240WAT     H2 9963   6.333   7.247   6.086
 3241WAT      O 9964   1.140   3.163   8.522
 3241WAT     H1 9965   1.055   3.121   8.554
 3241WAT     H2 9966   1.173   3.227   8.591
 3242WAT      O 9967   8.732   8.090   4.432
 3242WAT     H1 9968   8.707   8.071   4.336
 3242WAT     H2 9969   8.737   8.189   4.446
 3243WAT      O 9970   7.121   6.558   7.724
 3243WAT     H1 9971   7.187   6.620   7.767
 3243WAT     H2 9972   7.028   6.588   7.744
 3244WAT      O 9973   3.974   3.018   7.405
 3244WAT     H1 9974   4.015   2.991   7.318
 3244WAT     H2 9975   4.005   3.109   7.430
 3245WAT      O 9976   1.602   4.640   8.544
 3245WAT     H1 9977   1.651   4.555   8.562
 3245WAT     H2 9978   1.515   4.619   8.498
 3246WAT      O 9979   5.424   8.253   2.408
 3246WAT     H1 9980   5.324   8.250   2.406
 3246WAT     H2 9981   5.455   8.324   2.345
 3247WAT      O 9982   3.590   0.203   5.228
 3247WAT     H1 9983   3.575   0.278   5.293
 3247WAT     H2 9984   3.686   0.176   5.231
 3248WAT      O 9985   3.854   3.401   2.719
 3248WAT     H1 9986   3.868   3.438   2.811
 3248WAT     H2 9987   3.758   3.410   2.693
 3249WAT      O 9988   5.846   4.822   2.970
 3249WAT     H1 9989   5.786   4.883   3.021
 3249WAT     H2 9990   5.881   4.869   2.889
 3250WAT      O 9991   3.274   9.203   0.147
 3250WAT     H1 9992   3.192   9.155   0.179
 3250WAT     H2 9993   3.356   9.153   0.178
 3251WAT      O 9994   4.178   8.091   2.314
 3251WAT     H1 9995   4.176   8.191   2.321
 3251WAT     H2 9996   4.149   8.051   2.401
 3252WAT      O 9997   5.090   7.004   8.652
 3252WAT     H1 9998   5.181   7.017   8.613
 3252WAT     H2 9999   5.064   7.085   8.704
 3253WAT      O10000   7.036   7.184   2.017
 3253WAT     H110001   7.132   7.165   1.996
 3253WAT     H210002   7.015   7.154   2.110
 3254WAT      O10003   0.979   8.661   1.868
 3254WAT     H110004   0.997   8.585   1.929
 3254WAT     H210005   1.064   8.694   1.828
 3255WAT      O10006   8.558   8.204   5.965
 3255WAT     H110007   8.654   8.193   5.939
 3255WAT     H210008   8.549   8.201   6.064
 3256WAT      O10009   4.769   5.344   4.133
 3256WAT     H110010   4.803   5.392   4.214
 3256WAT     H210011   4.771   5.407   4.055
 3257WAT      O10012   2.223   2.383   0.856
 3257WAT     H110013   2.126   2.393   0.879
 3257WAT     H210014   2.251   2.288   0.870
 3258WAT      O10015   1.592   0.552   8.466
 3258WAT     H110016   1.554   0.473   8.513
 3258WAT     H210017   1.519   0.597   8.414
 3259WAT      O10018   3.134   7.807   2.979
 3259WAT     H110019   3.117   7.848   3.069
 3259WAT     H210020   3.230   7.778   2.974
 3260WAT      O10021   6.988   4.791   8.530
 3260WAT     H110022   6.966   4.884   8.500
 3260WAT     H210023   6.917   4.729   8.497
 3261WAT      O10024   4.820   2.146   5.712
 3261WAT     H110025   4.799   2.173   5.806
 3261WAT     H210026   4.907   2.097   5.710
 3262WAT      O10027   7.052   6.980   6.406
 3262WAT     H110028   7.045   6.880   6.415
 3262WAT     H210029   7.034   7.005   6.311
 3263WAT      O10030   7.414   6.220   8.052
 3263WAT     H110031   7.348   6.175   7.992
 3263WAT     H210032   7.504   6.179   8.039
 3264WAT      O10033   6.857   8.520   6.354
 3264WAT     H110034   6.785   8.456   6.381
 3264WAT     H210035   6.903   8.485   6.272
 3265WAT      O10036   3.265   7.088   5.650
 3265WAT     H110037   3.297   7.012   5.707
 3265WAT     H210038   3.168   7.076   5.628
 3266WAT      O10039   2.281   2.971   0.876
 3266WAT     H110040   2.259   3.067   0.896
 3266WAT     H210041   2.342   2.936   0.947
 3267WAT      O10042   5.107   4.561   0.880
 3267WAT     H110043   5.042   4.493   0.847
 3267WAT     H210044   5.114   4.556   0.980
 3268WAT      O10045   0.153   1.141   9.728
 3268WAT     H110046   0.058   1.132   9.760
 3268WAT     H210047   0.205   1.194   9.794
 3269WAT      O10048   1.049   0.446   0.490
 3269WAT     H110049   0.950   0.461   0.490
 3269WAT     H210050   1.079   0.424   0.583
 3270WAT      O10051   5.835   7.745   6.342
 3270WAT     H110052   5.917   7.697   6.309
 3270WAT     H210053   5.777   7.768   6.264
 3271WAT      O10054   6.258   6.122   6.837
 3271WAT     H110055   6.348   6.163   6.820
 3271WAT     H210056   6.187   6.183   6.801
 3272WAT      O10057   5.466   2.320   3.209
 3272WAT     H110058   5.526   2.296   3.133
 3272WAT     H210059   5.514   2.302   3.295
 3273WAT      O10060   6.646   0.886   0.964
 3273WAT     H110061   6.618   0.805   1.015
 3273WAT     H210062   6.719   0.933   1.013
 3274WAT      O10063   9.447   1.538   4.122
 3274WAT     H110064   9.427   1.599   4.046
 3274WAT     H210065   9.400   1.570   4.204
 3275WAT      O10066   2.009   6.351   2.369
 3275WAT     H110067   2.080   6.405   2.324
 3275WAT     H210068   1.963   6.294   2.301
 3276WAT      O10069   6.381   2.894   9.671
 3276WAT     H110070   6.363   2.832   9.595
 3276WAT     H210071   6.444   2.966   9.642
 3277WAT      O10072   4.617   4.076   0.225
 3277WAT     H110073   4.610   3.982   0.258
 3277WAT     H210074   4.541   4.094   0.162
 3278WAT      O10075   7.208   1.272   6.830
 3278WAT     H110076   7.145   1.319   6.892
 3278WAT     H210077   7.166   1.188   6.796
 3279WAT      O10078   5.148   6.463   9.362
 3279WAT     H110079   5.151   6.555   9.401
 3279WAT     H210080   5.186   6.465   9.269
 3280WAT      O10081   6.023   4.191   6.874
 3280WAT     H110082   6.003   4.233   6.786
 3280WAT     H210083   5.946   4.133   6.902
 3281WAT      O10084   3.091   8.853   8.122
 3281WAT     H110085   3.176   8.835   8.071
 3281WAT     H210086   3.113   8.895   8.210
 3282WAT      O10087   3.381   6.479   0.806
 3282WAT     H110088   3.312   6.551   0.815
 3282WAT     H210089   3.343   6.392   0.838
 3283WAT      O10090   1.632   6.626   3.065
 3283WAT     H110091   1.712   6.567   3.081
 3283WAT     H210092   1.653   6.719   3.096
 3284WAT      O10093   5.867   3.823   3.566
 3284WAT     H110094   5.776   3.810   3.605
 3284WAT     H210095   5.924   3.744   3.590
 3285WAT      O10096   4.629   6.972   0.975
 3285WAT     H110097   4.573   7.054   0.985
 3285WAT     H210098   4.725   6.998   0.962
 3286WAT      O10099   5.354   6.621   7.396
 3286WAT     H110100   5.380   6.663   7.482
 3286WAT     H210101   5.342   6.692   7.326
 3287WAT      O10102   0.730   4.423   3.023
 3287WAT     H110103   0.787   4.378   3.092
 3287WAT     H210104   0.675   4.355   2.976
 3288WAT      O10105   4.793   3.111   1.279
 3288WAT     H110106   4.751   3.197   1.309
 3288WAT     H210107   4.727   3.060   1.223
 3289WAT      O10108   0.938   5.188   2.449
 3289WAT     H110109   0.982   5.275   2.425
 3289WAT     H210110   0.976   5.154   2.535
 3290WAT      O10111   5.679   1.483   5.921
 3290WAT     H110112   5.671   1.539   5.838
 3290WAT     H210113   5.752   1.519   5.978
 3291WAT      O10114   8.495   7.664   7.291
 3291WAT     H110115   8.473   7.654   7.389
 3291WAT     H210116   8.448   7.593   7.239
 3292WAT      O10117   3.176   6.292   9.785
 3292WAT     H110118   3.265   6.326   9.816
 3292WAT     H210119   3.124   6.367   9.745
 3293WAT      O10120   2.097   1.889   4.653
 3293WAT     H110121   2.097   1.795   4.687
 3293WAT     H210122   2.162   1.897   4.577
 3294WAT      O10123   8.694   1.920   9.308
 3294WAT     H110124   8.691   2.005   9.360
 3294WAT     H210125   8.781   1.914   9.259
 3295WAT      O10126   4.496   1.983   2.256
 3295WAT     H110127   4.400   1.954   2.258
 3295WAT     H210128   4.513   2.048   2.329
 3296WAT      O10129   8.604   1.805   2.207
 3296WAT     H110130   8.521   1.860   2.221
 3296WAT     H210131   8.677   1.865   2.174
 3297WAT      O10132   5.399   9.185   2.440
 3297WAT     H110133   5.415   9.184   2.539
 3297WAT     H210134   5.330   9.117   2.416
 3298WAT      O10135   0.390   4.719   5.135
 3298WAT     H110136   0.385   4.787   5.208
 3298WAT     H210137   0.304   4.669   5.130
 3299WAT      O10138   2.776   3.181   3.122
 3299WAT     H110139   2.750   3.189   3.218
 3299WAT     H210140   2.708   3.229   3.066
 3300WAT      O10141   9.112   6.256   6.850
 3300WAT     H110142   9.075   6.264   6.943
 3300WAT     H210143   9.059   6.189   6.799
 3301WAT      O10144   6.177   9.412   5.063
 3301WAT     H110145   6.154   9.437   4.969
 3301WAT     H210146   6.123   9.333   5.091
 3302WAT      O10147   5.286   2.787   6.515
 3302WAT     H110148   5.288   2.887   6.515
 3302WAT     H210149   5.192   2.755   6.530
 3303WAT      O10150   8.217   9.371   4.298
 3303WAT     H110151   8.195   9.367   4.396
 3303WAT     H210152   8.316   9.381   4.287
 3304WAT      O10153   8.984   8.379   5.386
 3304WAT     H110154   9.074   8.350   5.354
 3304WAT     H210155   8.923   8.388   5.308
 3305WAT      O10156   6.377   3.891   0.217
 3305WAT     H110157   6.287   3.849   0.231
 3305WAT     H210158   6.383   3.927   0.124
 3306WAT      O10159   8.141   1.537   1.263
 3306WAT     H110160   8.230   1.493   1.249
 3306WAT     H210161   8.151   1.636   1.250
 3307WAT      O10162   8.525   6.187   7.339
 3307WAT     H110163   8.600   6.120   7.338
 3307WAT     H210164   8.451   6.153   7.281
 3308WAT      O10165   6.413   5.360   6.288
 3308WAT     H110166   6.509   5.335   6.280
 3308WAT     H210167   6.365   5.294   6.345
 3309WAT      O10168   8.590   1.180   1.480
 3309WAT     H110169   8.595   1.160   1.382
 3309WAT     H210170   8.677   1.219   1.510
 3310WAT      O10171   0.428   5.317   9.111
 3310WAT     H110172   0.351   5.378   9.129
 3310WAT     H210173   0.472   5.293   9.197
 3311WAT      O10174   9.460   8.994   3.956
 3311WAT     H110175   9.463   8.956   4.048
 3311WAT     H210176   9.493   8.926   3.891
 3312WAT      O10177   0.269   2.784   6.263
 3312WAT     H110178   0.187   2.757   6.213
 3312WAT     H210179   0.305   2.706   6.313
 3313WAT      O10180   5.003   5.288   6.479
 3313WAT     H110181   4.965   5.231   6.551
 3313WAT     H210182   4.931   5.349   6.444
 3314WAT      O10183   8.177   1.562   6.209
 3314WAT     H110184   8.213   1.469   6.215
 3314WAT     H210185   8.253   1.627   6.213
 3315WAT      O10186   8.904   6.116   1.047
 3315WAT     H110187   8.875   6.192   1.104
 3315WAT     H210188   8.963   6.150   0.973
 3316WAT      O10189   4.577   8.947   1.510
 3316WAT     H110190   4.646   8.925   1.441
 3316WAT     H210191   4.504   9.002   1.469
 3317WAT      O10192   6.149   9.122   3.121
 3317WAT     H110193   6.132   9.041   3.178
 3317WAT     H210194   6.168   9.093   3.027
 3318WAT      O10195   7.317   7.294   5.652
 3318WAT     H110196   7.250   7.235   5.607
 3318WAT     H210197   7.365   7.242   5.722
 3319WAT      O10198   2.573   2.015   6.620
 3319WAT     H110199   2.515   2.037   6.698
 3319WAT     H210200   2.533   1.939   6.568
 3320WAT      O10201   9.837   6.808   7.434
 3320WAT     H110202   9.812   6.881   7.371
 3320WAT     H210203   9.862   6.846   7.523
 3321WAT      O10204   6.517   3.537   9.828
 3321WAT     H110205   6.533   3.628   9.867
 3321WAT     H210206   6.603   3.503   9.790
 3322WAT      O10207   3.771   4.963   1.027
 3322WAT     H110208   3.779   4.966   1.127
 3322WAT     H210209   3.677   4.941   1.002
 3323WAT      O10210   5.128   4.075   1.856
 3323WAT     H110211   5.208   4.016   1.845
 3323WAT     H210212   5.051   4.020   1.889
 3324WAT      O10213   0.977   7.769   7.526
 3324WAT     H110214   0.986   7.683   7.576
 3324WAT     H210215   1.011   7.757   7.432
 3325WAT      O10216   7.022   1.976   9.009
 3325WAT     H110217   6.975   2.013   8.929
 3325WAT     H210218   6.980   1.889   9.035
 3326WAT      O10219   9.294   4.822   8.738
 3326WAT     H110220   9.248   4.735   8.754
 3326WAT     H210221   9.350   4.816   8.655
 3327WAT      O10222   1.790   7.202   3.934
 3327WAT     H110223   1.730   7.273   3.972
 3327WAT     H210224   1.789   7.123   3.995
 3328WAT      O10225   0.021   8.689   3.474
 3328WAT     H110226   0.056   8.632   3.549
 3328WAT     H210227   0.025   8.785   3.502
 3329WAT      O10228   8.828   4.625   2.377
 3329WAT     H110229   8.814   4.615   2.278
 3329WAT     H210230   8.833   4.722   2.400
 3330WAT      O10231   0.154   0.530   1.124
 3330WAT     H110232   0.202   0.618   1.133
 3330WAT     H210233   0.074   0.530   1.183
 3331WAT      O10234   1.494   2.997   4.878
 3331WAT     H110235   1.511   3.017   4.781
 3331WAT     H210236   1.445   2.911   4.886
 3332WAT      O10237   6.931   7.016   5.046
 3332WAT     H110238   6.979   6.943   4.996
 3332WAT     H210239   6.914   7.093   4.985
 3333WAT      O10240   6.552   8.779   8.099
 3333WAT     H110241   6.594   8.691   8.124
 3333WAT     H210242   6.466   8.762   8.051
 3334WAT      O10243   1.915   0.229   5.904
 3334WAT     H110244   1.889   0.175   5.984
 3334WAT     H210245   2.010   0.210   5.880
 3335WAT      O10246   1.833   9.322   5.815
 3335WAT     H110247   1.799   9.253   5.751
 3335WAT     H210248   1.780   9.319   5.900
 3336WAT      O10249   1.454   4.191   6.888
 3336WAT     H110250   1.443   4.113   6.950
 3336WAT     H210251   1.547   4.226   6.895
 3337WAT      O10252   3.276   6.895   0.732
 3337WAT     H110253   3.202   6.931   0.675
 3337WAT     H210254   3.358   6.880   0.676
 3338WAT      O10255   1.935   9.396   2.179
 3338WAT     H110256   2.025   9.428   2.210
 3338WAT     H210257   1.937   9.381   2.080
 3339WAT      O10258   2.996   2.921   3.414
 3339WAT     H110259   3.064   2.856   3.448
 3339WAT     H210260   3.032   2.966   3.332
 3340WAT      O10261   5.797   7.396   4.675
 3340WAT     H110262   5.793   7.310   4.725
 3340WAT     H210263   5.766   7.470   4.735
 3341WAT      O10264   6.869   0.499   2.634
 3341WAT     H110265   6.769   0.496   2.625
 3341WAT     H210266   6.896   0.439   2.710
 3342WAT      O10267   4.844   4.068   9.392
 3342WAT     H110268   4.794   3.986   9.365
 3342WAT     H210269   4.781   4.131   9.437
 3343WAT      O10270   2.505   2.629   4.134
 3343WAT     H110271   2.450   2.628   4.217
 3343WAT     H210272   2.568   2.551   4.134
 3344WAT      O10273   0.123   6.237   3.000
 3344WAT     H110274   0.152   6.308   2.936
 3344WAT     H210275   0.160   6.149   2.972
 3345WAT      O10276   2.732   5.035   3.569
 3345WAT     H110277   2.755   5.112   3.509
 3345WAT     H210278   2.771   4.951   3.532
 3346WAT      O10279   7.263   9.743   3.004
 3346WAT     H110280   7.322   9.723   3.081
 3346WAT     H210281   7.312   9.798   2.937
 3347WAT      O10282   5.813   7.164   0.798
 3347WAT     H110283   5.742   7.226   0.764
 3347WAT     H210284   5.792   7.141   0.893
 3348WAT      O10285   4.660   8.534   9.777
 3348WAT     H110286   4.643   8.558   9.873
 3348WAT     H210287   4.577   8.494   9.738
 3349WAT      O10288   5.249   2.460   3.269
 3349WAT     H110289   5.273   2.555   3.292
 3349WAT     H210290   5.332   2.408   3.252
 3350WAT      O10291   6.123   4.663   1.210
 3350WAT     H110292   6.176   4.662   1.295
 3350WAT     H210293   6.119   4.757   1.174
 3351WAT      O10294   4.211   2.035   9.755
 3351WAT     H110295   4.251   2.103   9.817
 3351WAT     H210296   4.112   2.050   9.750
 3352WAT      O10297   7.319   2.839   2.979
 3352WAT     H110298   7.306   2.916   3.041
 3352WAT     H210299   7.245   2.774   2.991
 3353WAT      O10300   2.549   1.060   3.484
 3353WAT     H110301   2.617   1.004   3.436
 3353WAT     H210302   2.553   1.154   3.448
 3354WAT      O10303   7.266   3.778   5.008
 3354WAT     H110304   7.185   3.830   4.979
 3354WAT     H210305   7.271   3.693   4.955
 3355WAT      O10306   7.691   3.508   0.746
 3355WAT     H110307   7.687   3.607   0.754
 3355WAT     H210308   7.693   3.482   0.650
 3356WAT      O10309   9.694   1.564   1.446
 3356WAT     H110310   9.744   1.482   1.476
 3356WAT     H210311   9.642   1.543   1.364
 3357WAT      O10312   1.701   6.877   6.604
 3357WAT     H110313   1.718   6.805   6.538
 3357WAT     H210314   1.610   6.916   6.589
 3358WAT      O10315   6.460   7.304   4.834
 3358WAT     H110316   6.463   7.205   4.846
 3358WAT     H210317   6.553   7.340   4.829
 3359WAT      O10318   6.367   1.740   0.831
 3359WAT     H110319   6.463   1.713   0.822
 3359WAT     H210320   6.338   1.729   0.926
 3360WAT      O10321   0.867   6.504   5.466
 3360WAT     H110322   0.893   6.418   5.422
 3360WAT     H210323   0.946   6.565   5.467
 3361WAT      O10324   9.711   7.710   2.850
 3361WAT     H110325   9.809   7.715   2.832
 3361WAT     H210326   9.661   7.754   2.775
 3362WAT      O10327   8.716   7.333   2.121
 3362WAT     H110328   8.734   7.344   2.023
 3362WAT     H210329   8.744   7.416   2.170
 3363WAT      O10330   8.680   7.502   9.180
 3363WAT     H110331   8.759   7.442   9.166
 3363WAT     H210332   8.696   7.589   9.135
 3364WAT      O10333   5.273   3.415   9.782
 3364WAT     H110334   5.361   3.441   9.822
 3364WAT     H210335   5.199   3.443   9.843
 3365WAT      O10336   7.939   0.329   8.727
 3365WAT     H110337   7.954   0.378   8.641
 3365WAT     H210338   7.986   0.377   8.801
 3366WAT      O10339   0.954   7.344   6.949
 3366WAT     H110340   0.936   7.337   7.047
 3366WAT     H210341   0.939   7.438   6.919
 3367WAT      O10342   3.646   0.528   9.829
 3367WAT     H110343   3.693   0.462   9.770
 3367WAT     H210344   3.559   0.553   9.788
 3368WAT      O10345   8.300   0.462   1.363
 3368WAT     H110346   8.374   0.512   1.408
 3368WAT     H210347   8.246   0.414   1.432
 3369WAT      O10348   3.779   3.447   1.455
 3369WAT     H110349   3.752   3.543   1.470
 3369WAT     H210350   3.704   3.387   1.483
 3370WAT      O10351   7.815   7.759   8.912
 3370WAT     H110352   7.777   7.682   8.861
 3370WAT     H210353   7.816   7.737   9.009
 3371WAT      O10354   8.737   1.358   9.764
 3371WAT     H110355   8.722   1.452   9.795
 3371WAT     H210356   8.685   1.295   9.821
 3372WAT      O10357   4.967   5.249   0.144
 3372WAT     H110358   4.991   5.152   0.149
 3372WAT     H210359   4.868   5.260   0.151
 3373WAT      O10360   0.147   0.886   2.044
 3373WAT     H110361   0.141   0.869   2.142
 3373WAT     H210362   0.238   0.923   2.022
 3374WAT      O10363   2.047   2.209   9.114
 3374WAT     H110364   2.034   2.146   9.038
 3374WAT     H210365   1.994   2.176   9.193
 3375WAT      O10366   8.419   8.918   4.353
 3375WAT     H110367   8.355   8.979   4.306
 3375WAT     H210368   8.406   8.825   4.321
 3376WAT      O10369   8.273   6.181   7.209
 3376WAT     H110370   8.304   6.149   7.120
 3376WAT     H210371   8.299   6.277   7.221
 3377WAT      O10372   7.694   2.570   6.939
 3377WAT     H110373   7.599   2.571   6.907
 3377WAT     H210374   7.730   2.663   6.939
 3378WAT      O10375   7.356   6.738   6.571
 3378WAT     H110376   7.336   6.836   6.576
 3378WAT     H210377   7.452   6.724   6.547
 3379WAT      O10378   2.186   8.417   7.146
 3379WAT     H110379   2.199   8.494   7.083
 3379WAT     H210380   2.092   8.385   7.140
 3380WAT      O10381   6.643   0.222   1.532
 3380WAT     H110382   6.688   0.282   1.466
 3380WAT     H210383   6.562   0.268   1.570
 3381WAT      O10384   4.563   9.207   9.033
 3381WAT     H110385   4.653   9.177   9.001
 3381WAT     H210386   4.541   9.295   8.990
 3382WAT      O10387   8.793   5.119   7.077
 3382WAT     H110388   8.735   5.199   7.087
 3382WAT     H210389   8.739   5.036   7.094
 3383WAT      O10390   2.037   2.235   1.541
 3383WAT     H110391   1.941   2.223   1.564
 3383WAT     H210392   2.054   2.202   1.448
 3384WAT      O10393   7.024   7.402   0.225
 3384WAT     H110394   7.080   7.385   0.306
 3384WAT     H210395   6.987   7.315   0.192
 3385WAT      O10396   4.305   6.544   3.122
 3385WAT     H110397   4.364   6.569   3.199
 3385WAT     H210398   4.362   6.509   3.048
 3386WAT      O10399   8.629   0.986   1.696
 3386WAT     H110400   8.723   0.956   1.715
 3386WAT     H210401   8.629   1.050   1.619
 3387WAT      O10402   4.509   8.605   2.392
 3387WAT     H110403   4.489   8.524   2.337
 3387WAT     H210404   4.478   8.687   2.343
 3388WAT      O10405   1.698   5.497   7.648
 3388WAT     H110406   1.705   5.480   7.549
 3388WAT     H210407   1.701   5.595   7.666
 3389WAT      O10408   8.590   6.524   4.991
 3389WAT     H110409   8.593   6.526   4.891
 3389WAT     H210410   8.594   6.618   5.026
 3390WAT      O10411   1.886   7.642   0.559
 3390WAT     H110412   1.953   7.605   0.495
 3390WAT     H210413   1.796   7.601   0.542
 3391WAT      O10414   8.922   3.261   6.754
 3391WAT     H110415   8.952   3.355   6.775
 3391WAT     H210416   8.840   3.264   6.698
 3392WAT      O10417   7.264   3.248   0.058
 3392WAT     H110418   7.249   3.342   0.088
 3392WAT     H210419   7.340   3.245  -0.006
 3393WAT      O10420   7.831   5.664   8.314
 3393WAT     H110421   7.925   5.660   8.347
 3393WAT     H210422   7.783   5.581   8.343
 3394WAT      O10423   7.733   5.415   5.700
 3394WAT     H110424   7.775   5.505   5.704
 3394WAT     H210425   7.677   5.400   5.781
 3395WAT      O10426   2.238   5.861   1.558
 3395WAT     H110427   2.276   5.939   1.508
 3395WAT     H210428   2.146   5.885   1.590
 3396WAT      O10429   7.875   9.749   2.004
 3396WAT     H110430   7.905   9.831   2.054
 3396WAT     H210431   7.945   9.678   2.011
 3397WAT      O10432   4.504   3.456   4.545
 3397WAT     H110433   4.440   3.516   4.497
 3397WAT     H210434   4.465   3.430   4.633
 3398WAT      O10435   7.510   8.560   6.711
 3398WAT     H110436   7.424   8.536   6.757
 3398WAT     H210437   7.495   8.637   6.649
 3399WAT      O10438   8.544   5.665   3.306
 3399WAT     H110439   8.589   5.754   3.311
 3399WAT     H210440   8.458   5.674   3.256
 3400WAT      O10441   7.484   1.204   0.932
 3400WAT     H110442   7.541   1.174   1.009
 3400WAT     H210443   7.423   1.129   0.905
 3401WAT      O10444   3.522   6.323   2.405
 3401WAT     H110445   3.511   6.414   2.367
 3401WAT     H210446   3.620   6.303   2.415
 3402WAT      O10447   5.582   2.979   7.069
 3402WAT     H110448   5.669   2.934   7.089
 3402WAT     H210449   5.561   2.969   6.972
 3403WAT      O10450   6.330   3.327   9.780
 3403WAT     H110451   6.264   3.295   9.847
 3403WAT     H210452   6.377   3.408   9.815
 3404WAT      O10453   0.315   4.187   6.067
 3404WAT     H110454   0.393   4.158   6.123
 3404WAT     H210455   0.291   4.281   6.091
 3405WAT      O10456   4.557   1.846   4.993
 3405WAT     H110457   4.556   1.769   4.929
 3405WAT     H210458   4.632   1.908   4.969
 3406WAT      O10459   2.251   0.119   8.878
 3406WAT     H110460   2.269   0.195   8.814
 3406WAT     H210461   2.229   0.157   8.968
 3407WAT      O10462   7.877   3.547   3.373
 3407WAT     H110463   7.819   3.627   3.385
 3407WAT     H210464   7.876   3.518   3.278
 3408WAT      O10465   7.168   8.464   3.390
 3408WAT     H110466   7.247   8.515   3.356
 3408WAT     H210467   7.123   8.517   3.463
 3409WAT      O10468   3.032   1.987   2.052
 3409WAT     H110469   3.110   1.943   2.009
 3409WAT     H210470   3.027   1.960   2.148
 3410WAT      O10471   2.212   9.736   6.001
 3410WAT     H110472   2.248   9.644   6.018
 3410WAT     H210473   2.121   9.730   5.960
 3411WAT      O10474   6.055   3.560   5.093
 3411WAT     H110475   6.086   3.618   5.018
 3411WAT     H210476   5.980   3.605   5.141
 3412WAT      O10477   8.109   8.791   3.595
 3412WAT     H110478   8.086   8.825   3.504
 3412WAT     H210479   8.205   8.766   3.597
 3413WAT      O10480   5.457   6.737   1.468
 3413WAT     H110481   5.451   6.731   1.568
 3413WAT     H210482   5.433   6.829   1.439
 3414WAT      O10483   2.575   0.921   6.414
 3414WAT     H110484   2.538   0.984   6.346
 3414WAT     H210485   2.520   0.926   6.497
 3415WAT      O10486   5.617   4.093   7.010
 3415WAT     H110487   5.537   4.034   7.025
 3415WAT     H210488   5.603   4.180   7.057
 3416WAT      O10489   0.131   7.518   3.055
 3416WAT     H110490   0.164   7.603   3.096
 3416WAT     H210491   0.032   7.512   3.065
 3417WAT      O10492   9.411   6.023   4.783
 3417WAT     H110493   9.502   6.063   4.796
 3417WAT     H210494   9.413   5.927   4.811
 3418WAT      O10495   4.682   5.332   8.522
 3418WAT     H110496   4.707   5.342   8.618
 3418WAT     H210497   4.759   5.295   8.471
 3419WAT      O10498   9.144   2.658   5.134
 3419WAT     H110499   9.135   2.682   5.231
 3419WAT     H210500   9.054   2.649   5.093
 3420WAT      O10501   2.148   9.562   8.175
 3420WAT     H110502   2.079   9.490   8.175
 3420WAT     H210503   2.115   9.642   8.124
 3421WAT      O10504   0.518   3.755   2.851
 3421WAT     H110505   0.558   3.782   2.938
 3421WAT     H210506   0.510   3.656   2.846
 3422WAT      O10507   1.758   7.677   6.091
 3422WAT     H110508   1.823   7.662   6.017
 3422WAT     H210509   1.806   7.710   6.172
 3423WAT      O10510   7.094   2.035   0.875
 3423WAT     H110511   7.028   2.038   0.800
 3423WAT     H210512   7.145   1.949   0.872
 3424WAT      O10513   3.356   5.306   3.056
 3424WAT     H110514   3.291   5.237   3.025
 3424WAT     H210515   3.382   5.288   3.151
 3425WAT      O10516   9.235   4.617   3.591
 3425WAT     H110517   9.158   4.677   3.614
 3425WAT     H210518   9.209   4.555   3.518
 3426WAT      O10519   0.958   5.971   0.260
 3426WAT     H110520   1.032   5.923   0.306
 3426WAT     H210521   0.957   5.948   0.163
 3427WAT      O10522   2.130   9.644   5.048
 3427WAT     H110523   2.215   9.680   5.087
 3427WAT     H210524   2.052   9.676   5.103
 3428WAT      O10525   5.952   8.596   9.427
 3428WAT     H110526   5.902   8.556   9.504
 3428WAT     H210527   6.047   8.611   9.453
 3429WAT      O10528   3.010   3.864   0.212
 3429WAT     H110529   2.930   3.834   0.263
 3429WAT     H210530   3.092   3.825   0.253
 3430WAT      O10531   8.865   7.947   3.091
 3430WAT     H110532   8.777   7.974   3.129
 3430WAT     H210533   8.935   7.949   3.162
 3431WAT      O10534   0.707   8.127   3.613
 3431WAT     H110535   0.786   8.105   3.671
 3431WAT     H210536   0.708   8.068   3.532
 3432WAT      O10537   6.189   3.459   6.157
 3432WAT     H110538   6.136   3.479   6.074
 3432WAT     H210539   6.145   3.386   6.208
 3433WAT      O10540   3.064   5.121   8.818
 3433WAT     H110541   2.996   5.067   8.867
 3433WAT     H210542   3.138   5.147   8.880
 3434WAT      O10543   1.879   5.717   2.505
 3434WAT     H110544   1.819   5.782   2.552
 3434WAT     H210545   1.905   5.754   2.416
 3435WAT      O10546   4.381   7.069   5.527
 3435WAT     H110547   4.359   7.026   5.614
 3435WAT     H210548   4.476   7.100   5.528
 3436WAT      O10549   8.261   6.222   6.505
 3436WAT     H110550   8.310   6.220   6.417
 3436WAT     H210551   8.163   6.235   6.488
 3437WAT      O10552   6.463   2.381   4.013
 3437WAT     H110553   6.468   2.358   3.915
 3437WAT     H210554   6.514   2.313   4.066
 3438WAT      O10555   5.191   0.596   3.436
 3438WAT     H110556   5.153   0.683   3.405
 3438WAT     H210557   5.134   0.521   3.403
 3439WAT      O10558   7.087   5.770   5.437
 3439WAT     H110559   7.040   5.696   5.484
 3439WAT     H210560   7.032   5.854   5.442
 3440WAT      O10561   5.211   3.757   9.442
 3440WAT     H110562   5.148   3.694   9.398
 3440WAT     H210563   5.305   3.735   9.416
 3441WAT      O10564   8.688   9.565   3.283
 3441WAT     H110565   8.715   9.537   3.375
 3441WAT     H210566   8.625   9.643   3.289
 3442WAT      O10567   3.000   9.595   5.587
 3442WAT     H110568   2.940   9.584   5.667
 3442WAT     H210569   2.961   9.663   5.526
 3443WAT      O10570   5.305   0.655   0.939
 3443WAT     H110571   5.343   0.697   1.021
 3443WAT     H210572   5.365   0.674   0.861
 3444WAT      O10573   2.475   9.665   4.602
 3444WAT     H110574   2.535   9.622   4.670
 3444WAT     H210575   2.384   9.680   4.643
 3445WAT      O10576   6.173   3.132   8.506
 3445WAT     H110577   6.089   3.186   8.517
 3445WAT     H210578   6.149   3.036   8.493
 3446WAT      O10579   1.943   6.971   4.091
 3446WAT     H110580   1.919   6.943   4.184
 3446WAT     H210581   2.032   6.932   4.066
 3447WAT      O10582   8.062   1.790   7.201
 3447WAT     H110583   8.154   1.800   7.240
 3447WAT     H210584   8.047   1.695   7.175
 3448WAT      O10585   6.574   6.930   1.020
 3448WAT     H110586   6.502   6.882   1.072
 3448WAT     H210587   6.663   6.890   1.043
 3449WAT      O10588   4.120   7.324   5.900
 3449WAT     H110589   4.211   7.335   5.860
 3449WAT     H210590   4.127   7.288   5.992
 3450WAT      O10591   1.311   1.162   2.297
 3450WAT     H110592   1.247   1.224   2.252
 3450WAT     H210593   1.359   1.211   2.370
 3451WAT      O10594   4.040   7.869   6.487
 3451WAT     H110595   3.949   7.894   6.454
 3451WAT     H210596   4.057   7.772   6.470
 3452WAT      O10597   2.895   4.511   7.261
 3452WAT     H110598   2.968   4.561   7.215
 3452WAT     H210599   2.930   4.423   7.293
 3453WAT      O10600   6.639   0.537   8.959
 3453WAT     H110601   6.670   0.529   8.865
 3453WAT     H210602   6.549   0.494   8.968
 3454WAT      O10603   3.827   5.818   1.893
 3454WAT     H110604   3.790   5.796   1.984
 3454WAT     H210605   3.926   5.828   1.899
 3455WAT      O10606   3.883   6.489   9.791
 3455WAT     H110607   3.832   6.416   9.837
 3455WAT     H210608   3.934   6.451   9.714
 3456WAT      O10609   6.518   4.182   8.995
 3456WAT     H110610   6.517   4.110   9.064
 3456WAT     H210611   6.524   4.272   9.039
 3457WAT      O10612   5.899   3.214   9.847
 3457WAT     H110613   5.834   3.137   9.855
 3457WAT     H210614   5.952   3.221   9.931
 3458WAT      O10615   0.031   7.463   8.238
 3458WAT     H110616   0.000   7.386   8.294
 3458WAT     H210617  -0.019   7.545   8.264
 3459WAT      O10618   7.722   2.578   8.585
 3459WAT     H110619   7.806   2.547   8.628
 3459WAT     H210620   7.644   2.529   8.625
 3460WAT      O10621   1.730   1.313   7.693
 3460WAT     H110622   1.802   1.365   7.738
 3460WAT     H210623   1.768   1.226   7.661
 3461WAT      O10624   8.217   5.921   7.812
 3461WAT     H110625   8.219   6.015   7.844
 3461WAT     H210626   8.122   5.889   7.807
 3462WAT      O10627   5.421   4.404   3.927
 3462WAT     H110628   5.430   4.493   3.882
 3462WAT     H210629   5.506   4.382   3.975
 3463WAT      O10630   4.368   2.194   4.236
 3463WAT     H110631   4.295   2.261   4.251
 3463WAT     H210632   4.411   2.170   4.323
 3464WAT      O10633   2.659   8.572   6.996
 3464WAT     H110634   2.600   8.592   6.918
 3464WAT     H210635   2.609   8.514   7.061
 3465WAT      O10636   2.775   3.519   7.372
 3465WAT     H110637   2.872   3.523   7.397
 3465WAT     H210638   2.760   3.443   7.309
 3466WAT      O10639   1.788   1.887   1.473
 3466WAT     H110640   1.745   1.963   1.520
 3466WAT     H210641   1.873   1.861   1.519
 3467WAT      O10642   1.557   6.320   5.734
 3467WAT     H110643   1.563   6.416   5.762
 3467WAT     H210644   1.463   6.300   5.706
 3468WAT      O10645   5.709   2.267   6.860
 3468WAT     H110646   5.627   2.216   6.833
 3468WAT     H210647   5.789   2.209   6.845
 3469WAT      O10648   0.522   1.717   0.403
 3469WAT     H110649   0.609   1.766   0.410
 3469WAT     H210650   0.474   1.721   0.491
 3470WAT      O10651   9.345   8.859   6.675
 3470WAT     H110652   9.385   8.801   6.604
 3470WAT     H210653   9.367   8.955   6.657
 3471WAT      O10654   4.247   2.403   0.555
 3471WAT     H110655   4.186   2.383   0.632
 3471WAT     H210656   4.301   2.484   0.574
 3472WAT      O10657   0.808   8.173   0.961
 3472WAT     H110658   0.902   8.193   0.934
 3472WAT     H210659   0.807   8.142   1.057
 3473WAT      O10660   4.529   5.520   2.752
 3473WAT     H110661   4.429   5.528   2.754
 3473WAT     H210662   4.564   5.505   2.844
 3474WAT      O10663   5.215   1.391   6.033
 3474WAT     H110664   5.235   1.355   5.942
 3474WAT     H210665   5.281   1.462   6.057
 3475WAT      O10666   6.439   3.425   7.423
 3475WAT     H110667   6.350   3.403   7.462
 3475WAT     H210668   6.495   3.471   7.492
 3476WAT      O10669   3.870   8.308   8.441
 3476WAT     H110670   3.878   8.339   8.535
 3476WAT     H210671   3.815   8.373   8.389
 3477WAT      O10672   1.217   6.076   0.526
 3477WAT     H110673   1.186   6.078   0.621
 3477WAT     H210674   1.232   6.169   0.494
 3478WAT      O10675   1.764   5.093   6.046
 3478WAT     H110676   1.669   5.103   6.016
 3478WAT     H210677   1.792   4.998   6.032
 3479WAT      O10678   8.960   4.787   4.907
 3479WAT     H110679   9.001   4.875   4.930
 3479WAT     H210680   8.991   4.758   4.817
 3480WAT      O10681   7.933   6.210   9.256
 3480WAT     H110682   7.834   6.200   9.268
 3480WAT     H210683   7.977   6.122   9.273
 3481WAT      O10684   1.411   6.793   1.609
 3481WAT     H110685   1.358   6.858   1.555
 3481WAT     H210686   1.455   6.728   1.548
 3482WAT      O10687   6.670   3.173   0.268
 3482WAT     H110688   6.615   3.091   0.247
 3482WAT     H210689   6.749   3.176   0.207
 3483WAT      O10690   7.762   5.683   3.285
 3483WAT     H110691   7.753   5.652   3.379
 3483WAT     H210692   7.699   5.631   3.227
 3484WAT      O10693   3.949   6.049   9.299
 3484WAT     H110694   3.866   5.998   9.276
 3484WAT     H210695   4.022   6.024   9.236
 3485WAT      O10696   8.639   2.653   6.219
 3485WAT     H110697   8.702   2.641   6.295
 3485WAT     H210698   8.650   2.577   6.155
 3486WAT      O10699   9.088   0.639   6.202
 3486WAT     H110700   9.039   0.602   6.124
 3486WAT     H210701   9.026   0.648   6.280
 3487WAT      O10702   4.875   8.234   5.552
 3487WAT     H110703   4.813   8.194   5.485
 3487WAT     H210704   4.892   8.167   5.624
 3488WAT      O10705   6.425   0.126   2.906
 3488WAT     H110706   6.372   0.107   2.824
 3488WAT     H210707   6.498   0.191   2.884
 3489WAT      O10708   7.497   5.983   5.336
 3489WAT     H110709   7.476   5.885   5.339
 3489WAT     H210710   7.416   6.035   5.362
 3490WAT      O10711   8.754   5.458   9.270
 3490WAT     H110712   8.789   5.423   9.357
 3490WAT     H210713   8.739   5.383   9.206
 3491WAT      O10714   5.128   6.976   4.738
 3491WAT     H110715   5.173   7.063   4.718
 3491WAT     H210716   5.045   6.993   4.790
 3492WAT      O10717   5.084   8.847   9.308
 3492WAT     H110718   5.152   8.834   9.236
 3492WAT     H210719   5.081   8.765   9.366
 3493WAT      O10720   5.768   6.642   1.839
 3493WAT     H110721   5.808   6.692   1.916
 3493WAT     H210722   5.702   6.701   1.792
 3494WAT      O10723   3.129   6.361   9.191
 3494WAT     H110724   3.126   6.426   9.267
 3494WAT     H210725   3.061   6.289   9.207
 3495WAT      O10726   7.319   6.960   2.202
 3495WAT     H110727   7.394   6.949   2.137
 3495WAT     H210728   7.237   6.913   2.168
 3496WAT      O10729   9.706   8.659   6.802
 3496WAT     H110730   9.620   8.641   6.753
 3496WAT     H210731   9.722   8.587   6.870
 3497WAT      O10732   1.668   8.790   0.688
 3497WAT     H110733   1.609   8.713   0.666
 3497WAT     H210734   1.750   8.757   0.734
 3498WAT      O10735   4.315   0.693   8.612
 3498WAT     H110736   4.277   0.753   8.542
 3498WAT     H210737   4.396   0.647   8.577
 3499WAT      O10738   3.805   1.086   7.352
 3499WAT     H110739   3.721   1.057   7.306
 3499WAT     H210740   3.845   1.008   7.400
 3500WAT      O10741   2.297   0.753   9.095
 3500WAT     H110742   2.283   0.659   9.066
 3500WAT     H210743   2.385   0.760   9.142
 3501WAT      O10744   6.651   6.571   2.089
 3501WAT     H110745   6.698   6.659   2.082
 3501WAT     H210746   6.593   6.557   2.009
 3502WAT      O10747   0.678   8.940   2.512
 3502WAT     H110748   0.582   8.914   2.523
 3502WAT     H210749   0.684   9.029   2.468
 3503WAT      O10750   4.349   2.130   0.525
 3503WAT     H110751   4.334   2.228   0.510
 3503WAT     H210752   4.354   2.084   0.436
 3504WAT      O10753   2.576   3.481   1.992
 3504WAT     H110754   2.527   3.510   2.075
 3504WAT     H210755   2.532   3.521   1.912
 3505WAT      O10756   8.462   5.902   8.408
 3505WAT     H110757   8.521   5.925   8.331
 3505WAT     H210758   8.494   5.818   8.451
 3506WAT      O10759   9.414   1.828   3.064
 3506WAT     H110760   9.490   1.764   3.065
 3506WAT     H210761   9.382   1.841   2.970
 3507WAT      O10762   8.484   4.915   4.016
 3507WAT     H110763   8.446   4.857   3.943
 3507WAT     H210764   8.433   5.001   4.019
 3508WAT      O10765   8.762   4.935   4.023
 3508WAT     H110766   8.769   5.012   3.959
 3508WAT     H210767   8.666   4.918   4.044
 3509WAT      O10768   0.231   6.923   0.581
 3509WAT     H110769   0.177   7.004   0.601
 3509WAT     H210770   0.308   6.947   0.522
 3510WAT      O10771   2.813   4.642   1.674
 3510WAT     H110772   2.895   4.689   1.641
 3510WAT     H210773   2.829   4.607   1.766
 3511WAT      O10774   4.815   9.145   3.155
 3511WAT     H110775   4.864   9.070   3.200
 3511WAT     H210776   4.853   9.158   3.063
 3512WAT      O10777   8.542   2.730   1.223
 3512WAT     H110778   8.494   2.756   1.307
 3512WAT     H210779   8.490   2.761   1.143
 3513WAT      O10780   3.169   1.675   0.784
 3513WAT     H110781   3.118   1.750   0.826
 3513WAT     H210782   3.257   1.708   0.750
 3514WAT      O10783   3.578   8.050   7.110
 3514WAT     H110784   3.623   8.017   7.027
 3514WAT     H210785   3.481   8.024   7.109
 3515WAT      O10786   7.974   6.671   0.094
 3515WAT     H110787   7.950   6.606   0.023
 3515WAT     H210788   8.006   6.756   0.052
 3516WAT      O10789   6.660   8.418   6.485
 3516WAT     H110790   6.581   8.437   6.543
 3516WAT     H210791   6.731   8.373   6.540
 3517WAT      O10792   3.335   0.937   4.151
 3517WAT     H110793   3.272   0.989   4.093
 3517WAT     H210794   3.305   0.842   4.157
 3518WAT      O10795   1.538   8.154   8.335
 3518WAT     H110796   1.626   8.118   8.365
 3518WAT     H210797   1.540   8.171   8.236
 3519WAT      O10798   5.663   1.334   7.449
 3519WAT     H110799   5.680   1.427   7.415
 3519WAT     H210800   5.663   1.270   7.372
 3520WAT      O10801   8.002   8.893   8.827
 3520WAT     H110802   8.051   8.809   8.849
 3520WAT     H210803   7.917   8.897   8.880
 3521WAT      O10804   1.863   4.156   8.279
 3521WAT     H110805   1.852   4.249   8.242
 3521WAT     H210806   1.960   4.138   8.293
 3522WAT      O10807   3.982   2.508   6.132
 3522WAT     H110808   3.942   2.588   6.087
 3522WAT     H210809   4.074   2.492   6.097
 3523WAT      O10810   4.271   1.958   6.978
 3523WAT     H110811   4.356   1.913   6.950
 3523WAT     H210812   4.227   1.905   7.051
 3524WAT      O10813   4.633   1.642   7.073
 3524WAT     H110814   4.657   1.723   7.018
 3524WAT     H210815   4.588   1.671   7.157
 3525WAT      O10816   0.767   6.709   4.049
 3525WAT     H110817   0.683   6.745   4.089
 3525WAT     H210818   0.804   6.638   4.109
 3526WAT      O10819   2.062   3.317   9.415
 3526WAT     H110820   2.083   3.385   9.485
 3526WAT     H210821   2.015   3.239   9.458
 3527WAT      O10822   2.126   7.207   4.109
 3527WAT     H110823   2.075   7.128   4.075
 3527WAT     H210824   2.183   7.179   4.186
 3528WAT      O10825   4.512   3.938   7.281
 3528WAT     H110826   4.533   3.843   7.260
 3528WAT     H210827   4.536   3.995   7.202
 3529WAT      O10828   7.894   1.880   1.824
 3529WAT     H110829   7.874   1.782   1.829
 3529WAT     H210830   7.887   1.911   1.729
 3530WAT      O10831   5.173   3.901   0.008
 3530WAT     H110832   5.140   3.842  -0.066
 3530WAT     H210833   5.169   3.996  -0.021
 3531WAT      O10834   7.349   9.134   7.512
 3531WAT     H110835   7.446   9.130   7.488
 3531WAT     H210836   7.336   9.100   7.605
 3532WAT      O10837   0.521   9.656   0.106
 3532WAT     H110838   0.445   9.594   0.122
 3532WAT     H210839   0.511   9.738   0.162
 3533WAT      O10840   6.714   5.454   4.874
 3533WAT     H110841   6.745   5.488   4.786
 3533WAT     H210842   6.688   5.531   4.932
 3534WAT      O10843   1.402   6.103   5.369
 3534WAT     H110844   1.487   6.102   5.421
 3534WAT     H210845   1.398   6.186   5.312
 3535WAT      O10846   8.260   6.754   9.662
 3535WAT     H110847   8.345   6.743   9.712
 3535WAT     H210848   8.270   6.716   9.570
 3536WAT      O10849   0.313   1.307   1.388
 3536WAT     H110850   0.266   1.393   1.370
 3536WAT     H210851   0.271   1.262   1.467
 3537WAT      O10852   3.526   7.176   4.064
 3537WAT     H110853   3.559   7.098   4.116
 3537WAT     H210854   3.496   7.145   3.974
 3538WAT      O10855   2.299   1.804   7.705
 3538WAT     H110856   2.287   1.901   7.727
 3538WAT     H210857   2.371   1.795   7.635
 3539WAT      O10858   6.386   3.537   1.565
 3539WAT     H110859   6.303   3.517   1.618
 3539WAT     H210860   6.360   3.571   1.474
 3540WAT      O10861   3.585   4.725   0.709
 3540WAT     H110862   3.648   4.651   0.734
 3540WAT     H210863   3.490   4.694   0.722
 3541WAT      O10864   1.916   5.413   8.059
 3541WAT     H110865   1.966   5.434   8.143
 3541WAT     H210866   1.944   5.476   7.987
 3542WAT      O10867   8.227   3.635   1.159
 3542WAT     H110868   8.284   3.563   1.118
 3542WAT     H210869   8.268   3.662   1.247
 3543WAT      O10870   1.822   6.102   9.718
 3543WAT     H110871   1.869   6.123   9.804
 3543WAT     H210872   1.724   6.116   9.729
 3544WAT      O10873   7.497   2.050   8.436
 3544WAT     H110874   7.524   2.061   8.340
 3544WAT     H210875   7.537   1.966   8.472
 3545WAT      O10876   8.549   7.432   5.799
 3545WAT     H110877   8.540   7.380   5.714
 3545WAT     H210878   8.568   7.528   5.777
 3546WAT      O10879   4.333   1.874   3.459
 3546WAT     H110880   4.236   1.899   3.464
 3546WAT     H210881   4.373   1.875   3.551
 3547WAT      O10882   8.948   1.880   1.322
 3547WAT     H110883   8.949   1.795   1.270
 3547WAT     H210884   9.039   1.921   1.321
 3548WAT      O10885   8.465   4.533   6.665
 3548WAT     H110886   8.471   4.602   6.737
 3548WAT     H210887   8.493   4.444   6.702
 3549WAT      O10888   7.518   5.263   6.851
 3549WAT     H110889   7.420   5.265   6.834
 3549WAT     H210890   7.540   5.325   6.927
 3550WAT      O10891   8.485   4.110   8.212
 3550WAT     H110892   8.385   4.116   8.205
 3550WAT     H210893   8.512   4.121   8.308
 3551WAT      O10894   8.479   5.453   5.820
 3551WAT     H110895   8.431   5.444   5.907
 3551WAT     H210896   8.414   5.440   5.745
 3552WAT      O10897   8.670   3.672   5.445
 3552WAT     H110898   8.769   3.658   5.453
 3552WAT     H210899   8.651   3.762   5.407
 3553WAT      O10900   6.284   9.031   9.886
 3553WAT     H110901   6.250   9.076   9.803
 3553WAT     H210902   6.368   9.076   9.915
 3554WAT      O10903   7.082   9.262   2.685
 3554WAT     H110904   7.048   9.172   2.711
 3554WAT     H210905   7.033   9.333   2.735
 3555WAT      O10906   8.333   8.807   0.802
 3555WAT     H110907   8.324   8.862   0.719
 3555WAT     H210908   8.428   8.780   0.815
 3556WAT      O10909   8.999   9.062   5.169
 3556WAT     H110910   8.930   9.049   5.097
 3556WAT     H210911   8.975   9.005   5.248
 3557WAT      O10912   9.045   4.000   4.868
 3557WAT     H110913   9.103   4.073   4.904
 3557WAT     H210914   9.058   3.917   4.922
 3558WAT      O10915   7.039   4.269   9.438
 3558WAT     H110916   7.111   4.209   9.402
 3558WAT     H210917   7.048   4.360   9.397
 3559WAT      O10918   5.368   4.368   8.731
 3559WAT     H110919   5.401   4.460   8.714
 3559WAT     H210920   5.442   4.313   8.770
 3560WAT      O10921   4.318   8.557   1.515
 3560WAT     H110922   4.259   8.484   1.550
 3560WAT     H210923   4.375   8.591   1.590
 3561WAT      O10924   7.523   1.483   9.723
 3561WAT     H110925   7.546   1.526   9.810
 3561WAT     H210926   7.462   1.405   9.739
 3562WAT      O10927   1.076   6.753   4.471
 3562WAT     H110928   0.979   6.734   4.486
 3562WAT     H210929   1.116   6.681   4.414
 3563WAT      O10930   3.098   7.464   5.066
 3563WAT     H110931   3.161   7.433   5.138
 3563WAT     H210932   3.121   7.419   4.980
 3564WAT      O10933   2.492   3.091   7.228
 3564WAT     H110934   2.503   3.189   7.215
 3564WAT     H210935   2.418   3.074   7.294
 3565WAT      O10936   3.084   2.702   1.608
 3565WAT     H110937   3.008   2.710   1.673
 3565WAT     H210938   3.063   2.634   1.539
 3566WAT      O10939   3.923   0.620   2.559
 3566WAT     H110940   3.914   0.692   2.628
 3566WAT     H210941   3.869   0.644   2.478
 3567WAT      O10942   2.748   7.439   1.097
 3567WAT     H110943   2.801   7.364   1.137
 3567WAT     H210944   2.657   7.440   1.139
 3568WAT      O10945   7.929   0.495   3.033
 3568WAT     H110946   7.910   0.401   3.062
 3568WAT     H210947   8.025   0.517   3.049
 3569WAT      O10948   2.377   0.429   4.618
 3569WAT     H110949   2.294   0.456   4.571
 3569WAT     H210950   2.381   0.329   4.625
 3570WAT      O10951   8.376   9.652   1.447
 3570WAT     H110952   8.436   9.669   1.369
 3570WAT     H210953   8.412   9.699   1.527
 3571WAT      O10954   7.500   0.556   4.778
 3571WAT     H110955   7.586   0.542   4.828
 3571WAT     H210956   7.473   0.470   4.735
 3572WAT      O10957   5.941   7.873   9.311
 3572WAT     H110958   5.899   7.830   9.391
 3572WAT     H210959   5.971   7.965   9.334
 3573WAT      O10960   2.226   8.719   0.905
 3573WAT     H110961   2.241   8.621   0.912
 3573WAT     H210962   2.180   8.752   0.988
 3574WAT      O10963   1.339   4.540   3.517
 3574WAT     H110964   1.416   4.597   3.490
 3574WAT     H210965   1.294   4.505   3.434
 3575WAT      O10966   4.450   7.419   5.826
 3575WAT     H110967   4.475   7.323   5.810
 3575WAT     H210968   4.521   7.478   5.788
 3576WAT      O10969   1.321   5.300   3.046
 3576WAT     H110970   1.396   5.365   3.032
 3576WAT     H210971   1.359   5.207   3.053
 3577WAT      O10972   4.072   3.237   0.737
 3577WAT     H110973   4.036   3.184   0.660
 3577WAT     H210974   4.016   3.220   0.818
 3578WAT      O10975   2.904   0.235   5.838
 3578WAT     H110976   2.932   0.309   5.776
 3578WAT     H210977   2.967   0.158   5.828
 3579WAT      O10978   4.417   5.677   8.822
 3579WAT     H110979   4.477   5.626   8.884
 3579WAT     H210980   4.329   5.630   8.816
 3580WAT      O10981   6.346   2.488   3.538
 3580WAT     H110982   6.384   2.477   3.447
 3580WAT     H210983   6.276   2.559   3.537
 3581WAT      O10984   0.394   2.098   6.263
 3581WAT     H110985   0.451   2.021   6.294
 3581WAT     H210986   0.439   2.143   6.186
 3582WAT      O10987   3.645   8.447   3.964
 3582WAT     H110988   3.709   8.444   3.886
 3582WAT     H210989   3.599   8.359   3.972
 3583WAT      O10990   6.814   4.407   1.877
 3583WAT     H110991   6.860   4.476   1.821
 3583WAT     H210992   6.716   4.429   1.884
 3584WAT      O10993   2.350   7.959   0.083
 3584WAT     H110994   2.372   7.999   0.172
 3584WAT     H210995   2.273   8.008   0.042
 3585WAT      O10996   6.422   0.125   9.852
 3585WAT     H110997   6.390   0.219   9.838
 3585WAT     H210998   6.396   0.094   9.944
 3586WAT      O10999   4.658   2.746   2.951
 3586WAT     H111000   4.725   2.724   2.881
 3586WAT     H211001   4.646   2.667   3.012
 3587WAT      O11002   7.738   3.278   4.232
 3587WAT     H111003   7.790   3.275   4.147
 3587WAT     H211004   7.659   3.337   4.220
 3588WAT      O11005   8.993   1.247   2.978
 3588WAT     H111006   9.065   1.210   3.036
 3588WAT     H211007   9.033   1.307   2.909
 3589WAT      O11008   0.210   1.574   3.339
 3589WAT     H111009   0.235   1.578   3.242
 3589WAT     H211010   0.259   1.645   3.390
 3590WAT      O11011   9.753   7.088   3.988
 3590WAT     H111012   9.681   7.021   3.972
 3590WAT     H211013   9.772   7.095   4.086
 3591WAT      O11014   4.651   2.931   3.145
 3591WAT     H111015   4.639   2.876   3.227
 3591WAT     H211016   4.654   2.872   3.064
 3592WAT      O11017   3.908   9.524   4.789
 3592WAT     H111018   3.950   9.613   4.768
 3592WAT     H211019   3.859   9.530   4.875
 3593WAT      O11020   3.469   4.839   8.498
 3593WAT     H111021   3.561   4.832   8.460
 3593WAT     H211022   3.420   4.754   8.481
 3594WAT      O11023   3.426   2.989   5.833
 3594WAT     H111024   3.346   2.943   5.795
 3594WAT     H211025   3.398   3.048   5.908
 3595WAT      O11026   2.721   7.420   2.026
 3595WAT     H111027   2.681   7.426   2.117
 3595WAT     H211028   2.675   7.348   1.973
 3596WAT      O11029   5.258   5.782   1.774
 3596WAT     H111030   5.252   5.686   1.803
 3596WAT     H211031   5.354   5.807   1.761
 3597WAT      O11032   5.479   9.474   4.771
 3597WAT     H111033   5.480   9.554   4.831
 3597WAT     H211034   5.445   9.395   4.821
 3598WAT      O11035   0.213   4.565   1.049
 3598WAT     H111036   0.167   4.627   1.112
 3598WAT     H211037   0.298   4.532   1.090
 3599WAT      O11038   3.988   7.553   7.307
 3599WAT     H111039   4.039   7.637   7.292
 3599WAT     H211040   4.050   7.475   7.303
 3600WAT      O11041   3.067   6.864   2.849
 3600WAT     H111042   2.974   6.832   2.834
 3600WAT     H211043   3.106   6.898   2.763
 3601WAT      O11044   1.305   7.493   8.956
 3601WAT     H111045   1.249   7.426   8.907
 3601WAT     H211046   1.295   7.479   9.055
 3602WAT      O11047   8.506   2.938   6.653
 3602WAT     H111048   8.470   2.975   6.567
 3602WAT     H211049   8.432   2.929   6.719
 3603WAT      O11050   7.402   9.532   3.848
 3603WAT     H111051   7.446   9.616   3.880
 3603WAT     H211052   7.471   9.463   3.829
 3604WAT      O11053   4.483   0.218   4.648
 3604WAT     H111054   4.511   0.189   4.740
 3604WAT     H211055   4.561   0.210   4.586
 3605WAT      O11056   1.010   4.038   2.795
 3605WAT     H111057   0.990   4.129   2.830
 3605WAT     H211058   1.095   4.040   2.743
 3606WAT      O11059   0.103   2.883   5.473
 3606WAT     H111060   0.055   2.882   5.385
 3606WAT     H211061   0.037   2.866   5.547
 3607WAT      O11062   2.373   7.881   1.405
 3607WAT     H111063   2.302   7.909   1.340
 3607WAT     H211064   2.395   7.785   1.392
 3608WAT      O11065   2.032   8.947   4.184
 3608WAT     H111066   2.090   8.924   4.106
 3608WAT     H211067   2.089   8.960   4.266
 3609WAT      O11068   9.608   4.919   3.030
 3609WAT     H111069   9.598   4.955   2.937
 3609WAT     H211070   9.696   4.948   3.067
 3610WAT      O11071   6.155   2.741   0.481
 3610WAT     H111072   6.235   2.767   0.535
 3610WAT     H211073   6.089   2.815   0.482
 3611WAT      O11074   8.867   1.554   7.715
 3611WAT     H111075   8.814   1.500   7.781
 3611WAT     H211076   8.826   1.645   7.706
 3612WAT      O11077   2.576   2.108   2.657
 3612WAT     H111078   2.548   2.191   2.705
 3612WAT     H211079   2.522   2.030   2.690
 3613WAT      O11080   8.380   0.450   2.202
 3613WAT     H111081   8.413   0.513   2.132
 3613WAT     H211082   8.310   0.495   2.257
 3614WAT      O11083   7.201   2.727   6.301
 3614WAT     H111084   7.249   2.640   6.291
 3614WAT     H211085   7.103   2.713   6.289
 3615WAT      O11086   7.998   7.003   4.025
 3615WAT     H111087   8.075   7.051   4.067
 3615WAT     H211088   7.975   7.045   3.937
 3616WAT      O11089   6.386   0.463   6.398
 3616WAT     H111090   6.456   0.483   6.466
 3616WAT     H211091   6.417   0.496   6.308
 3617WAT      O11092   1.765   3.745   0.838
 3617WAT     H111093   1.698   3.772   0.907
 3617WAT     H211094   1.728   3.761   0.747
 3618WAT      O11095   5.963   0.732   1.262
 3618WAT     H111096   6.003   0.645   1.234
 3618WAT     H211097   6.029   0.784   1.316
 3619WAT      O11098   2.460   2.064   8.297
 3619WAT     H111099   2.425   2.158   8.293
 3619WAT     H211100   2.556   2.065   8.327
 3620WAT      O11101   4.820   8.357   7.317
 3620WAT     H111102   4.897   8.419   7.319
 3620WAT     H211103   4.842   8.275   7.370
 3621WAT      O11104   9.821   8.633   4.074
 3621WAT     H111105   9.755   8.614   4.147
 3621WAT     H211106   9.805   8.725   4.038
 3622WAT      O11107   1.743   6.815   4.786
 3622WAT     H111108   1.766   6.911   4.768
 3622WAT     H211109   1.735   6.766   4.699
 3623WAT      O11110   3.167   7.871   3.630
 3623WAT     H111111   3.092   7.914   3.681
 3623WAT     H211112   3.140   7.862   3.534
 3624WAT      O11113   3.297   0.374   1.356
 3624WAT     H111114   3.355   0.313   1.303
 3624WAT     H211115   3.352   0.423   1.424
 3625WAT      O11116   6.112   7.550   3.809
 3625WAT     H111117   6.033   7.507   3.764
 3625WAT     H211118   6.119   7.645   3.780
 3626WAT      O11119   5.855   0.262   4.669
 3626WAT     H111120   5.888   0.357   4.672
 3626WAT     H211121   5.932   0.200   4.652
 3627WAT      O11122   6.226   1.712   9.768
 3627WAT     H111123   6.292   1.642   9.740
 3627WAT     H211124   6.216   1.710   9.868
 3628WAT      O11125   1.996   0.232   3.879
 3628WAT     H111126   2.049   0.147   3.870
 3628WAT     H211127   1.980   0.251   3.976
 3629WAT      O11128   8.119   3.219   6.655
 3629WAT     H111129   8.061   3.145   6.622
 3629WAT     H211130   8.158   3.195   6.743
 3630WAT      O11131   2.965   4.475   4.675
 3630WAT     H111132   2.951   4.443   4.769
 3630WAT     H211133   2.969   4.397   4.613
 3631WAT      O11134   7.809   1.959   1.573
 3631WAT     H111135   7.829   1.925   1.482
 3631WAT     H211136   7.848   2.051   1.583
 3632WAT      O11137   3.067   2.859   4.185
 3632WAT     H111138   3.011   2.785   4.222
 3632WAT     H211139   3.164   2.838   4.199
 3633WAT      O11140   8.363   7.567   6.398
 3633WAT     H111141   8.308   7.580   6.315
 3633WAT     H211142   8.310   7.515   6.465
 3634WAT      O11143   1.209   9.129   4.612
 3634WAT     H111144   1.150   9.060   4.571
 3634WAT     H211145   1.254   9.182   4.539
 3635WAT      O11146   7.269   8.279   5.410
 3635WAT     H111147   7.235   8.216   5.341
 3635WAT     H211148   7.297   8.365   5.367
 3636WAT      O11149   2.722   1.791   7.837
 3636WAT     H111150   2.734   1.890   7.829
 3636WAT     H211151   2.766   1.746   7.759
 3637WAT      O11152   1.842   2.324   4.066
 3637WAT     H111153   1.796   2.254   4.122
 3637WAT     H211154   1.866   2.285   3.977
 3638WAT      O11155   2.156   0.572   1.744
 3638WAT     H111156   2.153   0.621   1.657
 3638WAT     H211157   2.246   0.586   1.787
 3639WAT      O11158   0.596   8.146   5.452
 3639WAT     H111159   0.575   8.239   5.483
 3639WAT     H211160   0.683   8.116   5.491
 3640WAT      O11161   9.009   2.010   8.651
 3640WAT     H111162   8.910   1.996   8.647
 3640WAT     H211163   9.033   2.061   8.734
 3641WAT      O11164   8.468   5.156   6.080
 3641WAT     H111165   8.436   5.244   6.046
 3641WAT     H211166   8.389   5.097   6.100
 3642WAT      O11167   4.703   9.238   2.715
 3642WAT     H111168   4.768   9.314   2.717
 3642WAT     H211169   4.611   9.273   2.731
 3643WAT      O11170   6.581   9.390   0.511
 3643WAT     H111171   6.520   9.335   0.454
 3643WAT     H211172   6.585   9.351   0.603
 3644WAT      O11173   7.259   2.982   6.769
 3644WAT     H111174   7.239   2.961   6.673
 3644WAT     H211175   7.261   3.081   6.780
 3645WAT      O11176   4.707   8.953   8.428
 3645WAT     H111177   4.657   8.866   8.426
 3645WAT     H211178   4.658   9.018   8.485
 3646WAT      O11179   5.770   2.920   4.545
 3646WAT     H111180   5.810   2.954   4.461
 3646WAT     H211181   5.685   2.969   4.564
 3647WAT      O11182   0.990   9.387   5.210
 3647WAT     H111183   1.056   9.313   5.195
 3647WAT     H211184   1.018   9.468   5.160
 3648WAT      O11185   3.338   8.311   6.995
 3648WAT     H111186   3.429   8.303   7.036
 3648WAT     H211187   3.338   8.386   6.929
 3649WAT      O11188   1.791   4.128   0.344
 3649WAT     H111189   1.870   4.158   0.289
 3649WAT     H211190   1.793   4.029   0.352
 3650WAT      O11191   5.704   1.226   8.567
 3650WAT     H111192   5.787   1.281   8.575
 3650WAT     H211193   5.642   1.249   8.642
 3651WAT      O11194   2.275   8.780   7.188
 3651WAT     H111195   2.219   8.850   7.233
 3651WAT     H211196   2.325   8.727   7.257
 3652WAT      O11197   0.243   0.372   4.663
 3652WAT     H111198   0.295   0.317   4.728
 3652WAT     H211199   0.306   0.427   4.608
 3653WAT      O11200   3.855   8.464   7.833
 3653WAT     H111201   3.778   8.401   7.846
 3653WAT     H211202   3.919   8.425   7.767
 3654WAT      O11203   0.106   9.443   5.034
 3654WAT     H111204   0.195   9.484   5.016
 3654WAT     H211205   0.037   9.486   4.975
 3655WAT      O11206   2.890   0.175   1.096
 3655WAT     H111207   2.860   0.148   1.188
 3655WAT     H211208   2.957   0.248   1.102
 3656WAT      O11209   9.082   9.399   6.953
 3656WAT     H111210   9.041   9.426   6.866
 3656WAT     H211211   9.091   9.479   7.012
 3657WAT      O11212   3.175   7.759   4.039
 3657WAT     H111213   3.168   7.856   4.015
 3657WAT     H211214   3.085   7.726   4.069
 3658WAT      O11215   6.736   3.759   8.478
 3658WAT     H111216   6.671   3.834   8.492
 3658WAT     H211217   6.786   3.742   8.563
 3659WAT      O11218   3.011   2.646   6.651
 3659WAT     H111219   2.966   2.601   6.574
 3659WAT     H211220   2.988   2.744   6.650
 3660WAT      O11221   8.159   6.895   7.751
 3660WAT     H111222   8.248   6.888   7.707
 3660WAT     H211223   8.166   6.954   7.832
 3661WAT      O11224   9.819   5.843   6.805
 3661WAT     H111225   9.762   5.925   6.814
 3661WAT     H211226   9.781   5.785   6.733
 3662WAT      O11227   7.866   7.747   4.786
 3662WAT     H111228   7.941   7.746   4.721
 3662WAT     H211229   7.815   7.661   4.780
 3663WAT      O11230   8.049   6.178   2.896
 3663WAT     H111231   8.140   6.219   2.884
 3663WAT     H211232   8.025   6.179   2.993
 3664WAT      O11233   0.949   4.664   6.305
 3664WAT     H111234   0.920   4.730   6.375
 3664WAT     H211235   0.924   4.572   6.333
 3665WAT      O11236   3.835   0.693   1.850
 3665WAT     H111237   3.802   0.600   1.832
 3665WAT     H211238   3.800   0.723   1.939
 3666WAT      O11239   4.114   8.333   3.768
 3666WAT     H111240   4.168   8.300   3.691
 3666WAT     H211241   4.155   8.301   3.854
 3667WAT      O11242   5.284   0.981   4.503
 3667WAT     H111243   5.353   1.031   4.555
 3667WAT     H211244   5.320   0.892   4.478
 3668WAT      O11245   4.856   8.495   3.410
 3668WAT     H111246   4.849   8.405   3.368
 3668WAT     H211247   4.935   8.496   3.472
 3669WAT      O11248   8.528   2.206   2.521
 3669WAT     H111249   8.501   2.206   2.617
 3669WAT     H211250   8.508   2.295   2.481
 3670WAT      O11251   7.139   4.321   0.890
 3670WAT     H111252   7.077   4.394   0.918
 3670WAT     H211253   7.094   4.233   0.903
 3671WAT      O11254   3.340   6.128   6.742
 3671WAT     H111255   3.384   6.180   6.815
 3671WAT     H211256   3.393   6.046   6.723
 3672WAT      O11257   8.469   0.463   5.771
 3672WAT     H111258   8.536   0.511   5.714
 3672WAT     H211259   8.412   0.530   5.819
 3673WAT      O11260   4.578   9.454   5.079
 3673WAT     H111261   4.481   9.477   5.067
 3673WAT     H211262   4.628   9.536   5.109
 3674WAT      O11263   9.242   6.525   9.839
 3674WAT     H111264   9.326   6.474   9.858
 3674WAT     H211265   9.222   6.521   9.741
 3675WAT      O11266   6.157   7.393   2.075
 3675WAT     H111267   6.236   7.415   2.018
 3675WAT     H211268   6.183   7.326   2.144
 3676WAT      O11269   3.229   2.599   0.152
 3676WAT     H111270   3.206   2.686   0.108
 3676WAT     H211271   3.189   2.524   0.100
 3677WAT      O11272   6.486   9.324   2.977
 3677WAT     H111273   6.403   9.306   2.924
 3677WAT     H211274   6.462   9.370   3.062
 3678WAT      O11275   7.678   9.768   7.768
 3678WAT     H111276   7.610   9.763   7.695
 3678WAT     H211277   7.717   9.860   7.771
 3679WAT      O11278   6.293   4.805   4.092
 3679WAT     H111279   6.369   4.850   4.138
 3679WAT     H211280   6.221   4.872   4.072
 3680WAT      O11281   8.942   1.658   5.738
 3680WAT     H111282   8.914   1.648   5.833
 3680WAT     H211283   8.946   1.568   5.695
 3681WAT      O11284   3.687   0.427   9.390
 3681WAT     H111285   3.598   0.381   9.393
 3681WAT     H211286   3.747   0.378   9.327
 3682WAT      O11287   0.920   4.280   5.712
 3682WAT     H111288   0.876   4.305   5.798
 3682WAT     H211289   0.862   4.307   5.636
 3683WAT      O11290   8.790   2.810   3.509
 3683WAT     H111291   8.859   2.881   3.522
 3683WAT     H211292   8.753   2.814   3.416
 3684WAT      O11293   5.323   5.473   3.145
 3684WAT     H111294   5.310   5.395   3.084
 3684WAT     H211295   5.280   5.454   3.233
 3685WAT      O11296   8.279   9.675   8.483
 3685WAT     H111297   8.368   9.676   8.436
 3685WAT     H211298   8.286   9.726   8.568
 3686WAT      O11299   4.185   2.116   2.661
 3686WAT     H111300   4.189   2.090   2.564
 3686WAT     H211301   4.192   2.034   2.717
 3687WAT      O11302   0.263   8.575   5.448
 3687WAT     H111303   0.166   8.596   5.452
 3687WAT     H211304   0.279   8.503   5.380
 3688WAT      O11305   8.952   4.173   0.665
 3688WAT     H111306   8.980   4.094   0.611
 3688WAT     H211307   9.016   4.249   0.649
 3689WAT      O11308   9.481   4.127   8.569
 3689WAT     H111309   9.477   4.041   8.520
 3689WAT     H211310   9.566   4.132   8.622
 3690WAT      O11311   4.896   5.758   7.959
 3690WAT     H111312   4.863   5.786   8.050
 3690WAT     H211313   4.922   5.839   7.907
 3691WAT      O11314   9.161   0.379   4.211
 3691WAT     H111315   9.136   0.282   4.207
 3691WAT     H211316   9.172   0.407   4.306
 3692WAT      O11317   0.714   6.842   4.914
 3692WAT     H111318   0.807   6.825   4.882
 3692WAT     H211319   0.718   6.895   4.999
 3693WAT      O11320   5.402   1.198   6.683
 3693WAT     H111321   5.376   1.210   6.588
 3693WAT     H211322   5.402   1.101   6.707
 3694WAT      O11323   2.275   9.216   1.583
 3694WAT     H111324   2.263   9.266   1.669
 3694WAT     H211325   2.372   9.197   1.568
 3695WAT      O11326   8.649   0.193   0.967
 3695WAT     H111327   8.679   0.108   0.923
 3695WAT     H211328   8.666   0.188   1.065
 3696WAT      O11329   2.526   5.970   0.513
 3696WAT     H111330   2.549   6.014   0.599
 3696WAT     H211331   2.471   5.888   0.531
 3697WAT      O11332   4.753   4.121   1.836
 3697WAT     H111333   4.821   4.101   1.905
 3697WAT     H211334   4.685   4.184   1.873
 3698WAT      O11335   3.661   5.038   2.871
 3698WAT     H111336   3.622   4.947   2.864
 3698WAT     H211337   3.752   5.039   2.829
 3699WAT      O11338   6.049   9.567   0.871
 3699WAT     H111339   6.078   9.656   0.907
 3699WAT     H211340   6.127   9.521   0.828
 3700WAT      O11341   3.091   2.396   7.437
 3700WAT     H111342   3.108   2.318   7.497
 3700WAT     H211343   3.137   2.477   7.474
 3701WAT      O11344   0.970   7.219   0.828
 3701WAT     H111345   0.894   7.284   0.827
 3701WAT     H211346   1.022   7.229   0.913
 3702WAT      O11347   9.606   7.555   2.580
 3702WAT     H111348   9.636   7.650   2.572
 3702WAT     H211349   9.671   7.504   2.635
 3703WAT      O11350   9.792   2.221   3.911
 3703WAT     H111351   9.819   2.155   3.981
 3703WAT     H211352   9.781   2.175   3.823
 3704WAT      O11353   6.549   5.004   7.470
 3704WAT     H111354   6.545   5.025   7.372
 3704WAT     H211355   6.570   5.087   7.521
 3705WAT      O11356   6.030   2.445   6.631
 3705WAT     H111357   6.116   2.481   6.593
 3705WAT     H211358   6.015   2.353   6.596
 3706WAT      O11359   1.333   7.361   1.784
 3706WAT     H111360   1.404   7.400   1.725
 3706WAT     H211361   1.267   7.433   1.807
 3707WAT      O11362   6.037   4.076   0.545
 3707WAT     H111363   6.065   4.015   0.619
 3707WAT     H211364   5.980   4.025   0.481
 3708WAT      O11365   7.752   8.280   7.410
 3708WAT     H111366   7.720   8.256   7.502
 3708WAT     H211367   7.674   8.293   7.349
 3709WAT      O11368   6.600   3.346   6.952
 3709WAT     H111369   6.691   3.377   6.979
 3709WAT     H211370   6.548   3.422   6.913
 3710WAT      O11371   1.533   9.470   1.335
 3710WAT     H111372   1.473   9.499   1.410
 3710WAT     H211373   1.620   9.519   1.341
 3711WAT      O11374   4.049   5.838   9.771
 3711WAT     H111375   4.118   5.770   9.795
 3711WAT     H211376   4.024   5.827   9.675
 3712WAT      O11377   0.620   7.770   6.663
 3712WAT     H111378   0.718   7.789   6.662
 3712WAT     H211379   0.577   7.809   6.581
 3713WAT      O11380   0.515   3.616   7.539
 3713WAT     H111381   0.548   3.525   7.515
 3713WAT     H211382   0.551   3.642   7.629
 3714WAT      O11383   0.283   5.661   0.111
 3714WAT     H111384   0.300   5.648   0.013
 3714WAT     H211385   0.259   5.574   0.153
 3715WAT      O11386   3.996   9.300   7.103
 3715WAT     H111387   3.980   9.281   7.006
 3715WAT     H211388   3.922   9.356   7.139
 3716WAT      O11389   6.784   3.847   4.754
 3716WAT     H111390   6.709   3.804   4.804
 3716WAT     H211391   6.797   3.800   4.666
 3717WAT      O11392   2.309   5.152   4.481
 3717WAT     H111393   2.379   5.103   4.533
 3717WAT     H211394   2.246   5.197   4.544
 3718WAT      O11395   2.160   2.002   9.739
 3718WAT     H111396   2.092   1.943   9.784
 3718WAT     H211397   2.143   2.003   9.640
 3719WAT      O11398   4.580   8.793   6.585
 3719WAT     H111399   4.580   8.866   6.517
 3719WAT     H211400   4.655   8.730   6.567
 3720WAT      O11401   8.170   4.432   1.017
 3720WAT     H111402   8.177   4.483   0.931
 3720WAT     H211403   8.151   4.336   0.997
 3721WAT      O11404   7.326   3.409   2.960
 3721WAT     H111405   7.329   3.422   2.861
 3721WAT     H211406   7.234   3.380   2.986
 3722WAT      O11407   9.578   1.144   5.239
 3722WAT     H111408   9.553   1.241   5.236
 3722WAT     H211409   9.497   1.088   5.221
 3723WAT      O11410   5.009   6.277   9.495
 3723WAT     H111411   5.058   6.351   9.448
 3723WAT     H211412   4.930   6.315   9.542
 3724WAT      O11413   5.205   6.375   7.606
 3724WAT     H111414   5.225   6.464   7.647
 3724WAT     H211415   5.106   6.357   7.613
 3725WAT      O11416   6.390   4.244   8.434
 3725WAT     H111417   6.417   4.235   8.530
 3725WAT     H211418   6.455   4.305   8.387
 3726WAT      O11419   7.649   6.091   8.025
 3726WAT     H111420   7.748   6.093   8.021
 3726WAT     H211421   7.620   6.018   8.087
 3727WAT      O11422   2.173   7.077   0.911
 3727WAT     H111423   2.077   7.067   0.884
 3727WAT     H211424   2.214   7.153   0.861
 3728WAT      O11425   9.106   5.479   5.696
 3728WAT     H111426   9.065   5.392   5.725
 3728WAT     H211427   9.172   5.509   5.764
 3729WAT      O11428   4.192   1.572   4.334
 3729WAT     H111429   4.195   1.663   4.376
 3729WAT     H211430   4.285   1.542   4.312
 3730WAT      O11431   9.782   7.377   2.708
 3730WAT     H111432   9.871   7.400   2.748
 3730WAT     H211433   9.724   7.335   2.778
 3731WAT      O11434   1.249   1.089   6.173
 3731WAT     H111435   1.224   1.134   6.087
 3731WAT     H211436   1.215   0.996   6.174
 3732WAT      O11437   9.472   9.331   9.138
 3732WAT     H111438   9.470   9.409   9.075
 3732WAT     H211439   9.537   9.350   9.212
 3733WAT      O11440   3.075   1.069   3.252
 3733WAT     H111441   3.051   0.973   3.242
 3733WAT     H211442   3.046   1.101   3.343
 3734WAT      O11443   5.938   3.611   2.645
 3734WAT     H111444   5.878   3.608   2.565
 3734WAT     H211445   5.919   3.533   2.704
 3735WAT      O11446   4.827   9.448   5.922
 3735WAT     H111447   4.764   9.525   5.931
 3735WAT     H211448   4.886   9.443   6.002
 3736WAT      O11449   1.172   7.521   7.949
 3736WAT     H111450   1.192   7.611   7.911
 3736WAT     H211451   1.181   7.525   8.048
 3737WAT      O11452   8.596   1.214   0.091
 3737WAT     H111453   8.595   1.117   0.066
 3737WAT     H211454   8.657   1.228   0.168
 3738WAT      O11455   9.020   7.705   0.555
 3738WAT     H111456   9.011   7.610   0.585
 3738WAT     H211457   8.930   7.747   0.549
 3739WAT      O11458   3.679   1.930   1.044
 3739WAT     H111459   3.590   1.892   1.019
 3739WAT     H211460   3.730   1.863   1.099
 3740WAT      O11461   0.521   1.912   0.092
 3740WAT     H111462   0.440   1.894   0.148
 3740WAT     H211463   0.600   1.923   0.151
 3741WAT      O11464   3.569   4.303   6.905
 3741WAT     H111465   3.568   4.245   6.824
 3741WAT     H211466   3.633   4.379   6.892
 3742WAT      O11467   5.372   8.958   3.525
 3742WAT     H111468   5.371   8.905   3.441
 3742WAT     H211469   5.400   9.052   3.506
 3743WAT      O11470   2.630   3.602   2.661
 3743WAT     H111471   2.729   3.599   2.673
 3743WAT     H211472   2.609   3.643   2.572
 3744WAT      O11473   4.831   3.100   8.588
 3744WAT     H111474   4.838   3.189   8.544
 3744WAT     H211475   4.921   3.058   8.594
 3745WAT      O11476   2.836   4.210   3.406
 3745WAT     H111477   2.844   4.298   3.453
 3745WAT     H211478   2.920   4.158   3.418
 3746WAT      O11479   1.845   1.012   5.906
 3746WAT     H111480   1.788   0.973   5.979
 3746WAT     H211481   1.825   0.965   5.820
 3747WAT      O11482   3.332   6.926   8.240
 3747WAT     H111483   3.382   7.005   8.205
 3747WAT     H211484   3.379   6.890   8.321
 3748WAT      O11485   7.009   4.369   2.064
 3748WAT     H111486   6.996   4.283   2.114
 3748WAT     H211487   6.934   4.379   1.997
 3749WAT      O11488   0.825   8.183   0.646
 3749WAT     H111489   0.790   8.271   0.616
 3749WAT     H211490   0.789   8.162   0.737
 3750WAT      O11491   5.899   3.970   0.327
 3750WAT     H111492   5.863   4.028   0.253
 3750WAT     H211493   5.823   3.933   0.380
 3751WAT      O11494   2.408   8.891   0.770
 3751WAT     H111495   2.357   8.825   0.826
 3751WAT     H211496   2.349   8.922   0.695
 3752WAT      O11497   6.256   2.725   0.083
 3752WAT     H111498   6.256   2.713  -0.016
 3752WAT     H211499   6.166   2.756   0.113
 3753WAT      O11500   2.852   7.613   2.309
 3753WAT     H111501   2.800   7.698   2.316
 3753WAT     H211502   2.929   7.627   2.246
 3754WAT      O11503   7.092   2.669   2.592
 3754WAT     H111504   7.150   2.709   2.521
 3754WAT     H211505   7.145   2.602   2.643
 3755WAT      O11506   2.581   2.061   2.094
 3755WAT     H111507   2.579   1.969   2.134
 3755WAT     H211508   2.647   2.063   2.020
 3756WAT      O11509   5.233   2.871   5.294
 3756WAT     H111510   5.172   2.950   5.296
 3756WAT     H211511   5.262   2.853   5.200
 3757WAT      O11512   3.105   6.003   6.804
 3757WAT     H111513   3.179   6.064   6.774
 3757WAT     H211514   3.142   5.912   6.820
 3758WAT      O11515   3.220   0.359   6.255
 3758WAT     H111516   3.204   0.263   6.232
 3758WAT     H211517   3.174   0.417   6.188
 3759WAT      O11518   8.909   0.422   0.778
 3759WAT     H111519   8.811   0.425   0.758
 3759WAT     H211520   8.953   0.357   0.715
 3760WAT      O11521   6.339   0.915   7.867
 3760WAT     H111522   6.255   0.961   7.840
 3760WAT     H211523   6.392   0.893   7.785
 3761WAT      O11524   2.908   5.285   8.048
 3761WAT     H111525   2.935   5.314   8.140
 3761WAT     H211526   2.818   5.241   8.053
 3762WAT      O11527   2.204   8.764   5.441
 3762WAT     H111528   2.261   8.758   5.358
 3762WAT     H211529   2.238   8.837   5.500
 3763WAT      O11530   6.601   1.222   1.812
 3763WAT     H111531   6.566   1.148   1.753
 3763WAT     H211532   6.672   1.272   1.763
 3764WAT      O11533   2.741   6.026   4.591
 3764WAT     H111534   2.749   5.960   4.665
 3764WAT     H211535   2.655   6.076   4.600
 3765WAT      O11536   4.262   9.557   7.002
 3765WAT     H111537   4.192   9.578   7.070
 3765WAT     H211538   4.218   9.527   6.917
 3766WAT      O11539   4.136   5.700   3.665
 3766WAT     H111540   4.145   5.707   3.566
 3766WAT     H211541   4.172   5.783   3.708
 3767WAT      O11542   2.021   5.305   4.085
 3767WAT     H111543   2.102   5.261   4.124
 3767WAT     H211544   2.038   5.327   3.989
 3768WAT      O11545   3.619   9.786   8.276
 3768WAT     H111546   3.589   9.858   8.214
 3768WAT     H211547   3.585   9.805   8.368
 3769WAT      O11548   0.482   7.418   0.779
 3769WAT     H111549   0.571   7.428   0.822
 3769WAT     H211550   0.416   7.478   0.825
 3770WAT      O11551   0.354   1.297   8.618
 3770WAT     H111552   0.347   1.379   8.675
 3770WAT     H211553   0.278   1.236   8.638
 3771WAT      O11554   8.565   8.536   1.121
 3771WAT     H111555   8.543   8.449   1.078
 3771WAT     H211556   8.584   8.604   1.050
 3772WAT      O11557   7.549   1.502   5.397
 3772WAT     H111558   7.485   1.441   5.443
 3772WAT     H211559   7.570   1.579   5.458
 3773WAT      O11560   2.145   2.681   0.270
 3773WAT     H111561   2.157   2.670   0.369
 3773WAT     H211562   2.228   2.651   0.224
 3774WAT      O11563   1.176   2.611   5.672
 3774WAT     H111564   1.251   2.664   5.632
 3774WAT     H211565   1.213   2.540   5.731
 3775WAT      O11566   4.807   6.191   8.915
 3775WAT     H111567   4.838   6.116   8.857
 3775WAT     H211568   4.872   6.204   8.991
 3776WAT      O11569   3.062   9.251   8.741
 3776WAT     H111570   3.120   9.253   8.823
 3776WAT     H211571   2.970   9.281   8.765
 3777WAT      O11572   6.420   1.387   7.984
 3777WAT     H111573   6.466   1.303   7.957
 3777WAT     H211574   6.462   1.465   7.937
 3778WAT      O11575   3.258   8.943   9.236
 3778WAT     H111576   3.198   8.871   9.269
 3778WAT     H211577   3.219   9.032   9.259
 3779WAT      O11578   5.969   6.206   8.257
 3779WAT     H111579   5.872   6.209   8.279
 3779WAT     H211580   5.981   6.184   8.160
 3780WAT      O11581   3.013   3.871   8.124
 3780WAT     H111582   3.050   3.919   8.203
 3780WAT     H211583   2.929   3.916   8.094
 3781WAT      O11584   7.239   3.951   6.134
 3781WAT     H111585   7.240   4.051   6.132
 3781WAT     H211586   7.323   3.916   6.092
 3782WAT      O11587   3.121   1.470   8.778
 3782WAT     H111588   3.135   1.567   8.794
 3782WAT     H211589   3.055   1.434   8.844
 3783WAT      O11590   7.404   1.033   7.528
 3783WAT     H111591   7.464   0.975   7.582
 3783WAT     H211592   7.435   1.033   7.433
 3784WAT      O11593   7.221   9.061   9.393
 3784WAT     H111594   7.225   9.040   9.491
 3784WAT     H211595   7.218   8.975   9.341
 3785WAT      O11596   2.577   8.561   0.411
 3785WAT     H111597   2.635   8.541   0.332
 3785WAT     H211598   2.538   8.653   0.402
 3786WAT      O11599   4.890   8.827   1.832
 3786WAT     H111600   4.966   8.795   1.776
 3786WAT     H211601   4.920   8.905   1.887
 3787WAT      O11602   4.015   0.532   5.908
 3787WAT     H111603   3.933   0.475   5.906
 3787WAT     H211604   4.003   0.607   5.973
 3788WAT      O11605   7.008   0.061   0.779
 3788WAT     H111606   6.928   0.044   0.722
 3788WAT     H211607   7.075   0.115   0.728
 3789WAT      O11608   3.224   8.375   2.638
 3789WAT     H111609   3.224   8.276   2.647
 3789WAT     H211610   3.312   8.405   2.600
 3790WAT      O11611   0.620   9.642   7.966
 3790WAT     H111612   0.589   9.725   7.921
 3790WAT     H211613   0.610   9.651   8.065
 3791WAT      O11614   3.009   5.296   6.693
 3791WAT     H111615   3.064   5.352   6.632
 3791WAT     H211616   3.068   5.232   6.743
 3792WAT      O11617   6.924   4.304   5.299
 3792WAT     H111618   6.973   4.387   5.326
 3792WAT     H211619   6.902   4.310   5.201
 3793WAT      O11620   7.331   2.377   0.369
 3793WAT     H111621   7.284   2.348   0.453
 3793WAT     H211622   7.416   2.424   0.393
 3794WAT      O11623   7.087   3.574   8.562
 3794WAT     H111624   7.027   3.511   8.612
 3794WAT     H211625   7.168   3.594   8.617
 3795WAT      O11626   0.098   8.171   5.320
 3795WAT     H111627   0.074   8.111   5.396
 3795WAT     H211628   0.080   8.124   5.233
 3796WAT      O11629   3.727   9.032   9.099
 3796WAT     H111630   3.800   8.965   9.083
 3796WAT     H211631   3.757   9.123   9.070
 3797WAT      O11632   9.055   7.836   0.219
 3797WAT     H111633   9.129   7.840   0.286
 3797WAT     H211634   9.014   7.744   0.218
 3798WAT      O11635   2.103   6.600   8.648
 3798WAT     H111636   2.190   6.558   8.622
 3798WAT     H211637   2.054   6.629   8.565
 3799WAT      O11638   5.792   4.353   6.694
 3799WAT     H111639   5.809   4.439   6.742
 3799WAT     H211640   5.697   4.349   6.664
 3800WAT      O11641   7.268   6.638   8.863
 3800WAT     H111642   7.178   6.597   8.880
 3800WAT     H211643   7.317   6.583   8.796
 3801WAT      O11644   2.832   2.153   4.342
 3801WAT     H111645   2.753   2.139   4.402
 3801WAT     H211646   2.854   2.250   4.339
 3802WAT      O11647   8.898   4.629   0.027
 3802WAT     H111648   8.902   4.555  -0.040
 3802WAT     H211649   8.991   4.653   0.056
 3803WAT      O11650   9.510   7.356   8.955
 3803WAT     H111651   9.446   7.303   8.899
 3803WAT     H211652   9.461   7.427   9.005
 3804WAT      O11653   7.694   5.540   2.812
 3804WAT     H111654   7.777   5.503   2.771
 3804WAT     H211655   7.614   5.510   2.760
 3805WAT      O11656   7.260   7.398   0.681
 3805WAT     H111657   7.336   7.452   0.719
 3805WAT     H211658   7.174   7.426   0.724
 3806WAT      O11659   9.477   5.326   8.534
 3806WAT     H111660   9.526   5.406   8.570
 3806WAT     H211661   9.500   5.246   8.589
 3807WAT      O11662   0.686   5.102   9.338
 3807WAT     H111663   0.687   5.196   9.371
 3807WAT     H211664   0.595   5.063   9.349
 3808WAT      O11665   5.223   2.173   6.415
 3808WAT     H111666   5.172   2.259   6.410
 3808WAT     H211667   5.161   2.097   6.395
 3809WAT      O11668   7.548   3.011   1.709
 3809WAT     H111669   7.591   2.950   1.775
 3809WAT     H211670   7.614   3.034   1.637
 3810WAT      O11671   7.352   1.723   0.591
 3810WAT     H111672   7.366   1.644   0.650
 3810WAT     H211673   7.273   1.708   0.532
 3811WAT      O11674   6.672   8.566   1.876
 3811WAT     H111675   6.761   8.612   1.870
 3811WAT     H211676   6.612   8.618   1.937
 3812WAT      O11677   3.626   2.070   8.469
 3812WAT     H111678   3.705   2.035   8.519
 3812WAT     H211679   3.564   1.994   8.448
 3813WAT      O11680   2.183   4.590   8.823
 3813WAT     H111681   2.124   4.510   8.839
 3813WAT     H211682   2.260   4.588   8.887
 3814WAT      O11683   2.514   4.143   4.884
 3814WAT     H111684   2.527   4.052   4.845
 3814WAT     H211685   2.521   4.137   4.984
 3815WAT      O11686   2.940   2.607   0.962
 3815WAT     H111687   2.890   2.618   1.048
 3815WAT     H211688   2.938   2.693   0.911
 3816WAT      O11689   9.081   6.595   7.111
 3816WAT     H111690   9.150   6.620   7.044
 3816WAT     H211691   9.012   6.538   7.068
 3817WAT      O11692   3.513   6.181   5.735
 3817WAT     H111693   3.531   6.084   5.723
 3817WAT     H211694   3.471   6.197   5.824
 3818WAT      O11695   9.781   9.831   8.922
 3818WAT     H111696   9.781   9.731   8.930
 3818WAT     H211697   9.802   9.871   9.012
 3819WAT      O11698   3.856   0.747   6.003
 3819WAT     H111699   3.809   0.779   6.085
 3819WAT     H211700   3.790   0.734   5.929
 3820WAT      O11701   5.257   3.279   5.607
 3820WAT     H111702   5.345   3.235   5.625
 3820WAT     H211703   5.264   3.377   5.628
 3821WAT      O11704   5.712   0.586   0.914
 3821WAT     H111705   5.811   0.593   0.906
 3821WAT     H211706   5.679   0.515   0.852
 3822WAT      O11707   6.239   0.831   4.798
 3822WAT     H111708   6.194   0.875   4.876
 3822WAT     H211709   6.242   0.894   4.721
 3823WAT      O11710   8.365   9.121   3.028
 3823WAT     H111711   8.434   9.184   3.063
 3823WAT     H211712   8.332   9.063   3.103
 3824WAT      O11713   2.929   1.043   2.055
 3824WAT     H111714   2.858   1.060   1.986
 3824WAT     H211715   2.923   1.112   2.126
 3825WAT      O11716   3.901   1.217   5.443
 3825WAT     H111717   3.894   1.260   5.353
 3825WAT     H211718   3.981   1.156   5.445
 3826WAT      O11719   3.711   7.610   6.610
 3826WAT     H111720   3.712   7.710   6.609
 3826WAT     H211721   3.631   7.577   6.559
 3827WAT      O11722   3.420   4.627   6.347
 3827WAT     H111723   3.489   4.697   6.328
 3827WAT     H211724   3.331   4.671   6.355
 3828WAT      O11725   3.818   6.728   7.850
 3828WAT     H111726   3.808   6.629   7.859
 3828WAT     H211727   3.785   6.772   7.934
 3829WAT      O11728   4.753   6.959   5.791
 3829WAT     H111729   4.739   6.881   5.730
 3829WAT     H211730   4.803   7.030   5.742
 3830WAT      O11731   9.691   4.018   9.304
 3830WAT     H111732   9.663   4.047   9.213
 3830WAT     H211733   9.704   3.919   9.305
 3831WAT      O11734   8.849   2.236   0.761
 3831WAT     H111735   8.813   2.220   0.670
 3831WAT     H211736   8.775   2.228   0.828
 3832WAT      O11737   8.219   7.887   6.447
 3832WAT     H111738   8.281   7.874   6.524
 3832WAT     H211739   8.271   7.913   6.366
 3833WAT      O11740   8.643   1.975   5.500
 3833WAT     H111741   8.658   1.884   5.537
 3833WAT     H211742   8.682   1.982   5.408
 3834WAT      O11743   0.976   3.737   0.454
 3834WAT     H111744   0.927   3.791   0.522
 3834WAT     H211745   0.923   3.655   0.431
 3835WAT      O11746   1.261   4.884   2.188
 3835WAT     H111747   1.252   4.932   2.100
 3835WAT     H211748   1.183   4.906   2.246
 3836WAT      O11749   1.503   8.217   2.449
 3836WAT     H111750   1.562   8.138   2.433
 3836WAT     H211751   1.436   8.224   2.375
 3837WAT      O11752   0.328   8.515   5.936
 3837WAT     H111753   0.404   8.462   5.975
 3837WAT     H211754   0.353   8.547   5.845
 3838WAT      O11755   5.990   3.019   3.753
 3838WAT     H111756   5.995   2.925   3.720
 3838WAT     H211757   5.916   3.067   3.706
 3839WAT      O11758   8.378   0.280   9.159
 3839WAT     H111759   8.336   0.329   9.236
 3839WAT     H211760   8.343   0.186   9.157
 3840WAT      O11761   6.667   1.439   2.777
 3840WAT     H111762   6.580   1.456   2.732
 3840WAT     H211763   6.713   1.362   2.732
 3841WAT      O11764   7.345   5.737   8.843
 3841WAT     H111765   7.320   5.644   8.868
 3841WAT     H211766   7.394   5.780   8.919
 3842WAT      O11767   1.674   1.242   9.478
 3842WAT     H111768   1.749   1.302   9.507
 3842WAT     H211769   1.590   1.296   9.468
 3843WAT      O11770   5.831   3.108   2.028
 3843WAT     H111771   5.853   3.198   1.991
 3843WAT     H211772   5.749   3.115   2.086
 3844WAT      O11773   1.854   2.288   6.091
 3844WAT     H111774   1.768   2.317   6.134
 3844WAT     H211775   1.873   2.193   6.114
 3845WAT      O11776   2.082   3.699   4.664
 3845WAT     H111777   2.069   3.694   4.565
 3845WAT     H211778   2.011   3.757   4.704
 3846WAT      O11779   4.826   5.599   1.866
 3846WAT     H111780   4.846   5.501   1.873
 3846WAT     H211781   4.788   5.620   1.776
 3847WAT      O11782   4.023   5.758   1.513
 3847WAT     H111783   4.118   5.765   1.483
 3847WAT     H211784   3.989   5.666   1.496
 3848WAT      O11785   3.243   5.696   8.863
 3848WAT     H111786   3.164   5.734   8.910
 3848WAT     H211787   3.309   5.769   8.843
 3849WAT      O11788   2.882   1.201   3.922
 3849WAT     H111789   2.852   1.271   3.857
 3849WAT     H211790   2.904   1.244   4.010
 3850WAT      O11791   6.879   6.226   5.379
 3850WAT     H111792   6.952   6.292   5.395
 3850WAT     H211793   6.796   6.274   5.352
 3851WAT      O11794   8.641   4.397   9.874
 3851WAT     H111795   8.557   4.343   9.884
 3851WAT     H211796   8.636   4.452   9.790
 3852WAT      O11797   2.641   5.526   6.015
 3852WAT     H111798   2.545   5.552   6.006
 3852WAT     H211799   2.698   5.594   5.969
 3853WAT      O11800   4.534   2.556   6.326
 3853WAT     H111801   4.629   2.530   6.308
 3853WAT     H211802   4.510   2.533   6.420
 3854WAT      O11803   2.357   6.602   8.307
 3854WAT     H111804   2.412   6.640   8.381
 3854WAT     H211805   2.408   6.529   8.262
 3855WAT      O11806   3.893   2.329   3.965
 3855WAT     H111807   3.877   2.246   4.018
 3855WAT     H211808   3.841   2.405   4.005
 3856WAT      O11809   0.083   7.203   2.142
 3856WAT     H111810   0.011   7.182   2.207
 3856WAT     H211811   0.095   7.126   2.079
 3857WAT      O11812   8.715   7.173   8.052
 3857WAT     H111813   8.810   7.174   8.020
 3857WAT     H211814   8.701   7.248   8.116
 3858WAT      O11815   8.967   1.042   6.063
 3858WAT     H111816   9.041   0.976   6.055
 3858WAT     H211817   8.985   1.119   6.002
 3859WAT      O11818   7.843   2.024   5.871
 3859WAT     H111819   7.770   2.069   5.922
 3859WAT     H211820   7.903   2.092   5.831
 3860WAT      O11821   7.120   8.134   1.048
 3860WAT     H111822   7.123   8.122   1.147
 3860WAT     H211823   7.213   8.130   1.011
 3861WAT      O11824   3.948   1.646   5.003
 3861WAT     H111825   4.037   1.600   4.997
 3861WAT     H211826   3.943   1.696   5.089
 3862WAT      O11827   1.385   8.526   3.047
 3862WAT     H111828   1.441   8.608   3.060
 3862WAT     H211829   1.356   8.521   2.951
 3863WAT      O11830   2.490   4.257   0.024
 3863WAT     H111831   2.575   4.295   0.060
 3863WAT     H211832   2.448   4.323  -0.039
 3864WAT      O11833   3.652   9.210   4.993
 3864WAT     H111834   3.680   9.188   4.900
 3864WAT     H211835   3.720   9.175   5.058
 3865WAT      O11836   5.984   7.176   3.271
 3865WAT     H111837   6.016   7.237   3.198
 3865WAT     H211838   5.975   7.083   3.236
 3866WAT      O11839   7.681   7.095   2.695
 3866WAT     H111840   7.627   7.025   2.647
 3866WAT     H211841   7.752   7.129   2.634
 3867WAT      O11842   2.040   8.420   8.032
 3867WAT     H111843   2.037   8.393   7.936
 3867WAT     H211844   2.133   8.451   8.054
 3868WAT      O11845   5.879   3.919   1.409
 3868WAT     H111846   5.974   3.945   1.425
 3868WAT     H211847   5.867   3.822   1.430
 3869WAT      O11848   3.150   3.384   6.804
 3869WAT     H111849   3.082   3.457   6.799
 3869WAT     H211850   3.232   3.413   6.754
 3870WAT      O11851   3.803   0.321   6.759
 3870WAT     H111852   3.864   0.244   6.780
 3870WAT     H211853   3.748   0.343   6.839
 3871WAT      O11854   3.573   6.629   3.962
 3871WAT     H111855   3.569   6.669   4.054
 3871WAT     H211856   3.494   6.660   3.909
 3872WAT      O11857   8.946   0.472   0.319
 3872WAT     H111858   8.965   0.505   0.227
 3872WAT     H211859   8.859   0.510   0.351
 3873WAT      O11860   0.376   8.471   7.810
 3873WAT     H111861   0.361   8.561   7.769
 3873WAT     H211862   0.373   8.478   7.910
 3874WAT      O11863   3.135   8.086   0.789
 3874WAT     H111864   3.161   8.135   0.706
 3874WAT     H211865   3.152   8.143   0.869
 3875WAT      O11866   3.314   4.659   5.301
 3875WAT     H111867   3.405   4.664   5.343
 3875WAT     H211868   3.287   4.563   5.292
 3876WAT      O11869   2.438   7.220   8.714
 3876WAT     H111870   2.350   7.262   8.695
 3876WAT     H211871   2.467   7.167   8.635
 3877WAT      O11872   3.198   2.832   9.113
 3877WAT     H111873   3.288   2.832   9.157
 3877WAT     H211874   3.209   2.837   9.014
 3878WAT      O11875   0.684   7.517   5.246
 3878WAT     H111876   0.777   7.490   5.274
 3878WAT     H211877   0.622   7.439   5.259
 3879WAT      O11878   2.178   9.675   7.105
 3879WAT     H111879   2.199   9.579   7.086
 3879WAT     H211880   2.096   9.681   7.162
 3880WAT      O11881   8.672   7.877   1.115
 3880WAT     H111882   8.595   7.929   1.078
 3880WAT     H211883   8.710   7.818   1.043
 3881WAT      O11884   8.818   0.668   8.303
 3881WAT     H111885   8.820   0.671   8.203
 3881WAT     H211886   8.789   0.577   8.332
 3882WAT      O11887   7.061   0.516   2.445
 3882WAT     H111888   7.139   0.532   2.505
 3882WAT     H211889   6.984   0.481   2.498
 3883WAT      O11890   7.217   3.268   6.680
 3883WAT     H111891   7.179   3.360   6.682
 3883WAT     H211892   7.292   3.264   6.614
 3884WAT      O11893   2.227   1.927   7.359
 3884WAT     H111894   2.227   2.027   7.356
 3884WAT     H211895   2.320   1.894   7.373
 3885WAT      O11896   5.053   1.268   7.070
 3885WAT     H111897   4.968   1.318   7.088
 3885WAT     H211898   5.094   1.302   6.986
 3886WAT      O11899   8.660   9.422   1.501
 3886WAT     H111900   8.704   9.346   1.549
 3886WAT     H211901   8.561   9.409   1.503
 3887WAT      O11902   6.367   1.169   2.880
 3887WAT     H111903   6.387   1.115   2.961
 3887WAT     H211904   6.347   1.108   2.803
 3888WAT      O11905   6.119   8.375   8.947
 3888WAT     H111906   6.144   8.339   8.858
 3888WAT     H211907   6.124   8.302   9.015
 3889WAT      O11908   2.185   3.968   2.981
 3889WAT     H111909   2.273   4.012   3.000
 3889WAT     H211910   2.113   4.018   3.028
 3890WAT      O11911   4.135   8.698   3.356
 3890WAT     H111912   4.227   8.670   3.383
 3890WAT     H211913   4.135   8.728   3.261
 3891WAT      O11914   8.967   6.713   4.261
 3891WAT     H111915   8.988   6.790   4.201
 3891WAT     H211916   8.895   6.657   4.220
 3892WAT      O11917   5.294   9.625   3.374
 3892WAT     H111918   5.211   9.577   3.405
 3892WAT     H211919   5.295   9.629   3.275
 3893WAT      O11920   6.096   7.033   6.612
 3893WAT     H111921   6.106   7.085   6.696
 3893WAT     H211922   6.006   6.990   6.609
 3894WAT      O11923   5.651   3.230   6.020
 3894WAT     H111924   5.595   3.160   5.976
 3894WAT     H211925   5.594   3.310   6.042
 3895WAT      O11926   5.170   9.204   9.028
 3895WAT     H111927   5.245   9.269   9.015
 3895WAT     H211928   5.143   9.205   9.125
 3896WAT      O11929   6.343   5.566   8.856
 3896WAT     H111930   6.409   5.547   8.783
 3896WAT     H211931   6.365   5.509   8.936
 3897WAT      O11932   6.371   8.355   1.291
 3897WAT     H111933   6.298   8.291   1.314
 3897WAT     H211934   6.337   8.423   1.225
 3898WAT      O11935   2.757   6.818   4.864
 3898WAT     H111936   2.795   6.727   4.848
 3898WAT     H211937   2.810   6.864   4.936
 3899WAT      O11938   6.195   2.814   2.064
 3899WAT     H111939   6.123   2.867   2.109
 3899WAT     H211940   6.284   2.842   2.100
 3900WAT      O11941   6.333   8.697   2.244
 3900WAT     H111942   6.236   8.718   2.235
 3900WAT     H211943   6.384   8.781   2.259
 3901WAT      O11944   1.636   9.500   0.499
 3901WAT     H111945   1.578   9.580   0.485
 3901WAT     H211946   1.655   9.488   0.596
 3902WAT      O11947   7.555   7.222   2.097
 3902WAT     H111948   7.625   7.265   2.041
 3902WAT     H211949   7.465   7.259   2.074
 3903WAT      O11950   3.969   0.178   2.143
 3903WAT     H111951   3.903   0.236   2.192
 3903WAT     H211952   3.925   0.092   2.119
 3904WAT      O11953   0.471   7.940   4.589
 3904WAT     H111954   0.469   8.013   4.658
 3904WAT     H211955   0.486   7.852   4.634
 3905WAT      O11956   0.465   4.390   9.006
 3905WAT     H111957   0.405   4.466   8.981
 3905WAT     H211958   0.555   4.426   9.030
 3906WAT      O11959   1.334   9.687   3.547
 3906WAT     H111960   1.317   9.591   3.529
 3906WAT     H211961   1.250   9.740   3.532
 3907WAT      O11962   9.423   5.846   9.886
 3907WAT     H111963   9.408   5.846   9.985
 3907WAT     H211964   9.485   5.771   9.862
 3908WAT      O11965   8.027   8.970   0.341
 3908WAT     H111966   8.024   9.026   0.258
 3908WAT     H211967   8.073   9.020   0.414
 3909WAT      O11968   5.737   7.394   8.092
 3909WAT     H111969   5.655   7.340   8.072
 3909WAT     H211970   5.816   7.333   8.095
 3910WAT      O11971   4.136   2.345   5.096
 3910WAT     H111972   4.156   2.368   5.191
 3910WAT     H211973   4.096   2.424   5.050
 3911WAT      O11974   1.540   6.585   5.793
 3911WAT     H111975   1.591   6.639   5.860
 3911WAT     H211976   1.478   6.644   5.743
 3912WAT      O11977   9.176   0.518   9.365
 3912WAT     H111978   9.261   0.531   9.314
 3912WAT     H211979   9.099   0.542   9.306
 3913WAT      O11980   5.467   8.110   8.519
 3913WAT     H111981   5.508   8.045   8.455
 3913WAT     H211982   5.425   8.059   8.594
 3914WAT      O11983   9.587   6.630   7.050
 3914WAT     H111984   9.571   6.563   6.977
 3914WAT     H211985   9.636   6.709   7.013
 3915WAT      O11986   9.831   8.623   9.632
 3915WAT     H111987   9.812   8.664   9.543
 3915WAT     H211988   9.790   8.531   9.635
 3916WAT      O11989   4.768   4.345   1.432
 3916WAT     H111990   4.670   4.330   1.416
 3916WAT     H211991   4.820   4.273   1.385
 3917WAT      O11992   7.683   8.306   9.240
 3917WAT     H111993   7.773   8.306   9.195
 3917WAT     H211994   7.613   8.334   9.174
 3918WAT      O11995   7.932   8.925   2.582
 3918WAT     H111996   8.025   8.938   2.616
 3918WAT     H211997   7.920   8.831   2.552
 3919WAT      O11998   1.533   0.288   0.333
 3919WAT     H111999   1.589   0.353   0.281
 3919WAT     H212000   1.593   0.227   0.385
 3920WAT      O12001   7.524   1.525   4.965
 3920WAT     H112002   7.616   1.486   4.970
 3920WAT     H212003   7.518   1.585   4.886
 3921WAT      O12004   0.096   2.104   5.635
 3921WAT     H112005   0.025   2.128   5.570
 3921WAT     H212006   0.062   2.035   5.699
 3922WAT      O12007   2.440   9.715   1.700
 3922WAT     H112008   2.535   9.746   1.709
 3922WAT     H212009   2.392   9.733   1.786
 3923WAT      O12010   9.241   4.889   0.338
 3923WAT     H112011   9.313   4.852   0.279
 3923WAT     H212012   9.260   4.985   0.358
 3924WAT      O12013   1.871   8.979   8.535
 3924WAT     H112014   1.823   8.891   8.537
 3924WAT     H212015   1.945   8.975   8.468
 3925WAT      O12016   4.754   8.603   6.555
 3925WAT     H112017   4.719   8.517   6.518
 3925WAT     H212018   4.822   8.584   6.626
 3926WAT      O12019   4.336   8.205   1.449
 3926WAT     H112020   4.326   8.177   1.544
 3926WAT     H212021   4.301   8.133   1.389
 3927WAT      O12022   0.596   1.310   3.370
 3927WAT     H112023   0.584   1.337   3.466
 3927WAT     H212024   0.614   1.392   3.315
 3928WAT      O12025   5.642   2.101   3.035
 3928WAT     H112026   5.552   2.062   3.055
 3928WAT     H212027   5.694   2.038   2.977
 3929WAT      O12028   7.126   7.029   4.562
 3929WAT     H112029   7.202   6.995   4.507
 3929WAT     H212030   7.039   7.003   4.519
 3930WAT      O12031   3.686   2.731   8.265
 3930WAT     H112032   3.738   2.813   8.288
 3930WAT     H212033   3.735   2.680   8.193
 3931WAT      O12034   2.354   2.745   2.895
 3931WAT     H112035   2.314   2.819   2.841
 3931WAT     H212036   2.410   2.687   2.836
 3932WAT      O12037   2.209   3.952   4.965
 3932WAT     H112038   2.293   3.982   4.921
 3932WAT     H212039   2.204   3.852   4.964
 3933WAT      O12040   8.442   0.026   1.664
 3933WAT     H112041   8.516  -0.037   1.684
 3933WAT     H212042   8.365   0.007   1.725
 3934WAT      O12043   2.589   0.016   1.917
 3934WAT     H112044   2.663   0.075   1.948
 3934WAT     H212045   2.508   0.071   1.898
 3935WAT      O12046   7.241   6.150   7.854
 3935WAT     H112047   7.277   6.237   7.820
 3935WAT     H212048   7.186   6.107   7.783
 3936WAT      O12049   3.143   0.515   9.457
 3936WAT     H112050   3.165   0.422   9.485
 3936WAT     H212051   3.086   0.512   9.375
 3937WAT      O12052   6.367   1.897   8.703
 3937WAT     H112053   6.396   1.974   8.760
 3937WAT     H212054   6.447   1.852   8.663
 3938WAT      O12055   4.555   5.803   6.079
 3938WAT     H112056   4.587   5.714   6.044
 3938WAT     H212057   4.619   5.874   6.052
 3939WAT      O12058   9.867   7.141   8.852
 3939WAT     H112059   9.964   7.164   8.855
 3939WAT     H212060   9.855   7.050   8.812
 3940WAT      O12061   4.122   0.629   3.560
 3940WAT     H112062   4.069   0.627   3.645
 3940WAT     H212063   4.079   0.567   3.494
 3941WAT      O12064   7.118   8.341   4.999
 3941WAT     H112065   7.021   8.315   5.002
 3941WAT     H212066   7.145   8.381   5.087
 3942WAT      O12067   5.301   1.440   0.392
 3942WAT     H112068   5.229   1.431   0.323
 3942WAT     H212069   5.316   1.537   0.412
 3943WAT      O12070   9.406   3.474   1.720
 3943WAT     H112071   9.397   3.559   1.668
 3943WAT     H212072   9.464   3.489   1.800
 3944WAT      O12073   3.251   7.658   6.682
 3944WAT     H112074   3.222   7.562   6.672
 3944WAT     H212075   3.193   7.703   6.750
 3945WAT      O12076   2.293   4.797   3.693
 3945WAT     H112077   2.368   4.811   3.757
 3945WAT     H212078   2.234   4.878   3.693
 3946WAT      O12079   5.779   0.390   5.816
 3946WAT     H112080   5.829   0.424   5.737
 3946WAT     H212081   5.681   0.397   5.799
 3947WAT      O12082   5.765   6.768   0.351
 3947WAT     H112083   5.842   6.749   0.412
 3947WAT     H212084   5.688   6.805   0.404
 3948WAT      O12085   8.993   8.147   3.320
 3948WAT     H112086   9.036   8.058   3.314
 3948WAT     H212087   9.017   8.190   3.407
 3949WAT      O12088   6.404   0.946   2.041
 3949WAT     H112089   6.330   0.925   2.105
 3949WAT     H212090   6.384   0.903   1.953
 3950WAT      O12091   8.252   6.707   9.382
 3950WAT     H112092   8.342   6.678   9.350
 3950WAT     H212093   8.181   6.650   9.340
 3951WAT      O12094   5.838   9.815   1.087
 3951WAT     H112095   5.852   9.752   1.164
 3951WAT     H212096   5.819   9.762   1.005
 3952WAT      O12097   7.520   3.170   5.024
 3952WAT     H112098   7.543   3.114   4.944
 3952WAT     H212099   7.602   3.219   5.054
 3953WAT      O12100   2.010   5.859   5.217
 3953WAT     H112101   1.935   5.895   5.161
 3953WAT     H212102   2.039   5.771   5.180
 3954WAT      O12103   7.771   4.092   1.360
 3954WAT     H112104   7.837   4.145   1.307
 3954WAT     H212105   7.784   4.110   1.458
 3955WAT      O12106   4.766   7.361   7.825
 3955WAT     H112107   4.850   7.322   7.789
 3955WAT     H212108   4.785   7.449   7.867
 3956WAT      O12109   3.904   8.522   9.605
 3956WAT     H112110   3.969   8.520   9.680
 3956WAT     H212111   3.898   8.430   9.564
 3957WAT      O12112   6.840   1.688   7.159
 3957WAT     H112113   6.858   1.668   7.063
 3957WAT     H212114   6.846   1.787   7.174
 3958WAT      O12115   1.167   3.110   7.273
 3958WAT     H112116   1.081   3.140   7.232
 3958WAT     H212117   1.148   3.041   7.344
 3959WAT      O12118   2.025   8.894   5.181
 3959WAT     H112119   2.059   8.897   5.087
 3959WAT     H212120   2.100   8.914   5.245
 3960WAT      O12121   4.607   1.479   5.795
 3960WAT     H112122   4.630   1.512   5.886
 3960WAT     H212123   4.514   1.506   5.772
 3961WAT      O12124   5.700   0.882   3.816
 3961WAT     H112125   5.771   0.952   3.823
 3961WAT     H212126   5.611   0.922   3.839
 3962WAT      O12127   9.266   7.894   6.081
 3962WAT     H112128   9.328   7.971   6.099
 3962WAT     H212129   9.264   7.876   5.983
 3963WAT      O12130   6.459   1.155   9.807
 3963WAT     H112131   6.489   1.067   9.844
 3963WAT     H212132   6.381   1.189   9.859
 3964WAT      O12133   0.911   7.595   6.828
 3964WAT     H112134   0.968   7.555   6.756
 3964WAT     H212135   0.898   7.692   6.810
 3965WAT      O12136   0.796   1.367   9.743
 3965WAT     H112137   0.802   1.401   9.837
 3965WAT     H212138   0.797   1.267   9.743
 3966WAT      O12139   2.371   7.162   2.211
 3966WAT     H112140   2.470   7.149   2.213
 3966WAT     H212141   2.337   7.169   2.304
 3967WAT      O12142   7.421   1.030   1.688
 3967WAT     H112143   7.390   0.961   1.754
 3967WAT     H212144   7.341   1.075   1.648
 3968WAT      O12145   7.721   7.274   8.241
 3968WAT     H112146   7.685   7.224   8.320
 3968WAT     H212147   7.666   7.253   8.161
 3969WAT      O12148   2.122   8.293   3.942
 3969WAT     H112149   2.169   8.213   3.980
 3969WAT     H212150   2.177   8.332   3.868
 3970WAT      O12151   4.529   2.967   6.156
 3970WAT     H112152   4.586   2.886   6.141
 3970WAT     H212153   4.555   3.039   6.091
 3971WAT      O12154   1.889   4.814   9.345
 3971WAT     H112155   1.877   4.742   9.413
 3971WAT     H212156   1.801   4.839   9.306
 3972WAT      O12157   0.452   5.233   4.071
 3972WAT     H112158   0.487   5.321   4.040
 3972WAT     H212159   0.478   5.218   4.167
 3973WAT      O12160   5.554   5.805   6.886
 3973WAT     H112161   5.530   5.752   6.968
 3973WAT     H212162   5.581   5.897   6.913
 3974WAT      O12163   2.929   8.846   1.900
 3974WAT     H112164   2.960   8.814   1.990
 3974WAT     H212165   2.896   8.769   1.846
 3975WAT      O12166   9.467   9.235   4.130
 3975WAT     H112167   9.376   9.248   4.169
 3975WAT     H212168   9.461   9.172   4.053
 3976WAT      O12169   2.571   7.154   1.935
 3976WAT     H112170   2.492   7.115   1.888
 3976WAT     H212171   2.569   7.127   2.031
 3977WAT      O12172   6.308   7.990   0.972
 3977WAT     H112173   6.277   8.081   0.943
 3977WAT     H212174   6.401   7.974   0.938
 3978WAT      O12175   1.288   3.105   8.225
 3978WAT     H112176   1.289   3.109   8.325
 3978WAT     H212177   1.333   3.186   8.188
 3979WAT      O12178   9.558   0.678   6.113
 3979WAT     H112179   9.624   0.722   6.052
 3979WAT     H212180   9.504   0.748   6.159
 3980WAT      O12181   2.462   0.534   8.832
 3980WAT     H112182   2.451   0.623   8.788
 3980WAT     H212183   2.559   0.511   8.837
 3981WAT      O12184   2.929   8.578   4.915
 3981WAT     H112185   2.902   8.496   4.865
 3981WAT     H212186   3.027   8.574   4.935
 3982WAT      O12187   8.290   0.359   5.400
 3982WAT     H112188   8.338   0.438   5.362
 3982WAT     H212189   8.235   0.317   5.328
 3983WAT      O12190   0.567   5.484   7.656
 3983WAT     H112191   0.552   5.385   7.652
 3983WAT     H212192   0.495   5.531   7.605
 3984WAT      O12193   8.321   3.073   0.492
 3984WAT     H112194   8.315   3.140   0.566
 3984WAT     H212195   8.241   3.083   0.432
 3985WAT      O12196   2.382   0.433   1.546
 3985WAT     H112197   2.306   0.385   1.501
 3985WAT     H212198   2.360   0.531   1.553
 3986WAT      O12199   7.119   5.540   6.105
 3986WAT     H112200   7.178   5.557   6.183
 3986WAT     H212201   7.175   5.513   6.026
 3987WAT      O12202   6.903   0.933   6.164
 3987WAT     H112203   6.817   0.906   6.208
 3987WAT     H212204   6.971   0.861   6.176
 3988WAT      O12205   6.646   2.170   4.100
 3988WAT     H112206   6.687   2.109   4.168
 3988WAT     H212207   6.715   2.235   4.067
 3989WAT      O12208   7.160   2.179   1.357
 3989WAT     H112209   7.211   2.153   1.275
 3989WAT     H212210   7.102   2.103   1.386
 3990WAT      O12211   8.040   8.393   6.986
 3990WAT     H112212   8.039   8.293   6.992
 3990WAT     H212213   8.135   8.425   6.991
 3991WAT      O12214   6.545   8.350   8.339
 3991WAT     H112215   6.452   8.387   8.343
 3991WAT     H212216   6.564   8.317   8.247
 3992WAT      O12217   6.302   9.454   8.984
 3992WAT     H112218   6.351   9.384   8.931
 3992WAT     H212219   6.220   9.414   9.024
 3993WAT      O12220   0.664   6.825   6.193
 3993WAT     H112221   0.726   6.748   6.211
 3993WAT     H212222   0.624   6.815   6.102
 3994WAT      O12223   5.997   8.447   1.284
 3994WAT     H112224   5.942   8.375   1.241
 3994WAT     H212225   5.943   8.531   1.291
 3995WAT      O12226   1.287   5.677   0.550
 3995WAT     H112227   1.375   5.630   0.542
 3995WAT     H212228   1.275   5.709   0.644
 3996WAT      O12229   8.470   3.623   4.232
 3996WAT     H112230   8.563   3.660   4.235
 3996WAT     H212231   8.435   3.613   4.325
 3997WAT      O12232   1.058   7.601   9.894
 3997WAT     H112233   0.999   7.679   9.915
 3997WAT     H212234   1.007   7.535   9.837
 3998WAT      O12235   8.392   2.172   6.600
 3998WAT     H112236   8.411   2.262   6.561
 3998WAT     H212237   8.456   2.154   6.675
 3999WAT      O12238   8.224   6.175   1.160
 3999WAT     H112239   8.181   6.087   1.182
 3999WAT     H212240   8.161   6.249   1.183
 4000WAT      O12241   6.920   5.198   9.575
 4000WAT     H112242   6.897   5.110   9.532
 4000WAT     H212243   7.019   5.211   9.573
 4001WAT      O12244   9.236   4.419   1.331
 4001WAT     H112245   9.323   4.418   1.281
 4001WAT     H212246   9.179   4.344   1.300
 4002WAT      O12247   7.061   3.421   3.750
 4002WAT     H112248   7.116   3.473   3.815
 4002WAT     H212249   6.964   3.429   3.775
 4003WAT      O12250   8.996   2.061   5.897
 4003WAT     H112251   9.027   2.125   5.827
 4003WAT     H212252   8.924   2.003   5.860
 4004WAT      O12253   4.307   2.838   7.434
 4004WAT     H112254   4.349   2.806   7.350
 4004WAT     H212255   4.210   2.812   7.436
 4005WAT      O12256   5.392   7.459   1.646
 4005WAT     H112257   5.330   7.483   1.572
 4005WAT     H212258   5.357   7.378   1.694
 4006WAT      O12259   4.255   9.271   9.593
 4006WAT     H112260   4.167   9.243   9.632
 4006WAT     H212261   4.255   9.370   9.577
 4007WAT      O12262   4.969   8.274   8.690
 4007WAT     H112263   5.018   8.342   8.636
 4007WAT     H212264   5.028   8.244   8.765
 4008WAT      O12265   0.637   2.231   3.067
 4008WAT     H112266   0.734   2.254   3.076
 4008WAT     H212267   0.603   2.192   3.153
 4009WAT      O12268   2.449   5.678   2.782
 4009WAT     H112269   2.549   5.686   2.790
 4009WAT     H212270   2.408   5.688   2.873
 4010WAT      O12271   8.397   0.716   0.120
 4010WAT     H112272   8.446   0.694   0.205
 4010WAT     H212273   8.310   0.666   0.118
 4011WAT      O12274   7.208   3.492   6.253
 4011WAT     H112275   7.174   3.471   6.161
 4011WAT     H212276   7.187   3.587   6.275
 4012WAT      O12277   3.892   3.529   2.949
 4012WAT     H112278   3.843   3.516   3.036
 4012WAT     H212279   3.964   3.597   2.961
 4013WAT      O12280   7.540   8.778   5.832
 4013WAT     H112281   7.548   8.804   5.929
 4013WAT     H212282   7.619   8.723   5.806
 4014WAT      O12283   5.747   1.872   5.983
 4014WAT     H112284   5.840   1.870   5.946
 4014WAT     H212285   5.751   1.876   6.083
 4015WAT      O12286   1.386   1.850   0.195
 4015WAT     H112287   1.374   1.923   0.262
 4015WAT     H212288   1.306   1.845   0.136
 4016WAT      O12289   5.234   5.078   0.312
 4016WAT     H112290   5.165   5.107   0.379
 4016WAT     H212291   5.221   4.981   0.291
 4017WAT      O12292   4.745   3.095   8.281
 4017WAT     H112293   4.742   3.176   8.339
 4017WAT     H212294   4.777   3.016   8.335
 4018WAT      O12295   6.988   9.637   3.891
 4018WAT     H112296   6.934   9.719   3.909
 4018WAT     H212297   7.022   9.639   3.797
 4019WAT      O12298   4.572   7.783   6.032
 4019WAT     H112299   4.572   7.851   6.106
 4019WAT     H212300   4.509   7.709   6.055
 4020WAT      O12301   5.864   1.811   8.016
 4020WAT     H112302   5.926   1.880   8.053
 4020WAT     H212303   5.875   1.726   8.066
 4021WAT      O12304   7.179   0.266   8.652
 4021WAT     H112305   7.234   0.218   8.721
 4021WAT     H212306   7.083   0.240   8.662
 4022WAT      O12307   1.053   0.014   5.220
 4022WAT     H112308   1.083   0.104   5.252
 4022WAT     H212309   0.967  -0.010   5.266
 4023WAT      O12310   7.711   9.737   5.114
 4023WAT     H112311   7.633   9.748   5.051
 4023WAT     H212312   7.678   9.703   5.202
 4024WAT      O12313   6.723   9.596   6.430
 4024WAT     H112314   6.651   9.531   6.406
 4024WAT     H212315   6.812   9.552   6.422
 4025WAT      O12316   0.174   7.088   9.256
 4025WAT     H112317   0.268   7.080   9.224
 4025WAT     H212318   0.162   7.176   9.303
 4026WAT      O12319   2.735   5.036   7.767
 4026WAT     H112320   2.779   5.101   7.705
 4026WAT     H212321   2.716   5.079   7.854
 4027WAT      O12322   8.397   6.177   2.567
 4027WAT     H112323   8.328   6.248   2.581
 4027WAT     H212324   8.370   6.095   2.617
 4028WAT      O12325   7.952   3.613   7.707
 4028WAT     H112326   7.870   3.608   7.764
 4028WAT     H212327   8.003   3.528   7.713
 4029WAT      O12328   5.856   3.529   8.498
 4029WAT     H112329   5.922   3.597   8.466
 4029WAT     H212330   5.774   3.533   8.441
 4030WAT      O12331   0.594   4.044   3.052
 4030WAT     H112332   0.664   4.049   3.123
 4030WAT     H212333   0.635   4.064   2.963
 4031WAT      O12334   4.763   7.368   2.353
 4031WAT     H112335   4.826   7.300   2.315
 4031WAT     H212336   4.789   7.459   2.320
 4032WAT      O12337   8.744   8.797   4.839
 4032WAT     H112338   8.711   8.869   4.778
 4032WAT     H212339   8.754   8.712   4.787
 4033WAT      O12340   5.719   2.431   4.920
 4033WAT     H112341   5.785   2.478   4.862
 4033WAT     H212342   5.712   2.480   5.008
 4034WAT      O12343   6.021   5.710   6.949
 4034WAT     H112344   6.009   5.789   7.009
 4034WAT     H212345   5.990   5.628   6.996
 4035WAT      O12346   8.572   4.998   2.074
 4035WAT     H112347   8.620   4.988   1.986
 4035WAT     H212348   8.584   5.092   2.107
 4036WAT      O12349   7.507   2.549   0.533
 4036WAT     H112350   7.419   2.570   0.574
 4036WAT     H212351   7.553   2.478   0.585
 4037WAT      O12352   2.159   6.724   3.599
 4037WAT     H112353   2.168   6.785   3.678
 4037WAT     H212354   2.230   6.654   3.603
 4038WAT      O12355   7.084   1.723   7.522
 4038WAT     H112356   7.096   1.675   7.436
 4038WAT     H212357   7.171   1.724   7.572
 4039WAT      O12358   5.368   9.708   1.852
 4039WAT     H112359   5.311   9.698   1.934
 4039WAT     H212360   5.458   9.667   1.870
 4040WAT      O12361   4.033   1.925   5.181
 4040WAT     H112362   3.973   1.988   5.132
 4040WAT     H212363   4.128   1.937   5.150
 4041WAT      O12364   9.103   4.280   3.555
 4041WAT     H112365   9.099   4.305   3.652
 4041WAT     H212366   9.142   4.356   3.503
 4042WAT      O12367   4.350   3.760   8.610
 4042WAT     H112368   4.326   3.678   8.662
 4042WAT     H212369   4.327   3.841   8.664
 4043WAT      O12370   4.914   8.988   9.141
 4043WAT     H112371   4.981   8.930   9.187
 4043WAT     H212372   4.844   9.016   9.207
 4044WAT      O12373   1.783   9.102   2.979
 4044WAT     H112374   1.840   9.115   2.898
 4044WAT     H212375   1.687   9.096   2.951
 4045WAT      O12376   3.291   5.952   1.838
 4045WAT     H112377   3.336   5.875   1.792
 4045WAT     H212378   3.318   5.953   1.934
 4046WAT      O12379   8.800   9.705   0.903
 4046WAT     H112380   8.889   9.749   0.912
 4046WAT     H212381   8.812   9.606   0.896
 4047WAT      O12382   5.171   1.577   2.032
 4047WAT     H112383   5.252   1.590   2.090
 4047WAT     H212384   5.110   1.511   2.075
 4048WAT      O12385   6.602   5.622   5.073
 4048WAT     H112386   6.599   5.688   5.149
 4048WAT     H212387   6.532   5.552   5.087
 4049WAT      O12388   1.330   7.178   8.785
 4049WAT     H112389   1.377   7.211   8.703
 4049WAT     H212390   1.246   7.232   8.799
 4050WAT      O12391   2.670   3.439   9.286
 4050WAT     H112392   2.640   3.446   9.381
 4050WAT     H212393   2.591   3.420   9.227
 4051WAT      O12394   4.851   7.289   1.788
 4051WAT     H112395   4.847   7.211   1.725
 4051WAT     H212396   4.781   7.278   1.859
 4052WAT      O12397   7.952   0.131   0.401
 4052WAT     H112398   7.899   0.135   0.485
 4052WAT     H212399   8.049   0.147   0.421
 4053WAT      O12400   0.691   4.526   0.807
 4053WAT     H112401   0.600   4.555   0.836
 4053WAT     H212402   0.736   4.602   0.759
 4054WAT      O12403   8.364   7.097   0.959
 4054WAT     H112404   8.328   7.007   0.933
 4054WAT     H212405   8.379   7.100   1.057
 4055WAT      O12406   5.350   7.508   2.482
 4055WAT     H112407   5.285   7.552   2.420
 4055WAT     H212408   5.435   7.559   2.483
 4056WAT      O12409   3.487   7.060   3.567
 4056WAT     H112410   3.567   7.024   3.615
 4056WAT     H212411   3.464   7.000   3.491
 4057WAT      O12412   9.722   6.462   5.327
 4057WAT     H112413   9.755   6.460   5.421
 4057WAT     H212414   9.788   6.416   5.268
 4058WAT      O12415   6.629   1.961   0.804
 4058WAT     H112416   6.578   2.032   0.757
 4058WAT     H212417   6.726   1.967   0.780
 4059WAT      O12418   1.727   4.008   7.680
 4059WAT     H112419   1.710   3.916   7.644
 4059WAT     H212420   1.765   4.001   7.772
 4060WAT      O12421   3.774   3.872   8.961
 4060WAT     H112422   3.732   3.939   8.901
 4060WAT     H212423   3.780   3.784   8.914
 4061WAT      O12424   0.781   0.064   5.002
 4061WAT     H112425   0.827   0.128   4.941
 4061WAT     H212426   0.696   0.032   4.960
 4062WAT      O12427   4.601   6.103   2.178
 4062WAT     H112428   4.672   6.151   2.127
 4062WAT     H212429   4.547   6.168   2.230
 4063WAT      O12430   0.059   6.862   6.477
 4063WAT     H112431   0.115   6.944   6.487
 4063WAT     H212432   0.090   6.792   6.541
 4064WAT      O12433   8.039   6.818   8.339
 4064WAT     H112434   7.984   6.863   8.268
 4064WAT     H212435   7.980   6.760   8.395
 4065WAT      O12436   6.912   3.392   2.857
 4065WAT     H112437   6.990   3.349   2.903
 4065WAT     H212438   6.831   3.385   2.915
 4066WAT      O12439   7.278   8.433   6.874
 4066WAT     H112440   7.280   8.342   6.832
 4066WAT     H212441   7.183   8.459   6.891
 4067WAT      O12442   7.477   6.628   5.597
 4067WAT     H112443   7.561   6.681   5.610
 4067WAT     H212444   7.461   6.571   5.677
 4068WAT      O12445   3.721   3.688   9.194
 4068WAT     H112446   3.730   3.766   9.132
 4068WAT     H212447   3.627   3.685   9.229
 4069WAT      O12448   7.207   9.577   4.086
 4069WAT     H112449   7.116   9.605   4.055
 4069WAT     H212450   7.274   9.598   4.014
 4070WAT      O12451   1.629   2.384   6.203
 4070WAT     H112452   1.579   2.470   6.220
 4070WAT     H212453   1.565   2.308   6.203
 4071WAT      O12454   2.520   3.959   0.373
 4071WAT     H112455   2.473   4.018   0.307
 4071WAT     H212456   2.485   3.976   0.465
 4072WAT      O12457   6.200   6.976   4.465
 4072WAT     H112458   6.114   6.930   4.485
 4072WAT     H212459   6.194   7.072   4.494
 4073WAT      O12460   2.933   3.356   7.012
 4073WAT     H112461   2.878   3.307   7.079
 4073WAT     H212462   3.000   3.412   7.059
 4074WAT      O12463   9.450   8.446   6.974
 4074WAT     H112464   9.427   8.359   7.018
 4074WAT     H212465   9.532   8.484   7.016
 4075WAT      O12466   9.662   9.816   5.429
 4075WAT     H112467   9.693   9.841   5.520
 4075WAT     H212468   9.725   9.854   5.361
 4076WAT      O12469   1.020   2.959   4.170
 4076WAT     H112470   0.936   2.987   4.124
 4076WAT     H212471   1.099   2.981   4.112
 4077WAT      O12472   8.408   3.417   4.008
 4077WAT     H112473   8.456   3.452   3.928
 4077WAT     H212474   8.429   3.474   4.087
 4078WAT      O12475   2.255   0.135   6.858
 4078WAT     H112476   2.288   0.041   6.867
 4078WAT     H212477   2.333   0.197   6.844
 4079WAT      O12478   4.189   3.418   5.888
 4079WAT     H112479   4.214   3.484   5.959
 4079WAT     H212480   4.240   3.333   5.903
 4080WAT      O12481   6.704   0.131   3.792
 4080WAT     H112482   6.612   0.150   3.757
 4080WAT     H212483   6.770   0.145   3.719
 4081WAT      O12484   2.414   3.071   8.897
 4081WAT     H112485   2.494   3.088   8.838
 4081WAT     H212486   2.445   3.029   8.983
 4082WAT      O12487   3.333   3.958   8.892
 4082WAT     H112488   3.358   3.992   8.801
 4082WAT     H212489   3.236   3.937   8.895
 4083WAT      O12490   1.698   4.068   6.362
 4083WAT     H112491   1.607   4.104   6.345
 4083WAT     H212492   1.719   4.074   6.460
 4084WAT      O12493   6.657   3.726   6.446
 4084WAT     H112494   6.576   3.782   6.466
 4084WAT     H212495   6.665   3.653   6.514
 4085WAT      O12496   3.838   3.768   2.824
 4085WAT     H112497   3.821   3.787   2.728
 4085WAT     H212498   3.849   3.670   2.837
 4086WAT      O12499   9.479   0.928   6.814
 4086WAT     H112500   9.490   0.930   6.913
 4086WAT     H212501   9.425   1.007   6.785
 4087WAT      O12502   9.535   9.294   2.512
 4087WAT     H112503   9.571   9.243   2.589
 4087WAT     H212504   9.578   9.263   2.428
 4088WAT      O12505   8.551   0.766   2.624
 4088WAT     H112506   8.589   0.857   2.610
 4088WAT     H212507   8.564   0.738   2.719
 4089WAT      O12508   2.847   0.757   2.417
 4089WAT     H112509   2.914   0.830   2.430
 4089WAT     H212510   2.833   0.742   2.319
 4090WAT      O12511   0.990   9.029   2.095
 4090WAT     H112512   0.928   8.972   2.041
 4090WAT     H212513   1.074   8.978   2.113
 4091WAT      O12514   6.526   4.550   6.416
 4091WAT     H112515   6.463   4.542   6.340
 4091WAT     H212516   6.612   4.504   6.394
 4092WAT      O12517   0.592   2.152   2.057
 4092WAT     H112518   0.661   2.097   2.010
 4092WAT     H212519   0.535   2.199   1.990
 4093WAT      O12520   8.990   8.351   3.843
 4093WAT     H112521   8.943   8.431   3.807
 4093WAT     H212522   8.923   8.282   3.871
 4094WAT      O12523   2.870   1.132   9.363
 4094WAT     H112524   2.771   1.126   9.377
 4094WAT     H212525   2.910   1.192   9.433
 4095WAT      O12526   0.977   7.919   9.025
 4095WAT     H112527   0.905   7.887   8.965
 4095WAT     H212528   1.009   8.009   8.994
 4096WAT      O12529   4.211   4.341   9.750
 4096WAT     H112530   4.169   4.380   9.832
 4096WAT     H212531   4.161   4.373   9.669
 4097WAT      O12532   1.263   8.259   0.159
 4097WAT     H112533   1.293   8.171   0.197
 4097WAT     H212534   1.223   8.244   0.069
 4098WAT      O12535   6.957   9.800   4.600
 4098WAT     H112536   6.860   9.825   4.610
 4098WAT     H212537   7.012   9.883   4.588
 4099WAT      O12538   2.181   2.258   2.885
 4099WAT     H112539   2.125   2.299   2.813
 4099WAT     H212540   2.173   2.314   2.968
 4100WAT      O12541   1.070   0.472   4.124
 4100WAT     H112542   1.062   0.375   4.103
 4100WAT     H212543   1.054   0.526   4.041
 4101WAT      O12544   4.616   4.195   0.933
 4101WAT     H112545   4.613   4.120   0.867
 4101WAT     H212546   4.541   4.187   0.998
 4102WAT      O12547   8.398   7.425   1.638
 4102WAT     H112548   8.477   7.457   1.691
 4102WAT     H212549   8.323   7.403   1.701
 4103WAT      O12550   6.930   7.467   6.767
 4103WAT     H112551   6.844   7.504   6.801
 4103WAT     H212552   6.912   7.409   6.688
 4104WAT      O12553   8.257   9.493   4.543
 4104WAT     H112554   8.334   9.483   4.606
 4104WAT     H212555   8.276   9.568   4.480
 4105WAT      O12556   9.265   4.173   6.729
 4105WAT     H112557   9.174   4.183   6.689
 4105WAT     H212558   9.275   4.235   6.807
 4106WAT      O12559   3.379   6.949   5.441
 4106WAT     H112560   3.465   6.902   5.459
 4106WAT     H212561   3.347   6.994   5.524
 4107WAT      O12562   1.276   0.637   6.884
 4107WAT     H112563   1.376   0.644   6.892
 4107WAT     H212564   1.233   0.678   6.964
 4108WAT      O12565   4.478   6.793   9.020
 4108WAT     H112566   4.413   6.747   8.959
 4108WAT     H212567   4.491   6.888   8.991
 4109WAT      O12568   4.051   2.202   9.022
 4109WAT     H112569   3.956   2.184   8.999
 4109WAT     H212570   4.082   2.135   9.090
 4110WAT      O12571   1.025   6.398   7.526
 4110WAT     H112572   1.002   6.360   7.616
 4110WAT     H212573   0.942   6.435   7.484
 4111WAT      O12574   2.939   6.708   9.364
 4111WAT     H112575   2.957   6.617   9.401
 4111WAT     H212576   2.984   6.776   9.422
 4112WAT      O12577   3.231   8.482   0.426
 4112WAT     H112578   3.182   8.426   0.493
 4112WAT     H212579   3.309   8.432   0.391
 4113WAT      O12580   6.788   2.572   9.095
 4113WAT     H112581   6.688   2.564   9.100
 4113WAT     H212582   6.820   2.630   9.170
 4114WAT      O12583   8.675   8.689   6.436
 4114WAT     H112584   8.623   8.747   6.498
 4114WAT     H212585   8.715   8.613   6.486
 4115WAT      O12586   7.595   6.154   1.864
 4115WAT     H112587   7.686   6.122   1.889
 4115WAT     H212588   7.601   6.246   1.825
 4116WAT      O12589   9.059   3.950   5.466
 4116WAT     H112590   9.020   3.990   5.383
 4116WAT     H212591   9.029   4.003   5.545
 4117WAT      O12592   4.449   1.467   7.989
 4117WAT     H112593   4.369   1.407   7.987
 4117WAT     H212594   4.511   1.436   8.061
 4118WAT      O12595   1.959   6.614   6.072
 4118WAT     H112596   1.994   6.642   6.161
 4118WAT     H212597   2.002   6.528   6.044
 4119WAT      O12598   4.684   1.277   5.511
 4119WAT     H112599   4.662   1.349   5.576
 4119WAT     H212600   4.695   1.316   5.420
 4120WAT      O12601   0.597   5.610   9.784
 4120WAT     H112602   0.611   5.618   9.686
 4120WAT     H212603   0.642   5.687   9.831
 4121WAT      O12604   0.735   9.207   2.458
 4121WAT     H112605   0.818   9.191   2.404
 4121WAT     H212606   0.755   9.195   2.555
 4122WAT      O12607   2.006   3.074   3.262
 4122WAT     H112608   2.061   3.148   3.302
 4122WAT     H212609   2.060   2.990   3.259
 4123WAT      O12610   8.244   8.367   5.400
 4123WAT     H112611   8.200   8.287   5.442
 4123WAT     H212612   8.312   8.404   5.462
 4124WAT      O12613   6.007   4.015   1.794
 4124WAT     H112614   6.062   3.956   1.735
 4124WAT     H212615   6.064   4.088   1.831
 4125WAT      O12616   3.077   0.573   0.070
 4125WAT     H112617   3.068   0.556  -0.029
 4125WAT     H212618   3.119   0.493   0.113
 4126WAT      O12619   2.057   9.301   4.121
 4126WAT     H112620   1.984   9.237   4.145
 4126WAT     H212621   2.140   9.275   4.171
 4127WAT      O12622   5.241   4.255   8.526
 4127WAT     H112623   5.281   4.291   8.610
 4127WAT     H212624   5.310   4.256   8.454
 4128WAT      O12625   8.105   9.824   5.061
 4128WAT     H112626   8.199   9.843   5.032
 4128WAT     H212627   8.078   9.734   5.028
 4129WAT      O12628   5.253   9.444   1.744
 4129WAT     H112629   5.295   9.530   1.774
 4129WAT     H212630   5.154   9.455   1.741
 4130WAT      O12631   0.463   4.943   2.567
 4130WAT     H112632   0.461   4.853   2.523
 4130WAT     H212633   0.455   5.014   2.498
 4131WAT      O12634   6.821   5.819   7.168
 4131WAT     H112635   6.766   5.759   7.111
 4131WAT     H212636   6.836   5.776   7.257
 4132WAT      O12637   4.755   0.290   4.110
 4132WAT     H112638   4.810   0.362   4.151
 4132WAT     H212639   4.758   0.297   4.010
 4133WAT      O12640   1.865   8.515   4.150
 4133WAT     H112641   1.798   8.584   4.177
 4133WAT     H212642   1.909   8.478   4.232
 4134WAT      O12643   2.075   3.363   3.737
 4134WAT     H112644   2.082   3.385   3.639
 4134WAT     H212645   2.130   3.428   3.790
 4135WAT      O12646   5.022   9.251   3.336
 4135WAT     H112647   5.115   9.233   3.304
 4135WAT     H212648   4.956   9.208   3.274
 4136WAT      O12649   0.391   8.930   2.299
 4136WAT     H112650   0.421   8.887   2.214
 4136WAT     H212651   0.425   9.024   2.303
 4137WAT      O12652   4.539   0.594   4.571
 4137WAT     H112653   4.535   0.582   4.670
 4137WAT     H212654   4.548   0.692   4.550
 4138WAT      O12655   2.703   8.517   4.257
 4138WAT     H112656   2.666   8.566   4.178
 4138WAT     H212657   2.657   8.429   4.267
 4139WAT      O12658   7.416   2.622   3.385
 4139WAT     H112659   7.410   2.640   3.484
 4139WAT     H212660   7.473   2.542   3.369
 4140WAT      O12661   0.325   2.603   3.981
 4140WAT     H112662   0.265   2.547   3.925
 4140WAT     H212663   0.285   2.693   3.994
 4141WAT      O12664   4.330   6.754   5.220
 4141WAT     H112665   4.277   6.699   5.155
 4141WAT     H212666   4.374   6.695   5.287
 4142WAT      O12667   1.589   9.648   7.155
 4142WAT     H112668   1.638   9.691   7.079
 4142WAT     H212669   1.491   9.654   7.138
 4143WAT      O12670   8.640   1.042   3.131
 4143WAT     H112671   8.687   1.115   3.082
 4143WAT     H212672   8.543   1.062   3.137
 4144WAT      O12673   3.754   8.190   1.092
 4144WAT     H112674   3.683   8.238   1.143
 4144WAT     H212675   3.838   8.187   1.147
 4145WAT      O12676   2.785   1.315   0.371
 4145WAT     H112677   2.869   1.264   0.383
 4145WAT     H212678   2.794   1.406   0.412
 4146WAT      O12679   2.899   5.662   3.812
 4146WAT     H112680   2.889   5.564   3.795
 4146WAT     H212681   2.996   5.685   3.822
 4147WAT      O12682   1.606   8.990   4.415
 4147WAT     H112683   1.580   8.895   4.399
 4147WAT     H212684   1.703   9.002   4.394
 4148WAT      O12685   8.187   9.364   2.205
 4148WAT     H112686   8.128   9.309   2.263
 4148WAT     H212687   8.214   9.312   2.124
 4149WAT      O12688   8.003   5.404   5.985
 4149WAT     H112689   7.961   5.428   6.072
 4149WAT     H212690   7.959   5.322   5.948
 4150WAT      O12691   3.097   6.739   3.264
 4150WAT     H112692   3.048   6.657   3.236
 4150WAT     H212693   3.126   6.730   3.360
 4151WAT      O12694   1.403   2.889   6.272
 4151WAT     H112695   1.349   2.967   6.239
 4151WAT     H212696   1.341   2.818   6.304
 4152WAT      O12697   7.272   8.243   4.468
 4152WAT     H112698   7.199   8.309   4.452
 4152WAT     H212699   7.354   8.270   4.419
 4153WAT      O12700   5.235   0.404   3.169
 4153WAT     H112701   5.167   0.404   3.243
 4153WAT     H212702   5.195   0.362   3.087
 4154WAT      O12703   3.398   7.592   4.761
 4154WAT     H112704   3.451   7.675   4.781
 4154WAT     H212705   3.417   7.523   4.830
 4155WAT      O12706   3.171   7.833   7.862
 4155WAT     H112707   3.167   7.860   7.766
 4155WAT     H212708   3.137   7.908   7.919
 4156WAT      O12709   6.511   4.962   0.560
 4156WAT     H112710   6.565   4.939   0.641
 4156WAT     H212711   6.528   5.058   0.536
 4157WAT      O12712   5.912   1.587   7.571
 4157WAT     H112713   5.873   1.670   7.611
 4157WAT     H212714   5.919   1.517   7.642
 4158WAT      O12715   8.300   2.451   3.462
 4158WAT     H112716   8.230   2.487   3.525
 4158WAT     H212717   8.381   2.509   3.466
 4159WAT      O12718   9.877   3.894   4.206
 4159WAT     H112719   9.914   3.833   4.275
 4159WAT     H212720   9.945   3.907   4.134
 4160WAT      O12721   9.323   4.889   1.596
 4160WAT     H112722   9.342   4.978   1.637
 4160WAT     H212723   9.249   4.898   1.529
 4161WAT      O12724   8.289   3.443   9.800
 4161WAT     H112725   8.339   3.511   9.853
 4161WAT     H212726   8.257   3.370   9.861
 4162WAT      O12727   4.439   0.178   0.805
 4162WAT     H112728   4.537   0.156   0.814
 4162WAT     H212729   4.389   0.135   0.880
 4163WAT      O12730   3.765   7.895   6.428
 4163WAT     H112731   3.735   7.896   6.524
 4163WAT     H212732   3.744   7.982   6.385
 4164WAT      O12733   7.045   7.779   7.045
 4164WAT     H112734   6.993   7.694   7.056
 4164WAT     H212735   7.042   7.830   7.131
 4165WAT      O12736   0.500   9.713   9.726
 4165WAT     H112737   0.523   9.693   9.821
 4165WAT     H212738   0.412   9.671   9.703
 4166WAT      O12739   2.800   7.094   3.857
 4166WAT     H112740   2.859   7.122   3.932
 4166WAT     H212741   2.765   7.174   3.810
 4167WAT      O12742   0.935   5.859   1.434
 4167WAT     H112743   0.875   5.846   1.513
 4167WAT     H212744   1.015   5.799   1.442
 4168WAT      O12745   4.337   6.406   9.218
 4168WAT     H112746   4.244   6.442   9.217
 4168WAT     H212747   4.370   6.398   9.124
 4169WAT      O12748   2.842   5.120   1.437
 4169WAT     H112749   2.823   5.022   1.436
 4169WAT     H212750   2.931   5.138   1.394
 4170WAT      O12751   6.366   3.720   7.268
 4170WAT     H112752   6.448   3.713   7.324
 4170WAT     H212753   6.330   3.629   7.248
 4171WAT      O12754   4.424   8.544   4.188
 4171WAT     H112755   4.377   8.589   4.112
 4171WAT     H212756   4.516   8.519   4.159
 4172WAT      O12757   4.399   7.860   4.485
 4172WAT     H112758   4.336   7.813   4.547
 4172WAT     H212759   4.489   7.816   4.489
 4173WAT      O12760   9.140   0.857   8.664
 4173WAT     H112761   9.226   0.851   8.614
 4173WAT     H212762   9.144   0.798   8.745
 4174WAT      O12763   5.171   3.292   3.576
 4174WAT     H112764   5.243   3.313   3.643
 4174WAT     H212765   5.213   3.258   3.492
 4175WAT      O12766   3.204   8.567   1.717
 4175WAT     H112767   3.203   8.651   1.662
 4175WAT     H212768   3.162   8.586   1.806
 4176WAT      O12769   8.230   1.602   0.518
 4176WAT     H112770   8.330   1.612   0.511
 4176WAT     H212771   8.194   1.567   0.432
 4177WAT      O12772   0.740   9.494   6.862
 4177WAT     H112773   0.696   9.469   6.775
 4177WAT     H212774   0.755   9.593   6.864
 4178WAT      O12775   2.415   0.419   7.786
 4178WAT     H112776   2.399   0.504   7.836
 4178WAT     H212777   2.329   0.386   7.748
 4179WAT      O12778   2.147   5.287   4.683
 4179WAT     H112779   2.063   5.231   4.683
 4179WAT     H212780   2.170   5.312   4.777
 4180WAT      O12781   1.478   9.257   7.849
 4180WAT     H112782   1.526   9.228   7.932
 4180WAT     H212783   1.522   9.218   7.769
 4181WAT      O12784   4.947   1.568   5.197
 4181WAT     H112785   4.935   1.667   5.202
 4181WAT     H212786   5.035   1.547   5.154
 4182WAT      O12787   1.002   3.490   8.603
 4182WAT     H112788   0.932   3.437   8.555
 4182WAT     H212789   1.018   3.576   8.554
 4183WAT      O12790   9.853   3.462   5.875
 4183WAT     H112791   9.886   3.423   5.789
 4183WAT     H212792   9.911   3.432   5.950
 4184WAT      O12793   9.326   1.238   4.101
 4184WAT     H112794   9.416   1.278   4.122
 4184WAT     H212795   9.259   1.272   4.167
 4185WAT      O12796   3.376   6.960   0.251
 4185WAT     H112797   3.319   6.878   0.257
 4185WAT     H212798   3.413   6.969   0.158
 4186WAT      O12799   5.550   9.014   8.037
 4186WAT     H112800   5.578   9.085   8.103
 4186WAT     H212801   5.498   9.057   7.963
 4187WAT      O12802   5.944   1.263   5.611
 4187WAT     H112803   5.888   1.274   5.529
 4187WAT     H212804   5.929   1.342   5.671
 4188WAT      O12805   0.148   9.411   3.578
 4188WAT     H112806   0.062   9.402   3.628
 4188WAT     H212807   0.130   9.400   3.480
 4189WAT      O12808   1.151   0.950   7.851
 4189WAT     H112809   1.091   0.896   7.910
 4189WAT     H212810   1.245   0.946   7.886
 4190WAT      O12811   2.390   7.330   9.168
 4190WAT     H112812   2.461   7.367   9.230
 4190WAT     H212813   2.383   7.388   9.088
 4191WAT      O12814   9.660   2.274   5.221
 4191WAT     H112815   9.671   2.373   5.213
 4191WAT     H212816   9.698   2.230   5.140
 4192WAT      O12817   6.591   3.866   5.465
 4192WAT     H112818   6.502   3.899   5.495
 4192WAT     H212819   6.580   3.783   5.411
 4193WAT      O12820   4.366   9.606   5.756
 4193WAT     H112821   4.292   9.643   5.812
 4193WAT     H212822   4.386   9.513   5.786
 4194WAT      O12823   0.951   9.607   5.696
 4194WAT     H112824   0.918   9.595   5.602
 4194WAT     H212825   1.036   9.557   5.709
 4195WAT      O12826   7.095   5.033   5.903
 4195WAT     H112827   7.123   4.984   5.820
 4195WAT     H212828   7.021   5.096   5.880
 4196WAT      O12829   8.043   3.289   9.256
 4196WAT     H112830   7.948   3.291   9.287
 4196WAT     H212831   8.066   3.377   9.214
 4197WAT      O12832   1.188   7.480   9.181
 4197WAT     H112833   1.163   7.571   9.211
 4197WAT     H212834   1.132   7.412   9.229
 4198WAT      O12835   0.269   6.940   1.334
 4198WAT     H112836   0.338   6.905   1.397
 4198WAT     H212837   0.286   6.903   1.243
 4199WAT      O12838   4.090   5.596   1.150
 4199WAT     H112839   4.174   5.648   1.161
 4199WAT     H212840   4.067   5.550   1.236
 4200WAT      O12841   3.870   0.974   6.450
 4200WAT     H112842   3.812   1.055   6.448
 4200WAT     H212843   3.944   0.987   6.516
 4201WAT      O12844   7.757   3.285   1.703
 4201WAT     H112845   7.672   3.321   1.740
 4201WAT     H212846   7.800   3.224   1.770
 4202WAT      O12847   9.488   9.557   2.488
 4202WAT     H112848   9.504   9.465   2.452
 4202WAT     H212849   9.395   9.585   2.467
 4203WAT      O12850   1.590   8.378   9.753
 4203WAT     H112851   1.653   8.351   9.826
 4203WAT     H212852   1.538   8.299   9.722
 4204WAT      O12853   3.242   3.577   0.072
 4204WAT     H112854   3.288   3.565   0.160
 4204WAT     H212855   3.146   3.550   0.081
 4205WAT      O12856   2.668   6.469   7.559
 4205WAT     H112857   2.605   6.545   7.575
 4205WAT     H212858   2.629   6.409   7.489
 4206WAT      O12859   4.941   9.455   8.476
 4206WAT     H112860   5.004   9.507   8.419
 4206WAT     H212861   4.918   9.509   8.558
 4207WAT      O12862   0.500   0.140   3.375
 4207WAT     H112863   0.528   0.216   3.433
 4207WAT     H212864   0.401   0.128   3.380
 4208WAT      O12865   6.359   2.328   5.688
 4208WAT     H112866   6.337   2.308   5.593
 4208WAT     H212867   6.279   2.368   5.733
 4209WAT      O12868   2.872   1.466   9.253
 4209WAT     H112869   2.922   1.399   9.198
 4209WAT     H212870   2.920   1.481   9.339
 4210WAT      O12871   0.448   6.396   8.067
 4210WAT     H112872   0.521   6.401   8.136
 4210WAT     H212873   0.420   6.301   8.055
 4211WAT      O12874   3.061   2.729   6.381
 4211WAT     H112875   2.989   2.661   6.367
 4211WAT     H212876   3.023   2.821   6.374
 4212WAT      O12877   9.511   5.611   0.529
 4212WAT     H112878   9.427   5.561   0.547
 4212WAT     H212879   9.548   5.583   0.441
 4213WAT      O12880   2.578   9.161   1.168
 4213WAT     H112881   2.566   9.063   1.157
 4213WAT     H212882   2.561   9.186   1.264
 4214WAT      O12883   0.067   4.400   5.005
 4214WAT     H112884  -0.032   4.394   5.019
 4214WAT     H212885   0.093   4.346   4.925
 4215WAT      O12886   8.978   5.082   4.257
 4215WAT     H112887   8.976   5.005   4.193
 4215WAT     H212888   8.905   5.146   4.233
 4216WAT      O12889   1.022   1.052   3.872
 4216WAT     H112890   1.102   0.997   3.897
 4216WAT     H212891   0.942   1.019   3.923
 4217WAT      O12892   0.233   0.075   5.557
 4217WAT     H112893   0.144   0.115   5.534
 4217WAT     H212894   0.231  -0.023   5.536
 4218WAT      O12895   2.860   6.069   6.707
 4218WAT     H112896   2.943   6.027   6.742
 4218WAT     H212897   2.782   6.042   6.764
 4219WAT      O12898   6.454   8.708   7.313
 4219WAT     H112899   6.500   8.790   7.280
 4219WAT     H212900   6.489   8.685   7.404
 4220WAT      O12901   5.350   3.969   7.725
 4220WAT     H112902   5.335   3.993   7.629
 4220WAT     H212903   5.371   4.052   7.777
 4221WAT      O12904   9.102   2.594   0.861
 4221WAT     H112905   9.104   2.602   0.761
 4221WAT     H212906   9.041   2.664   0.899
 4222WAT      O12907   6.861   8.550   0.605
 4222WAT     H112908   6.880   8.647   0.589
 4222WAT     H212909   6.763   8.537   0.620
 4223WAT      O12910   2.486   3.587   8.306
 4223WAT     H112911   2.461   3.630   8.392
 4223WAT     H212912   2.472   3.488   8.312
 4224WAT      O12913   0.587   8.400   0.669
 4224WAT     H112914   0.520   8.459   0.624
 4224WAT     H212915   0.674   8.449   0.677
 4225WAT      O12916   4.037   6.435   5.576
 4225WAT     H112917   4.010   6.409   5.669
 4225WAT     H212918   3.960   6.424   5.515
 4226WAT      O12919   0.923   0.943   1.464
 4226WAT     H112920   0.871   0.974   1.385
 4226WAT     H212921   0.892   0.852   1.492
 4227WAT      O12922   4.853   3.650   9.155
 4227WAT     H112923   4.812   3.714   9.220
 4227WAT     H212924   4.932   3.605   9.198
 4228WAT      O12925   4.356   1.729   7.985
 4228WAT     H112926   4.386   1.638   7.956
 4228WAT     H212927   4.411   1.759   8.063
 4229WAT      O12928   9.550   0.843   2.239
 4229WAT     H112929   9.506   0.911   2.180
 4229WAT     H212930   9.494   0.761   2.244
 4230WAT      O12931   9.599   0.033   1.681
 4230WAT     H112932   9.647   0.034   1.593
 4230WAT     H212933   9.502   0.018   1.665
 4231WAT      O12934   4.800   6.821   2.855
 4231WAT     H112935   4.780   6.752   2.785
 4231WAT     H212936   4.880   6.874   2.828
 4232WAT      O12937   4.649   6.249   4.119
 4232WAT     H112938   4.653   6.169   4.059
 4232WAT     H212939   4.736   6.259   4.167
 4233WAT      O12940   0.232   5.562   2.093
 4233WAT     H112941   0.207   5.468   2.118
 4233WAT     H212942   0.250   5.567   1.995
 4234WAT      O12943   3.965   3.176   1.371
 4234WAT     H112944   4.010   3.251   1.420
 4234WAT     H212945   3.884   3.210   1.325
 4235WAT      O12946   0.936   9.754   6.243
 4235WAT     H112947   0.918   9.675   6.186
 4235WAT     H212948   1.022   9.797   6.214
 4236WAT      O12949   9.242   7.644   2.364
 4236WAT     H112950   9.317   7.627   2.300
 4236WAT     H212951   9.228   7.742   2.374
 4237WAT      O12952   1.269   4.769   5.603
 4237WAT     H112953   1.353   4.816   5.576
 4237WAT     H212954   1.252   4.785   5.700
 4238WAT      O12955   3.526   8.285   7.225
 4238WAT     H112956   3.457   8.266   7.294
 4238WAT     H212957   3.560   8.200   7.186
 4239WAT      O12958   9.620   5.559   6.221
 4239WAT     H112959   9.618   5.460   6.222
 4239WAT     H212960   9.705   5.590   6.179
 4240WAT      O12961   3.678   1.594   1.247
 4240WAT     H112962   3.662   1.635   1.337
 4240WAT     H212963   3.741   1.652   1.195
 4241WAT      O12964   2.064   1.861   1.574
 4241WAT     H112965   2.143   1.800   1.580
 4241WAT     H212966   2.085   1.937   1.513
 4242WAT      O12967   9.589   2.139   9.084
 4242WAT     H112968   9.653   2.204   9.044
 4242WAT     H212969   9.515   2.121   9.018
 4243WAT      O12970   3.930   1.331   6.309
 4243WAT     H112971   4.023   1.310   6.277
 4243WAT     H212972   3.919   1.298   6.402
 4244WAT      O12973   9.510   3.981   5.004
 4244WAT     H112974   9.608   4.000   4.998
 4244WAT     H212975   9.478   3.946   4.915
 4245WAT      O12976   8.094   0.676   4.984
 4245WAT     H112977   8.170   0.629   4.939
 4245WAT     H212978   8.025   0.608   5.011
 4246WAT      O12979   4.765   7.406   5.551
 4246WAT     H112980   4.693   7.340   5.530
 4246WAT     H212981   4.826   7.416   5.473
 4247WAT      O12982   1.913   0.448   2.771
 4247WAT     H112983   1.841   0.516   2.785
 4247WAT     H212984   1.937   0.406   2.858
 4248WAT      O12985   8.068   5.718   3.036
 4248WAT     H112986   7.985   5.748   2.989
 4248WAT     H212987   8.130   5.676   2.969
 4249WAT      O12988   3.592   1.453   3.685
 4249WAT     H112989   3.678   1.502   3.666
 4249WAT     H212990   3.594   1.418   3.779
 4250WAT      O12991   9.692   2.952   1.244
 4250WAT     H112992   9.761   2.962   1.315
 4250WAT     H212993   9.729   2.896   1.169
 4251WAT      O12994   2.068   7.756   8.730
 4251WAT     H112995   2.118   7.688   8.785
 4251WAT     H212996   2.036   7.830   8.789
 4252WAT      O12997   1.440   5.579   8.424
 4252WAT     H112998   1.386   5.615   8.500
 4252WAT     H212999   1.474   5.655   8.369
 4253WAT      O13000   2.961   4.419   8.038
 4253WAT     H113001   2.903   4.478   7.982
 4253WAT     H213002   2.973   4.460   8.129
 4254WAT      O13003   6.461   3.390   2.356
 4254WAT     H113004   6.526   3.315   2.356
 4254WAT     H213005   6.398   3.380   2.278
 4255WAT      O13006   9.690   7.969   8.039
 4255WAT     H113007   9.709   8.062   8.072
 4255WAT     H213008   9.645   7.917   8.112
 4256WAT      O13009   0.210   7.387   7.448
 4256WAT     H113010   0.234   7.457   7.380
 4256WAT     H213011   0.177   7.305   7.401
 4257WAT      O13012   5.363   4.458   4.397
 4257WAT     H113013   5.407   4.404   4.468
 4257WAT     H213014   5.429   4.481   4.325
 4258WAT      O13015   4.192   1.078   1.091
 4258WAT     H113016   4.103   1.122   1.077
 4258WAT     H213017   4.178   0.980   1.105
 4259WAT      O13018   3.923   2.509   4.326
 4259WAT     H113019   3.881   2.434   4.377
 4259WAT     H213020   3.952   2.580   4.389
 4260WAT      O13021   8.002   0.932   3.572
 4260WAT     H113022   7.988   0.979   3.660
 4260WAT     H213023   8.099   0.930   3.550
 4261WAT      O13024   7.413   8.079   8.538
 4261WAT     H113025   7.364   8.032   8.465
 4261WAT     H213026   7.435   8.013   8.611
 4262WAT      O13027   2.747   0.760   4.427
 4262WAT     H113028   2.801   0.744   4.344
 4262WAT     H213029   2.690   0.680   4.446
 4263WAT      O13030   8.035   6.416   5.324
 4263WAT     H113031   8.016   6.469   5.242
 4263WAT     H213032   8.054   6.321   5.298
 4264WAT      O13033   1.115   4.076   3.124
 4264WAT     H113034   1.064   4.128   3.056
 4264WAT     H213035   1.186   4.135   3.164
 4265WAT      O13036   8.633   4.546   0.228
 4265WAT     H113037   8.641   4.501   0.139
 4265WAT     H213038   8.581   4.488   0.290
 4266WAT      O13039   3.195   4.044   5.377
 4266WAT     H113040   3.102   4.041   5.341
 4266WAT     H213041   3.227   4.139   5.380
 4267WAT      O13042   8.270   0.270   4.171
 4267WAT     H113043   8.298   0.355   4.126
 4267WAT     H213044   8.217   0.215   4.107
 4268WAT      O13045   5.028   8.508   7.372
 4268WAT     H113046   5.120   8.471   7.387
 4268WAT     H213047   5.033   8.586   7.309
 4269WAT      O13048   8.422   4.573   8.890
 4269WAT     H113049   8.482   4.502   8.852
 4269WAT     H213050   8.398   4.638   8.818
 4270WAT      O13051   3.829   8.441   5.165
 4270WAT     H113052   3.918   8.458   5.208
 4270WAT     H213053   3.802   8.346   5.181
 4271WAT      O13054   0.632   7.742   9.721
 4271WAT     H113055   0.617   7.651   9.760
 4271WAT     H213056   0.545   7.780   9.690
 4272WAT      O13057   8.460   4.153   4.034
 4272WAT     H113058   8.464   4.060   4.069
 4272WAT     H213059   8.368   4.173   4.001
 4273WAT      O13060   1.788   4.904   7.649
 4273WAT     H113061   1.803   4.999   7.677
 4273WAT     H213062   1.869   4.850   7.670
 4274WAT      O13063   7.059   9.365   0.465
 4274WAT     H113064   6.966   9.328   0.466
 4274WAT     H213065   7.113   9.319   0.395
 4275WAT      O13066   6.990   9.057   9.815
 4275WAT     H113067   6.909   9.022   9.768
 4275WAT     H213068   6.972   9.150   9.848
 4276WAT      O13069   5.135   1.624   3.200
 4276WAT     H113070   5.135   1.715   3.241
 4276WAT     H213071   5.122   1.555   3.272
 4277WAT      O13072   2.038   1.613   9.668
 4277WAT     H113073   2.023   1.684   9.736
 4277WAT     H213074   2.099   1.647   9.597
 4278WAT      O13075   9.634   6.024   8.314
 4278WAT     H113076   9.551   6.071   8.284
 4278WAT     H213077   9.672   5.971   8.239
 4279WAT      O13078   6.086   0.433   6.759
 4279WAT     H113079   6.076   0.519   6.809
 4279WAT     H213080   6.023   0.432   6.681
 4280WAT      O13081   4.726   0.299   5.805
 4280WAT     H113082   4.774   0.275   5.889
 4280WAT     H213083   4.741   0.395   5.784
 4281WAT      O13084   0.306   2.137   0.204
 4281WAT     H113085   0.375   2.132   0.276
 4281WAT     H213086   0.336   2.201   0.133
 4282WAT      O13087   7.625   6.020   4.816
 4282WAT     H113088   7.606   6.060   4.906
 4282WAT     H213089   7.712   6.055   4.782
 4283WAT      O13090   6.469   0.789   6.418
 4283WAT     H113091   6.431   0.764   6.507
 4283WAT     H213092   6.433   0.728   6.348
 4284WAT      O13093   7.349   8.184   0.214
 4284WAT     H113094   7.263   8.235   0.210
 4284WAT     H213095   7.330   8.087   0.197
 4285WAT      O13096   8.504   7.916   5.151
 4285WAT     H113097   8.435   7.861   5.200
 4285WAT     H213098   8.550   7.977   5.215
 4286WAT      O13099   6.326   1.504   4.765
 4286WAT     H113100   6.388   1.554   4.825
 4286WAT     H213101   6.241   1.555   4.754
 4287WAT      O13102   5.982   6.195   5.185
 4287WAT     H113103   5.980   6.145   5.272
 4287WAT     H213104   6.012   6.289   5.202
 4288WAT      O13105   6.828   7.272   1.099
 4288WAT     H113106   6.924   7.271   1.129
 4288WAT     H213107   6.769   7.286   1.179
 4289WAT      O13108   2.101   2.000   5.910
 4289WAT     H113109   2.084   1.918   5.856
 4289WAT     H213110   2.162   2.062   5.859
 4290WAT      O13111   0.308   7.076   6.699
 4290WAT     H113112   0.348   7.011   6.635
 4290WAT     H213113   0.347   7.167   6.683
 4291WAT      O13114   4.212   9.714   1.848
 4291WAT     H113115   4.214   9.614   1.844
 4291WAT     H213116   4.305   9.749   1.835
 4292WAT      O13117   9.481   1.216   0.809
 4292WAT     H113118   9.435   1.168   0.734
 4292WAT     H213119   9.575   1.184   0.816
 4293WAT      O13120   2.349   3.347   8.880
 4293WAT     H113121   2.375   3.383   8.790
 4293WAT     H213122   2.387   3.255   8.890
 4294WAT      O13123   5.875   1.356   6.513
 4294WAT     H113124   5.935   1.294   6.563
 4294WAT     H213125   5.860   1.439   6.567
 4295WAT      O13126   3.965   5.835   2.417
 4295WAT     H113127   4.038   5.839   2.486
 4295WAT     H213128   4.003   5.803   2.330
 4296WAT      O13129   0.038   6.427   7.019
 4296WAT     H113130   0.127   6.440   6.976
 4296WAT     H213131  -0.006   6.515   7.032
 4297WAT      O13132   8.280   9.576   1.927
 4297WAT     H113133   8.190   9.538   1.905
 4297WAT     H213134   8.317   9.528   2.007
 4298WAT      O13135   0.947   5.796   2.233
 4298WAT     H113136   1.015   5.733   2.194
 4298WAT     H213137   0.902   5.846   2.158
 4299WAT      O13138   5.616   3.471   2.608
 4299WAT     H113139   5.593   3.540   2.676
 4299WAT     H213140   5.606   3.380   2.648
 4300WAT      O13141   4.228   2.591   2.935
 4300WAT     H113142   4.306   2.598   2.873
 4300WAT     H213143   4.187   2.500   2.928
 4301WAT      O13144   6.626   0.756   2.211
 4301WAT     H113145   6.579   0.803   2.135
 4301WAT     H213146   6.648   0.662   2.183
 4302WAT      O13147   5.242   8.830   4.187
 4302WAT     H113148   5.154   8.855   4.228
 4302WAT     H213149   5.234   8.741   4.143
 4303WAT      O13150   3.547   0.983   4.309
 4303WAT     H113151   3.466   0.983   4.250
 4303WAT     H213152   3.563   0.892   4.345
 4304WAT      O13153   4.029   0.654   4.275
 4304WAT     H113154   4.004   0.602   4.194
 4304WAT     H213155   4.030   0.594   4.355
 4305WAT      O13156   3.457   6.463   6.714
 4305WAT     H113157   3.439   6.400   6.789
 4305WAT     H213158   3.372   6.488   6.669
 4306WAT      O13159   3.595   2.466   5.012
 4306WAT     H113160   3.664   2.522   5.056
 4306WAT     H213161   3.576   2.386   5.069
 4307WAT      O13162   5.501   7.838   8.979
 4307WAT     H113163   5.583   7.894   8.990
 4307WAT     H213164   5.470   7.807   9.069
 4308WAT      O13165   8.609   6.947   8.511
 4308WAT     H113166   8.591   7.005   8.432
 4308WAT     H213167   8.700   6.907   8.504
 4309WAT      O13168   6.713   3.419   5.404
 4309WAT     H113169   6.777   3.443   5.330
 4309WAT     H213170   6.638   3.486   5.405
 4310WAT      O13171   2.518   3.846   9.264
 4310WAT     H113172   2.497   3.921   9.200
 4310WAT     H213173   2.607   3.807   9.242
 4311WAT      O13174   5.578   9.513   6.160
 4311WAT     H113175   5.593   9.591   6.221
 4311WAT     H213176   5.537   9.438   6.212
 4312WAT      O13177   6.082   8.866   7.682
 4312WAT     H113178   6.163   8.852   7.626
 4312WAT     H213179   6.004   8.817   7.642
 4313WAT      O13180   1.920   7.139   0.479
 4313WAT     H113181   1.950   7.121   0.385
 4313WAT     H213182   1.821   7.154   0.480
 4314WAT      O13183   5.450   9.166   2.710
 4314WAT     H113184   5.521   9.233   2.733
 4314WAT     H213185   5.361   9.201   2.739
 4315WAT      O13186   6.542   3.129   2.135
 4315WAT     H113187   6.533   3.030   2.142
 4315WAT     H213188   6.585   3.164   2.219
 4316WAT      O13189   2.805   7.837   5.841
 4316WAT     H113190   2.743   7.890   5.899
 4316WAT     H213191   2.819   7.747   5.882
 4317WAT      O13192   2.634   1.002   4.778
 4317WAT     H113193   2.637   0.910   4.817
 4317WAT     H213194   2.695   1.006   4.699
 4318WAT      O13195   8.521   3.288   1.784
 4318WAT     H113196   8.608   3.303   1.832
 4318WAT     H213197   8.539   3.276   1.686
 4319WAT      O13198   8.027   2.125   8.054
 4319WAT     H113199   8.017   2.208   8.109
 4319WAT     H213200   7.963   2.055   8.086
 4320WAT      O13201   7.186   2.283   8.687
 4320WAT     H113202   7.270   2.287   8.742
 4320WAT     H213203   7.172   2.372   8.642
 4321WAT      O13204   7.488   2.813   6.722
 4321WAT     H113205   7.413   2.877   6.737
 4321WAT     H213206   7.475   2.733   6.780
 4322WAT      O13207   0.182   3.231   5.236
 4322WAT     H113208   0.258   3.236   5.170
 4322WAT     H213209   0.216   3.190   5.321
 4323WAT      O13210   8.741   8.187   6.944
 4323WAT     H113211   8.706   8.204   7.036
 4323WAT     H213212   8.824   8.240   6.930
 4324WAT      O13213   6.071   3.642   4.499
 4324WAT     H113214   5.998   3.623   4.433
 4324WAT     H213215   6.098   3.738   4.492
 4325WAT      O13216   7.727   6.195   7.096
 4325WAT     H113217   7.703   6.284   7.135
 4325WAT     H213218   7.771   6.139   7.166
 4326WAT      O13219   6.152   7.260   1.721
 4326WAT     H113220   6.230   7.205   1.751
 4326WAT     H213221   6.184   7.335   1.664
 4327WAT      O13222   7.936   7.197   1.478
 4327WAT     H113223   8.013   7.145   1.440
 4327WAT     H213224   7.915   7.274   1.418
 4328WAT      O13225   7.349   3.964   4.432
 4328WAT     H113226   7.297   3.999   4.510
 4328WAT     H213227   7.433   3.921   4.465
 4329WAT      O13228   8.601   9.650   1.702
 4329WAT     H113229   8.676   9.659   1.768
 4329WAT     H213230   8.614   9.566   1.649
 4330WAT      O13231   3.562   9.389   4.537
 4330WAT     H113232   3.597   9.466   4.591
 4330WAT     H213233   3.581   9.304   4.586
 4331WAT      O13234   7.393   8.197   0.631
 4331WAT     H113235   7.451   8.260   0.580
 4331WAT     H213236   7.387   8.227   0.726
 4332WAT      O13237   6.666   3.356   6.054
 4332WAT     H113238   6.597   3.415   6.097
 4332WAT     H213239   6.749   3.357   6.110
 4333WAT      O13240   4.946   2.244   6.162
 4333WAT     H113241   4.993   2.314   6.215
 4333WAT     H213242   5.004   2.163   6.153
 4334WAT      O13243   3.293   5.512   8.659
 4334WAT     H113244   3.297   5.555   8.569
 4334WAT     H213245   3.275   5.581   8.728
 4335WAT      O13246   6.557   9.737   9.802
 4335WAT     H113247   6.514   9.827   9.818
 4335WAT     H213248   6.565   9.689   9.889
 4336WAT      O13249   9.372   4.443   9.557
 4336WAT     H113250   9.449   4.455   9.619
 4336WAT     H213251   9.381   4.505   9.479
 4337WAT      O13252   2.704   6.304   3.727
 4337WAT     H113253   2.671   6.218   3.689
 4337WAT     H213254   2.669   6.380   3.672
 4338WAT      O13255   7.719   6.699   9.614
 4338WAT     H113256   7.700   6.682   9.710
 4338WAT     H213257   7.810   6.737   9.604
 4339WAT      O13258   4.051   7.623   8.544
 4339WAT     H113259   3.987   7.547   8.553
 4339WAT     H213260   4.026   7.696   8.608
 4340WAT      O13261   0.786   0.726   7.543
 4340WAT     H113262   0.693   0.702   7.571
 4340WAT     H213263   0.783   0.778   7.458
 4341WAT      O13264   1.572   1.346   0.652
 4341WAT     H113265   1.493   1.373   0.597
 4341WAT     H213266   1.656   1.361   0.600
 4342WAT      O13267   8.677   3.407   6.008
 4342WAT     H113268   8.589   3.451   6.024
 4342WAT     H213269   8.663   3.322   5.956
 4343WAT      O13270   1.094   1.745   2.114
 4343WAT     H113271   1.050   1.831   2.088
 4343WAT     H213272   1.030   1.690   2.167
 4344WAT      O13273   5.406   9.398   3.675
 4344WAT     H113274   5.451   9.415   3.587
 4344WAT     H213275   5.307   9.393   3.661
 4345WAT      O13276   1.077   5.302   9.225
 4345WAT     H113277   1.154   5.334   9.169
 4345WAT     H213278   1.111   5.274   9.315
 4346WAT      O13279   3.520   5.838   8.243
 4346WAT     H113280   3.492   5.809   8.152
 4346WAT     H213281   3.579   5.769   8.284
 4347WAT      O13282   7.960   4.635   8.790
 4347WAT     H113283   7.908   4.705   8.840
 4347WAT     H213284   7.982   4.560   8.852
 4348WAT      O13285   2.380   2.591   0.139
 4348WAT     H113286   2.456   2.644   0.101
 4348WAT     H213287   2.415   2.506   0.178
 4349WAT      O13288   4.203   3.854   3.201
 4349WAT     H113289   4.163   3.945   3.187
 4349WAT     H213290   4.135   3.794   3.242
 4350WAT      O13291   6.795   6.723   0.478
 4350WAT     H113292   6.776   6.816   0.444
 4350WAT     H213293   6.798   6.660   0.400
 4351WAT      O13294   3.188   7.950   4.923
 4351WAT     H113295   3.253   7.894   4.975
 4351WAT     H213296   3.142   8.014   4.985
 4352WAT      O13297   1.623   9.583   5.170
 4352WAT     H113298   1.547   9.520   5.187
 4352WAT     H213299   1.606   9.670   5.216
 4353WAT      O13300   4.127   3.624   1.946
 4353WAT     H113301   4.225   3.638   1.965
 4353WAT     H213302   4.092   3.550   2.004
 4354WAT      O13303   7.182   1.849   3.447
 4354WAT     H113304   7.239   1.792   3.507
 4354WAT     H213305   7.086   1.841   3.475
 4355WAT      O13306   2.236   5.562   0.977
 4355WAT     H113307   2.152   5.507   0.973
 4355WAT     H213308   2.239   5.610   1.065
 4356WAT      O13309   7.343   9.581   1.802
 4356WAT     H113310   7.378   9.668   1.767
 4356WAT     H213311   7.402   9.548   1.875
 4357WAT      O13312   9.649   9.694   9.843
 4357WAT     H113313   9.637   9.653   9.934
 4357WAT     H213314   9.708   9.635   9.788
 4358WAT      O13315   6.969   8.822   4.305
 4358WAT     H113316   6.965   8.896   4.371
 4358WAT     H213317   7.053   8.830   4.251
 4359WAT      O13318   8.634   3.451   0.459
 4359WAT     H113319   8.562   3.403   0.409
 4359WAT     H213320   8.689   3.385   0.511
 4360WAT      O13321   9.868   6.600   4.832
 4360WAT     H113322   9.777   6.625   4.801
 4360WAT     H213323   9.881   6.632   4.926
 4361WAT      O13324   9.238   3.188   5.090
 4361WAT     H113325   9.226   3.088   5.090
 4361WAT     H213326   9.323   3.211   5.136
 4362WAT      O13327   1.015   3.070   6.244
 4362WAT     H113328   1.026   3.018   6.329
 4362WAT     H213329   0.972   3.012   6.174
 4363WAT      O13330   7.413   6.496   9.866
 4363WAT     H113331   7.487   6.525   9.927
 4363WAT     H213332   7.410   6.556   9.786
 4364WAT      O13333   4.547   4.100   8.012
 4364WAT     H113334   4.615   4.155   7.963
 4364WAT     H213335   4.455   4.128   7.984
 4365WAT      O13336   2.231   4.057   6.538
 4365WAT     H113337   2.246   3.959   6.550
 4365WAT     H213338   2.284   4.090   6.460
 4366WAT      O13339   2.098   4.254   9.861
 4366WAT     H113340   2.037   4.277   9.786
 4366WAT     H213341   2.144   4.167   9.842
 4367WAT      O13342   3.533   8.107   5.931
 4367WAT     H113343   3.601   8.181   5.937
 4367WAT     H213344   3.472   8.111   6.010
 4368WAT      O13345   3.111   3.545   2.923
 4368WAT     H113346   3.122   3.457   2.968
 4368WAT     H213347   3.143   3.618   2.983
 4369WAT      O13348   6.073   1.579   5.542
 4369WAT     H113349   6.025   1.660   5.510
 4369WAT     H213350   6.028   1.544   5.625
 4370WAT      O13351   2.210   6.891   9.292
 4370WAT     H113352   2.178   6.850   9.378
 4370WAT     H213353   2.227   6.988   9.306
 4371WAT      O13354   3.321   4.954   2.068
 4371WAT     H113355   3.394   4.908   2.017
 4371WAT     H213356   3.354   4.977   2.159
 4372WAT      O13357   0.165   1.311   5.926
 4372WAT     H113358   0.111   1.291   6.008
 4372WAT     H213359   0.103   1.318   5.847
 4373WAT      O13360   7.832   3.948   7.073
 4373WAT     H113361   7.878   3.986   7.153
 4373WAT     H213362   7.784   4.021   7.024
 4374WAT      O13363   2.475   3.900   2.591
 4374WAT     H113364   2.529   3.984   2.589
 4374WAT     H213365   2.381   3.921   2.618
 4375WAT      O13366   5.737   5.880   8.243
 4375WAT     H113367   5.649   5.851   8.282
 4375WAT     H213368   5.811   5.826   8.284
 4376WAT      O13369   1.969   6.462   6.612
 4376WAT     H113370   2.060   6.449   6.653
 4376WAT     H213371   1.930   6.548   6.645
 4377WAT      O13372   1.783   2.178   3.181
 4377WAT     H113373   1.835   2.242   3.124
 4377WAT     H213374   1.808   2.085   3.157
 4378WAT      O13375   0.479   4.677   5.999
 4378WAT     H113376   0.488   4.584   6.036
 4378WAT     H213377   0.564   4.727   6.013
 4379WAT      O13378   8.950   1.210   4.688
 4379WAT     H113379   9.000   1.296   4.676
 4379WAT     H213380   8.993   1.156   4.761
 4380WAT      O13381   3.997   8.604   4.041
 4380WAT     H113382   3.954   8.572   3.957
 4380WAT     H213383   3.953   8.562   4.120
 4381WAT      O13384   0.799   7.189   7.867
 4381WAT     H113385   0.716   7.219   7.914
 4381WAT     H213386   0.875   7.248   7.892
 4382WAT      O13387   5.684   0.553   1.962
 4382WAT     H113388   5.611   0.551   2.029
 4382WAT     H213389   5.770   0.579   2.006
 4383WAT      O13390   0.360   8.154   0.255
 4383WAT     H113391   0.422   8.102   0.197
 4383WAT     H213392   0.273   8.105   0.264
 4384WAT      O13393   1.558   2.068   8.616
 4384WAT     H113394   1.492   2.130   8.574
 4384WAT     H213395   1.546   2.070   8.716
 4385WAT      O13396   5.824   2.560   2.919
 4385WAT     H113397   5.774   2.643   2.941
 4385WAT     H213398   5.792   2.484   2.976
 4386WAT      O13399   7.244   9.438   1.309
 4386WAT     H113400   7.170   9.417   1.245
 4386WAT     H213401   7.215   9.512   1.370
 4387WAT      O13402   0.957   8.329   2.373
 4387WAT     H113403   0.877   8.358   2.425
 4387WAT     H213404   1.041   8.351   2.424
 4388WAT      O13405   5.125   6.981   0.275
 4388WAT     H113406   5.202   6.926   0.305
 4388WAT     H213407   5.145   7.021   0.186
 4389WAT      O13408   3.565   1.020   7.242
 4389WAT     H113409   3.536   0.926   7.225
 4389WAT     H213410   3.582   1.066   7.154
 4390WAT      O13411   6.954   1.355   5.842
 4390WAT     H113412   7.020   1.338   5.915
 4390WAT     H213413   6.861   1.340   5.876
 4391WAT      O13414   1.660   4.539   7.372
 4391WAT     H113415   1.623   4.622   7.414
 4391WAT     H213416   1.717   4.563   7.294
 4392WAT      O13417   5.254   0.177   5.927
 4392WAT     H113418   5.266   0.260   5.872
 4392WAT     H213419   5.333   0.118   5.916
 4393WAT      O13420   3.742   6.712   7.163
 4393WAT     H113421   3.737   6.635   7.226
 4393WAT     H213422   3.788   6.683   7.078
 4394WAT      O13423   4.656   4.732   9.243
 4394WAT     H113424   4.680   4.804   9.308
 4394WAT     H213425   4.725   4.729   9.170
 4395WAT      O13426   8.730   0.851   7.846
 4395WAT     H113427   8.647   0.907   7.838
 4395WAT     H213428   8.781   0.855   7.760
 4396WAT      O13429   4.567   4.751   1.492
 4396WAT     H113430   4.618   4.748   1.406
 4396WAT     H213431   4.469   4.742   1.474
 4397WAT      O13432   7.438   4.436   5.977
 4397WAT     H113433   7.537   4.434   5.994
 4397WAT     H213434   7.420   4.490   5.895
 4398WAT      O13435   7.762   3.684   8.835
 4398WAT     H113436   7.798   3.669   8.743
 4398WAT     H213437   7.700   3.609   8.859
 4399WAT      O13438   8.541   1.333   1.812
 4399WAT     H113439   8.487   1.352   1.730
 4399WAT     H213440   8.527   1.238   1.841
 4400WAT      O13441   4.779   2.813   6.736
 4400WAT     H113442   4.816   2.756   6.808
 4400WAT     H213443   4.709   2.874   6.774
 4401WAT      O13444   5.843   8.476   3.587
 4401WAT     H113445   5.828   8.436   3.497
 4401WAT     H213446   5.878   8.406   3.649
 4402WAT      O13447   0.660   2.241   5.127
 4402WAT     H113448   0.603   2.316   5.094
 4402WAT     H213449   0.607   2.184   5.190
 4403WAT      O13450   5.337   3.098   4.885
 4403WAT     H113451   5.428   3.096   4.844
 4403WAT     H213452   5.284   3.172   4.843
 4404WAT      O13453   8.427   8.567   1.378
 4404WAT     H113454   8.333   8.580   1.347
 4404WAT     H213455   8.487   8.557   1.298
 4405WAT      O13456   9.554   1.996   3.219
 4405WAT     H113457   9.513   1.946   3.143
 4405WAT     H213458   9.494   2.072   3.245
 4406WAT      O13459   6.470   2.463   7.488
 4406WAT     H113460   6.569   2.455   7.486
 4406WAT     H213461   6.444   2.558   7.470
 4407WAT      O13462   7.084   6.981   1.381
 4407WAT     H113463   6.991   6.942   1.376
 4407WAT     H213464   7.144   6.933   1.318
 4408WAT      O13465   5.736   3.048   8.706
 4408WAT     H113466   5.745   3.101   8.621
 4408WAT     H213467   5.678   3.098   8.770
 4409WAT      O13468   2.488   7.777   7.682
 4409WAT     H113469   2.511   7.701   7.621
 4409WAT     H213470   2.560   7.788   7.750
 4410WAT      O13471   3.175   0.880   3.021
 4410WAT     H113472   3.152   0.858   3.116
 4410WAT     H213473   3.274   0.892   3.013
 4411WAT      O13474   7.087   6.054   2.863
 4411WAT     H113475   7.114   6.149   2.848
 4411WAT     H213476   7.082   6.036   2.961
 4412WAT      O13477   8.144   7.270   0.652
 4412WAT     H113478   8.217   7.325   0.692
 4412WAT     H213479   8.108   7.316   0.571
 4413WAT      O13480   1.887   9.465   4.289
 4413WAT     H113481   1.950   9.538   4.314
 4413WAT     H213482   1.928   9.409   4.217
 4414WAT      O13483   1.242   2.417   6.861
 4414WAT     H113484   1.319   2.468   6.823
 4414WAT     H213485   1.157   2.448   6.817
 4415WAT      O13486   2.166   0.343   7.703
 4415WAT     H113487   2.147   0.346   7.604
 4415WAT     H213488   2.093   0.391   7.752
 4416WAT      O13489   2.794   0.527   1.455
 4416WAT     H113490   2.717   0.469   1.426
 4416WAT     H213491   2.875   0.471   1.469
 4417WAT      O13492   0.533   0.274   5.890
 4417WAT     H113493   0.478   0.345   5.935
 4417WAT     H213494   0.591   0.316   5.821
 4418WAT      O13495   0.094   0.007   2.955
 4418WAT     H113496   0.056  -0.042   2.876
 4418WAT     H213497   0.139   0.091   2.924
 4419WAT      O13498   9.633   2.723   2.724
 4419WAT     H113499   9.641   2.823   2.727
 4419WAT     H213500   9.724   2.682   2.728
 4420WAT      O13501   9.238   1.942   0.547
 4420WAT     H113502   9.220   1.989   0.634
 4420WAT     H213503   9.267   1.848   0.565
 4421WAT      O13504   4.235   7.394   6.636
 4421WAT     H113505   4.311   7.421   6.694
 4421WAT     H213506   4.148   7.411   6.684
 4422WAT      O13507   8.626   1.918   1.113
 4422WAT     H113508   8.574   1.833   1.127
 4422WAT     H213509   8.683   1.908   1.032
 4423WAT      O13510   7.528   6.150   4.145
 4423WAT     H113511   7.565   6.156   4.052
 4423WAT     H213512   7.490   6.238   4.171
 4424WAT      O13513   3.883   5.479   9.592
 4424WAT     H113514   3.803   5.535   9.572
 4424WAT     H213515   3.966   5.528   9.567
 4425WAT      O13516   8.486   2.653   3.939
 4425WAT     H113517   8.426   2.573   3.933
 4425WAT     H213518   8.581   2.624   3.935
 4426WAT      O13519   6.745   4.711   0.466
 4426WAT     H113520   6.754   4.615   0.437
 4426WAT     H213521   6.649   4.738   0.460
 4427WAT      O13522   9.059   1.826   3.014
 4427WAT     H113523   9.093   1.733   3.000
 4427WAT     H213524   8.959   1.826   3.005
 4428WAT      O13525   6.225   4.274   4.047
 4428WAT     H113526   6.162   4.236   3.978
 4428WAT     H213527   6.250   4.368   4.021
 4429WAT      O13528   3.360   3.972   6.298
 4429WAT     H113529   3.324   4.062   6.273
 4429WAT     H213530   3.304   3.900   6.256
 4430WAT      O13531   3.407   9.298   2.440
 4430WAT     H113532   3.408   9.259   2.532
 4430WAT     H213533   3.479   9.256   2.385
 4431WAT      O13534   5.840   3.637   6.237
 4431WAT     H113535   5.801   3.572   6.303
 4431WAT     H213536   5.921   3.680   6.275
 4432WAT      O13537   1.769   1.799   0.704
 4432WAT     H113538   1.701   1.840   0.644
 4432WAT     H213539   1.843   1.759   0.650
 4433WAT      O13540   1.864   9.069   8.083
 4433WAT     H113541   1.921   9.113   8.152
 4433WAT     H213542   1.896   8.976   8.068
 4434WAT      O13543   7.151   2.492   1.851
 4434WAT     H113544   7.139   2.566   1.917
 4434WAT     H213545   7.153   2.530   1.758
 4435WAT      O13546   4.825   2.481   7.369
 4435WAT     H113547   4.812   2.383   7.383
 4435WAT     H213548   4.909   2.498   7.317
 4436WAT      O13549   8.653   2.812   1.630
 4436WAT     H113550   8.742   2.857   1.623
 4436WAT     H213551   8.586   2.861   1.574
 4437WAT      O13552   4.110   2.503   9.491
 4437WAT     H113553   4.029   2.549   9.525
 4437WAT     H213554   4.121   2.415   9.538
 4438WAT      O13555   1.461   1.320   2.950
 4438WAT     H113556   1.457   1.222   2.970
 4438WAT     H213557   1.368   1.357   2.948
 4439WAT      O13558   4.000   7.024   3.825
 4439WAT     H113559   3.993   6.962   3.747
 4439WAT     H213560   3.973   7.116   3.798
 4440WAT      O13561   1.718   7.429   8.122
 4440WAT     H113562   1.632   7.470   8.092
 4440WAT     H213563   1.794   7.490   8.101
 4441WAT      O13564   8.888   0.605   7.637
 4441WAT     H113565   8.908   0.596   7.539
 4441WAT     H213566   8.914   0.696   7.668
 4442WAT      O13567   9.045   5.153   3.832
 4442WAT     H113568   8.954   5.164   3.873
 4442WAT     H213569   9.038   5.161   3.733
 4443WAT      O13570   6.923   3.394   2.017
 4443WAT     H113571   6.903   3.471   1.957
 4443WAT     H213572   6.889   3.309   1.975
 4444WAT      O13573   7.000   2.815   9.360
 4444WAT     H113574   6.975   2.853   9.270
 4444WAT     H213575   7.095   2.783   9.357
 4445WAT      O13576   3.571   9.734   0.090
 4445WAT     H113577   3.539   9.782   0.008
 4445WAT     H213578   3.572   9.635   0.073
 4446WAT      O13579   4.558   8.277   0.174
 4446WAT     H113580   4.506   8.255   0.257
 4446WAT     H213581   4.497   8.279   0.096
 4447WAT      O13582   6.391   2.677   1.689
 4447WAT     H113583   6.341   2.742   1.746
 4447WAT     H213584   6.454   2.624   1.746
 4448WAT      O13585   4.243   2.453   6.561
 4448WAT     H113586   4.343   2.447   6.563
 4448WAT     H213587   4.214   2.539   6.602
 4449WAT      O13588   6.143   0.144   2.026
 4449WAT     H113589   6.176   0.068   2.082
 4449WAT     H213590   6.185   0.140   1.935
 4450WAT      O13591   7.922   7.417   8.127
 4450WAT     H113592   7.862   7.377   8.196
 4450WAT     H213593   7.956   7.506   8.159
 4451WAT      O13594   6.617   9.812   6.807
 4451WAT     H113595   6.573   9.746   6.746
 4451WAT     H213596   6.551   9.843   6.876
 4452WAT      O13597   7.417   5.543   0.576
 4452WAT     H113598   7.493   5.517   0.637
 4452WAT     H213599   7.453   5.594   0.498
 4453WAT      O13600   4.064   6.691   5.334
 4453WAT     H113601   4.139   6.626   5.334
 4453WAT     H213602   3.977   6.642   5.322
 4454WAT      O13603   1.651   6.094   8.875
 4454WAT     H113604   1.650   6.092   8.775
 4454WAT     H213605   1.593   6.020   8.911
 4455WAT      O13606   2.883   6.320   6.735
 4455WAT     H113607   2.960   6.345   6.794
 4455WAT     H213608   2.881   6.220   6.724
 4456WAT      O13609   9.401   3.285   8.000
 4456WAT     H113610   9.368   3.371   8.039
 4456WAT     H213611   9.323   3.228   7.973
 4457WAT      O13612   5.852   0.613   8.562
 4457WAT     H113613   5.782   0.602   8.492
 4457WAT     H213614   5.915   0.534   8.558
 4458WAT      O13615   8.174   4.078   2.683
 4458WAT     H113616   8.125   4.083   2.596
 4458WAT     H213617   8.263   4.034   2.668
 4459WAT      O13618   6.597   1.962   2.951
 4459WAT     H113619   6.654   1.967   3.033
 4459WAT     H213620   6.588   1.867   2.923
 4460WAT      O13621   2.690   1.002   3.753
 4460WAT     H113622   2.635   1.036   3.677
 4460WAT     H213623   2.729   1.078   3.803
 4461WAT      O13624   9.538   7.024   8.298
 4461WAT     H113625   9.573   6.977   8.216
 4461WAT     H213626   9.561   7.121   8.292
 4462WAT      O13627   9.878   3.340   8.958
 4462WAT     H113628   9.886   3.245   8.929
 4462WAT     H213629   9.969   3.380   8.968
 4463WAT      O13630   8.618   7.855   9.139
 4463WAT     H113631   8.613   7.920   9.063
 4463WAT     H213632   8.550   7.783   9.127
 4464WAT      O13633   1.753   3.214   0.898
 4464WAT     H113634   1.669   3.267   0.887
 4464WAT     H213635   1.745   3.154   0.978
 4465WAT      O13636   9.660   0.213   4.999
 4465WAT     H113637   9.683   0.305   5.033
 4465WAT     H213638   9.594   0.220   4.925
 4466WAT      O13639   7.625   9.283   6.796
 4466WAT     H113640   7.576   9.260   6.880
 4466WAT     H213641   7.673   9.370   6.809
 4467WAT      O13642   1.814   4.300   8.889
 4467WAT     H113643   1.823   4.227   8.821
 4467WAT     H213644   1.902   4.312   8.936
 4468WAT      O13645   0.722   3.117   3.333
 4468WAT     H113646   0.750   3.023   3.354
 4468WAT     H213647   0.781   3.154   3.262
 4469WAT      O13648   4.022   3.150   7.879
 4469WAT     H113649   4.104   3.169   7.933
 4469WAT     H213650   4.048   3.098   7.797
 4470WAT      O13651   4.172   4.030   3.789
 4470WAT     H113652   4.186   4.108   3.850
 4470WAT     H213653   4.222   3.951   3.823
 4471WAT      O13654   3.587   6.617   6.921
 4471WAT     H113655   3.685   6.635   6.929
 4471WAT     H213656   3.569   6.566   6.836
 4472WAT      O13657   5.273   5.135   5.302
 4472WAT     H113658   5.194   5.077   5.321
 4472WAT     H213659   5.254   5.228   5.333
 4473WAT      O13660   9.129   9.703   6.278
 4473WAT     H113661   9.156   9.611   6.305
 4473WAT     H213662   9.168   9.724   6.188
 4474WAT      O13663   5.714   7.064   2.976
 4474WAT     H113664   5.630   7.010   2.968
 4474WAT     H213665   5.785   7.024   2.918
 4475WAT      O13666   8.488   2.616   4.910
 4475WAT     H113667   8.425   2.584   4.981
 4475WAT     H213668   8.557   2.675   4.952
 4476WAT      O13669   9.204   9.282   5.549
 4476WAT     H113670   9.256   9.197   5.563
 4476WAT     H213671   9.121   9.262   5.498
 4477WAT      O13672   2.799   8.673   6.753
 4477WAT     H113673   2.760   8.666   6.845
 4477WAT     H213674   2.848   8.760   6.744
 4478WAT      O13675   9.408   7.470   6.311
 4478WAT     H113676   9.455   7.496   6.395
 4478WAT     H213677   9.475   7.454   6.239
 4479WAT      O13678   2.525   4.576   6.675
 4479WAT     H113679   2.507   4.542   6.767
 4479WAT     H213680   2.611   4.628   6.674
 4480WAT      O13681   1.351   6.654   6.809
 4480WAT     H113682   1.301   6.581   6.857
 4480WAT     H213683   1.430   6.616   6.762
 4481WAT      O13684   9.186   8.829   3.684
 4481WAT     H113685   9.282   8.806   3.669
 4481WAT     H213686   9.165   8.915   3.638
 4482WAT      O13687   5.320   7.019   8.509
 4482WAT     H113688   5.318   7.098   8.448
 4482WAT     H213689   5.338   6.936   8.456
 4483WAT      O13690   2.505   9.525   4.963
 4483WAT     H113691   2.591   9.536   4.913
 4483WAT     H213692   2.473   9.614   4.996
 4484WAT      O13693   2.036   7.418   8.101
 4484WAT     H113694   1.994   7.506   8.123
 4484WAT     H213695   2.025   7.355   8.178
 4485WAT      O13696   9.266   8.593   5.127
 4485WAT     H113697   9.247   8.658   5.200
 4485WAT     H213698   9.352   8.617   5.082
 4486WAT      O13699   7.302   0.595   2.597
 4486WAT     H113700   7.375   0.598   2.530
 4486WAT     H213701   7.303   0.679   2.652
 4487WAT      O13702   1.199   8.766   8.506
 4487WAT     H113703   1.131   8.726   8.567
 4487WAT     H213704   1.169   8.757   8.411
 4488WAT      O13705   7.672   3.023   9.822
 4488WAT     H113706   7.684   2.960   9.745
 4488WAT     H213707   7.619   3.103   9.791
 4489WAT      O13708   4.912   6.173   7.316
 4489WAT     H113709   4.899   6.182   7.414
 4489WAT     H213710   4.996   6.220   7.289
 4490WAT      O13711   3.532   8.145   8.258
 4490WAT     H113712   3.480   8.060   8.255
 4490WAT     H213713   3.478   8.218   8.218
 4491WAT      O13714   3.335   5.883   5.163
 4491WAT     H113715   3.317   5.819   5.088
 4491WAT     H213716   3.366   5.833   5.244
 4492WAT      O13717   0.952   1.131   1.660
 4492WAT     H113718   0.885   1.202   1.677
 4492WAT     H213719   0.944   1.098   1.566
 4493WAT      O13720   5.575   7.185   7.989
 4493WAT     H113721   5.544   7.090   7.988
 4493WAT     H213722   5.644   7.199   7.918
 4494WAT      O13723   9.402   4.543   6.307
 4494WAT     H113724   9.340   4.594   6.247
 4494WAT     H213725   9.378   4.446   6.306
 4495WAT      O13726   3.280   5.243   2.407
 4495WAT     H113727   3.375   5.219   2.421
 4495WAT     H213728   3.228   5.226   2.491
 4496WAT      O13729   7.999   9.079   5.116
 4496WAT     H113730   7.927   9.063   5.049
 4496WAT     H213731   8.011   8.998   5.173
 4497WAT      O13732   3.355   2.312   1.661
 4497WAT     H113733   3.419   2.257   1.715
 4497WAT     H213734   3.359   2.407   1.691
 4498WAT      O13735   6.899   7.352   3.158
 4498WAT     H113736   6.811   7.355   3.110
 4498WAT     H213737   6.890   7.402   3.245
 4499WAT      O13738   5.875   8.593   7.162
 4499WAT     H113739   5.930   8.648   7.225
 4499WAT     H213740   5.843   8.650   7.086
 4500WAT      O13741   9.606   1.392   8.838
 4500WAT     H113742   9.546   1.320   8.802
 4500WAT     H213743   9.594   1.397   8.937
 4501WAT      O13744   0.172   3.322   2.497
 4501WAT     H113745   0.147   3.417   2.513
 4501WAT     H213746   0.240   3.318   2.423
 4502WAT      O13747   1.880   4.599   7.168
 4502WAT     H113748   1.922   4.635   7.085
 4502WAT     H213749   1.925   4.514   7.194
 4503WAT      O13750   3.701   2.521   1.554
 4503WAT     H113751   3.682   2.587   1.481
 4503WAT     H213752   3.650   2.547   1.635
 4504WAT      O13753   2.873   7.214   1.181
 4504WAT     H113754   2.887   7.116   1.166
 4504WAT     H213755   2.905   7.239   1.272
 4505WAT      O13756   1.700   1.136   2.287
 4505WAT     H113757   1.671   1.231   2.285
 4505WAT     H213758   1.699   1.098   2.194
 4506WAT      O13759   8.698   3.018   8.798
 4506WAT     H113760   8.679   2.923   8.823
 4506WAT     H213761   8.719   3.023   8.700
 4507WAT      O13762   0.152   6.331   7.824
 4507WAT     H113763   0.135   6.266   7.751
 4507WAT     H213764   0.191   6.284   7.903
 4508WAT      O13765   9.173   3.803   4.594
 4508WAT     H113766   9.085   3.846   4.617
 4508WAT     H213767   9.161   3.704   4.587
 4509WAT      O13768   0.165   6.213   1.305
 4509WAT     H113769   0.133   6.122   1.329
 4509WAT     H213770   0.232   6.244   1.373
 4510WAT      O13771   9.848   1.390   0.986
 4510WAT     H113772   9.880   1.482   1.009
 4510WAT     H213773   9.925   1.327   0.987
 4511WAT      O13774   6.989   2.337   6.659
 4511WAT     H113775   6.996   2.268   6.587
 4511WAT     H213776   6.925   2.305   6.730
 4512WAT      O13777   0.882   7.074   7.526
 4512WAT     H113778   0.855   7.064   7.621
 4512WAT     H213779   0.831   7.149   7.484
 4513WAT      O13780   2.421   9.185   2.048
 4513WAT     H113781   2.423   9.105   1.987
 4513WAT     H213782   2.356   9.168   2.122
 4514WAT      O13783   6.531   9.811   6.030
 4514WAT     H113784   6.494   9.826   5.939
 4514WAT     H213785   6.564   9.717   6.038
 4515WAT      O13786   6.686   5.840   9.498
 4515WAT     H113787   6.622   5.918   9.496
 4515WAT     H213788   6.717   5.825   9.592
 4516WAT      O13789   9.198   8.382   0.698
 4516WAT     H113790   9.184   8.455   0.632
 4516WAT     H213791   9.157   8.297   0.663
 4517WAT      O13792   9.202   5.595   1.523
 4517WAT     H113793   9.232   5.651   1.445
 4517WAT     H213794   9.125   5.641   1.568
 4518WAT      O13795   1.016   0.440   5.950
 4518WAT     H113796   0.997   0.486   6.037
 4518WAT     H213797   0.969   0.488   5.876
 4519WAT      O13798   6.248   7.469   1.548
 4519WAT     H113799   6.216   7.542   1.609
 4519WAT     H213800   6.348   7.466   1.550
 4520WAT      O13801   4.498   4.199   0.547
 4520WAT     H113802   4.510   4.100   0.556
 4520WAT     H213803   4.447   4.219   0.463
 4521WAT      O13804   4.027   8.867   4.137
 4521WAT     H113805   4.008   8.895   4.231
 4521WAT     H213806   4.012   8.769   4.127
 4522WAT      O13807   1.174   1.229   5.942
 4522WAT     H113808   1.128   1.316   5.957
 4522WAT     H213809   1.269   1.245   5.915
 4523WAT      O13810   5.763   2.071   8.787
 4523WAT     H113811   5.726   2.162   8.770
 4523WAT     H213812   5.730   2.008   8.717
 4524WAT      O13813   2.354   7.405   6.553
 4524WAT     H113814   2.290   7.446   6.618
 4524WAT     H213815   2.345   7.306   6.555
 4525WAT      O13816   7.618   6.986   9.335
 4525WAT     H113817   7.578   6.914   9.394
 4525WAT     H213818   7.572   6.984   9.246
 4526WAT      O13819   5.356   6.602   2.956
 4526WAT     H113820   5.349   6.504   2.938
 4526WAT     H213821   5.347   6.652   2.869
 4527WAT      O13822   8.558   0.254   6.471
 4527WAT     H113823   8.646   0.242   6.424
 4527WAT     H213824   8.572   0.247   6.570
 4528WAT      O13825   5.371   4.583   1.293
 4528WAT     H113826   5.374   4.534   1.381
 4528WAT     H213827   5.386   4.680   1.309
 4529WAT      O13828   4.126   4.163   4.232
 4529WAT     H113829   4.065   4.187   4.307
 4529WAT     H213830   4.189   4.091   4.262
 4530WAT      O13831   9.437   3.473   8.501
 4530WAT     H113832   9.343   3.503   8.481
 4530WAT     H213833   9.501   3.547   8.479
 4531WAT      O13834   5.125   8.820   1.320
 4531WAT     H113835   5.221   8.846   1.328
 4531WAT     H213836   5.095   8.832   1.226
 4532WAT      O13837   0.665   6.821   1.793
 4532WAT     H113838   0.732   6.889   1.823
 4532WAT     H213839   0.645   6.758   1.868
 4533WAT      O13840   4.658   1.039   6.305
 4533WAT     H113841   4.718   1.060   6.382
 4533WAT     H213842   4.607   1.122   6.280
 4534WAT      O13843   0.055   9.105   4.567
 4534WAT     H113844   0.136   9.051   4.590
 4534WAT     H213845   0.071   9.152   4.480
 4535WAT      O13846   0.510   9.089   1.306
 4535WAT     H113847   0.422   9.137   1.306
 4535WAT     H213848   0.535   9.064   1.399
 4536WAT      O13849   0.815   8.690   7.282
 4536WAT     H113850   0.837   8.593   7.282
 4536WAT     H213851   0.900   8.743   7.293
 4537WAT      O13852   3.356   7.927   8.537
 4537WAT     H113853   3.315   7.837   8.550
 4537WAT     H213854   3.288   7.989   8.497
 4538WAT      O13855   9.591   7.650   9.778
 4538WAT     H113856   9.682   7.661   9.816
 4538WAT     H213857   9.523   7.674   9.847
 4539WAT      O13858   4.223   5.615   5.801
 4539WAT     H113859   4.189   5.582   5.713
 4539WAT     H213860   4.173   5.570   5.875
 4540WAT      O13861   3.414   5.482   7.636
 4540WAT     H113862   3.357   5.474   7.717
 4540WAT     H213863   3.356   5.477   7.554
 4541WAT      O13864   6.448   2.916   4.061
 4541WAT     H113865   6.521   2.977   4.031
 4541WAT     H213866   6.480   2.821   4.058
 4542WAT      O13867   9.717   2.967   2.373
 4542WAT     H113868   9.799   3.023   2.363
 4542WAT     H213869   9.696   2.955   2.470
 4543WAT      O13870   6.745   0.875   8.698
 4543WAT     H113871   6.786   0.947   8.643
 4543WAT     H213872   6.817   0.814   8.732
 4544WAT      O13873   0.993   2.811   9.229
 4544WAT     H113874   0.960   2.892   9.182
 4544WAT     H213875   0.925   2.738   9.223
 4545WAT      O13876   4.826   4.446   0.180
 4545WAT     H113877   4.760   4.406   0.243
 4545WAT     H213878   4.780   4.514   0.122
 4546WAT      O13879   7.038   9.368   4.145
 4546WAT     H113880   7.052   9.310   4.225
 4546WAT     H213881   7.106   9.441   4.145
 4547WAT      O13882   5.965   3.281   4.463
 4547WAT     H113883   5.886   3.338   4.484
 4547WAT     H213884   5.934   3.187   4.447
 4548WAT      O13885   3.000   3.514   3.407
 4548WAT     H113886   3.065   3.462   3.352
 4548WAT     H213887   2.909   3.472   3.399
 4549WAT      O13888   1.636   7.545   0.502
 4549WAT     H113889   1.566   7.608   0.469
 4549WAT     H213890   1.597   7.487   0.574
 4550WAT      O13891   2.368   2.228   6.550
 4550WAT     H113892   2.340   2.321   6.575
 4550WAT     H213893   2.455   2.207   6.594
 4551WAT      O13894   0.407   8.986   8.067
 4551WAT     H113895   0.324   8.959   8.116
 4551WAT     H213896   0.443   9.071   8.105
 4552WAT      O13897   5.355   2.266   4.695
 4552WAT     H113898   5.404   2.302   4.616
 4552WAT     H213899   5.272   2.320   4.710
 4553WAT      O13900   7.669   5.706   7.615
 4553WAT     H113901   7.661   5.790   7.669
 4553WAT     H213902   7.720   5.637   7.668
 4554WAT      O13903   3.456   2.147   4.457
 4554WAT     H113904   3.510   2.231   4.467
 4554WAT     H213905   3.502   2.072   4.506
 4555WAT      O13906   8.229   3.276   0.128
 4555WAT     H113907   8.261   3.181   0.118
 4555WAT     H213908   8.129   3.278   0.124
 4556WAT      O13909   9.475   4.506   6.636
 4556WAT     H113910   9.535   4.552   6.570
 4556WAT     H213911   9.382   4.542   6.627
 4557WAT      O13912   5.096   7.313   8.004
 4557WAT     H113913   5.049   7.353   7.925
 4557WAT     H213914   5.152   7.235   7.973
 4558WAT      O13915   1.287   5.347   7.927
 4558WAT     H113916   1.385   5.363   7.911
 4558WAT     H213917   1.256   5.270   7.871
 4559WAT      O13918   1.700   9.424   7.238
 4559WAT     H113919   1.694   9.416   7.338
 4559WAT     H213920   1.638   9.496   7.207
 4560WAT      O13921   0.629   0.707   6.127
 4560WAT     H113922   0.568   0.755   6.189
 4560WAT     H213923   0.587   0.620   6.098
 4561WAT      O13924   5.946   4.581   2.539
 4561WAT     H113925   5.982   4.573   2.633
 4561WAT     H213926   5.850   4.608   2.542
 4562WAT      O13927   4.707   8.766   6.277
 4562WAT     H113928   4.802   8.744   6.297
 4562WAT     H213929   4.667   8.817   6.353
 4563WAT      O13930   1.204   4.760   4.419
 4563WAT     H113931   1.136   4.694   4.449
 4563WAT     H213932   1.168   4.853   4.429
 4564WAT      O13933   3.400   1.805   6.882
 4564WAT     H113934   3.302   1.795   6.870
 4564WAT     H213935   3.427   1.771   6.972
 4565WAT      O13936   8.267   2.743   9.064
 4565WAT     H113937   8.195   2.812   9.072
 4565WAT     H213938   8.299   2.739   8.970
 4566WAT      O13939   1.494   6.411   0.529
 4566WAT     H113940   1.451   6.379   0.613
 4566WAT     H213941   1.562   6.345   0.498
 4567WAT      O13942   9.203   3.582   9.052
 4567WAT     H113943   9.112   3.599   9.016
 4567WAT     H213944   9.242   3.502   9.006
 4568WAT      O13945   7.642   5.754   8.920
 4568WAT     H113946   7.636   5.732   9.017
 4568WAT     H213947   7.626   5.852   8.906
 4569WAT      O13948   2.906   4.497   3.350
 4569WAT     H113949   2.848   4.515   3.429
 4569WAT     H213950   2.992   4.546   3.359
 4570WAT      O13951   4.735   1.944   9.883
 4570WAT     H113952   4.828   1.968   9.854
 4570WAT     H213953   4.719   1.847   9.864
 4571WAT      O13954   7.475   0.964   5.630
 4571WAT     H113955   7.381   0.929   5.625
 4571WAT     H213956   7.530   0.904   5.688
 4572WAT      O13957   5.619   2.458   0.204
 4572WAT     H113958   5.623   2.374   0.149
 4572WAT     H213959   5.711   2.497   0.212
 4573WAT      O13960   1.098   6.577   1.458
 4573WAT     H113961   1.197   6.562   1.461
 4573WAT     H213962   1.076   6.635   1.380
 4574WAT      O13963   3.003   6.145   0.517
 4574WAT     H113964   3.075   6.104   0.572
 4574WAT     H213965   2.986   6.088   0.436
 4575WAT      O13966   8.648   5.820   0.449
 4575WAT     H113967   8.602   5.900   0.413
 4575WAT     H213968   8.746   5.825   0.427
 4576WAT      O13969   9.041   4.161   9.058
 4576WAT     H113970   9.120   4.166   9.118
 4576WAT     H213971   9.004   4.253   9.042
 4577WAT      O13972   4.865   8.709   3.226
 4577WAT     H113973   4.783   8.716   3.168
 4577WAT     H213974   4.844   8.656   3.308
 4578WAT      O13975   8.017   6.082   5.774
 4578WAT     H113976   7.971   6.099   5.861
 4578WAT     H213977   7.972   6.133   5.701
 4579WAT      O13978   4.249   3.103   6.520
 4579WAT     H113979   4.237   3.139   6.428
 4579WAT     H213980   4.295   3.171   6.577
 4580WAT      O13981   9.759   1.283   8.388
 4580WAT     H113982   9.784   1.367   8.436
 4580WAT     H213983   9.839   1.247   8.340
 4581WAT      O13984   7.052   0.877   5.273
 4581WAT     H113985   7.025   0.938   5.348
 4581WAT     H213986   7.014   0.910   5.187
 4582WAT      O13987   4.994   8.971   5.494
 4582WAT     H113988   5.003   8.921   5.580
 4582WAT     H213989   4.980   9.068   5.513
 4583WAT      O13990   5.764   1.595   5.351
 4583WAT     H113991   5.783   1.607   5.253
 4583WAT     H213992   5.822   1.656   5.404
 4584WAT      O13993   1.279   9.407   1.580
 4584WAT     H113994   1.237   9.492   1.610
 4584WAT     H213995   1.231   9.373   1.498
 4585WAT      O13996   4.930   6.926   5.490
 4585WAT     H113997   4.996   6.862   5.449
 4585WAT     H213998   4.852   6.875   5.525
 4586WAT      O13999   7.564   1.124   9.114
 4586WAT     H114000   7.637   1.066   9.151
 4586WAT     H214001   7.490   1.066   9.079
 4587WAT      O14002   3.555   4.083   2.215
 4587WAT     H114003   3.476   4.127   2.258
 4587WAT     H214004   3.608   4.151   2.165
 4588WAT      O14005   0.436   8.881   5.857
 4588WAT     H114006   0.461   8.831   5.774
 4588WAT     H214007   0.482   8.840   5.936
 4589WAT      O14008   1.337   1.303   5.495
 4589WAT     H114009   1.408   1.232   5.487
 4589WAT     H214010   1.380   1.393   5.488
 4590WAT      O14011   2.034   9.264   3.740
 4590WAT     H114012   2.080   9.213   3.667
 4590WAT     H214013   2.044   9.362   3.724
 4591WAT      O14014   7.499   7.119   5.844
 4591WAT     H114015   7.593   7.128   5.877
 4591WAT     H214016   7.436   7.156   5.912
 4592WAT      O14017   6.453   5.522   0.277
 4592WAT     H114018   6.447   5.444   0.216
 4592WAT     H214019   6.368   5.530   0.329
 4593WAT      O14020   5.329   9.477   0.732
 4593WAT     H114021   5.258   9.429   0.784
 4593WAT     H214022   5.319   9.455   0.635
 4594WAT      O14023   1.057   3.486   9.093
 4594WAT     H114024   0.965   3.446   9.102
 4594WAT     H214025   1.125   3.413   9.092
 4595WAT      O14026   2.227   4.282   2.946
 4595WAT     H114027   2.316   4.310   2.981
 4595WAT     H214028   2.158   4.292   3.018
 4596WAT      O14029   3.255   2.356   7.962
 4596WAT     H114030   3.252   2.271   8.016
 4596WAT     H214031   3.282   2.432   8.021
 4597WAT      O14032   7.247   2.658   5.767
 4597WAT     H114033   7.322   2.643   5.832
 4597WAT     H214034   7.284   2.662   5.674
 4598WAT      O14035   3.136   1.708   5.734
 4598WAT     H114036   3.201   1.784   5.730
 4598WAT     H214037   3.081   1.708   5.650
 4599WAT      O14038   6.685   3.370   3.480
 4599WAT     H114039   6.772   3.403   3.442
 4599WAT     H214040   6.613   3.435   3.461
 4600WAT      O14041   5.335   7.442   8.560
 4600WAT     H114042   5.336   7.380   8.482
 4600WAT     H214043   5.429   7.455   8.593
 4601WAT      O14044   0.539   6.520   0.146
 4601WAT     H114045   0.505   6.463   0.071
 4601WAT     H214046   0.603   6.468   0.202
 4602WAT      O14047   2.983   8.565   3.025
 4602WAT     H114048   2.915   8.616   2.973
 4602WAT     H214049   3.022   8.493   2.966
 4603WAT      O14050   3.881   2.256   7.899
 4603WAT     H114051   3.898   2.351   7.875
 4603WAT     H214052   3.802   2.222   7.848
 4604WAT      O14053   6.911   7.117   0.175
 4604WAT     H114054   6.816   7.119   0.142
 4604WAT     H214055   6.963   7.050   0.121
 4605WAT      O14056   4.030   9.608   7.743
 4605WAT     H114057   4.076   9.692   7.772
 4605WAT     H214058   3.937   9.630   7.713
 4606WAT      O14059   5.758   4.172   7.658
 4606WAT     H114060   5.726   4.103   7.722
 4606WAT     H214061   5.759   4.135   7.566
 4607WAT      O14062   8.560   7.027   6.892
 4607WAT     H114063   8.556   7.061   6.985
 4607WAT     H214064   8.564   7.104   6.828
 4608WAT      O14065   5.647   7.561   6.050
 4608WAT     H114066   5.613   7.473   6.081
 4608WAT     H214067   5.645   7.565   5.950
 4609WAT      O14068   3.581   7.317   6.150
 4609WAT     H114069   3.676   7.288   6.143
 4609WAT     H214070   3.576   7.403   6.201
 4610WAT      O14071   2.052   2.457   8.976
 4610WAT     H114072   2.067   2.452   8.877
 4610WAT     H214073   2.023   2.367   9.009
 4611WAT      O14074   7.022   3.004   2.114
 4611WAT     H114075   7.082   3.017   2.035
 4611WAT     H214076   6.927   2.995   2.084
 4612WAT      O14077   1.048   4.553   3.817
 4612WAT     H114078   1.103   4.555   3.900
 4612WAT     H214079   0.957   4.590   3.838
 4613WAT      O14080   9.877   8.202   7.775
 4613WAT     H114081   9.940   8.165   7.707
 4613WAT     H214082   9.880   8.146   7.858
 4614WAT      O14083   0.905   9.149   7.647
 4614WAT     H114084   0.885   9.246   7.629
 4614WAT     H214085   0.841   9.093   7.595
 4615WAT      O14086   2.773   7.958   6.444
 4615WAT     H114087   2.757   8.044   6.397
 4615WAT     H214088   2.826   7.974   6.527
 4616WAT      O14089   3.639   2.407   6.131
 4616WAT     H114090   3.739   2.400   6.129
 4616WAT     H214091   3.605   2.432   6.040
 4617WAT      O14092   3.521   4.772   8.001
 4617WAT     H114093   3.492   4.862   8.032
 4617WAT     H214094   3.605   4.746   8.048
 4618WAT      O14095   8.140   6.915   7.022
 4618WAT     H114096   8.062   6.888   7.080
 4618WAT     H214097   8.136   6.866   6.935
 4619WAT      O14098   2.262   8.283   4.928
 4619WAT     H114099   2.299   8.195   4.898
 4619WAT     H214100   2.310   8.314   5.010
 4620WAT      O14101   4.372   3.246   6.732
 4620WAT     H114102   4.462   3.220   6.767
 4620WAT     H214103   4.324   3.300   6.801
 4621WAT      O14104   9.187   8.258   2.902
 4621WAT     H114105   9.200   8.166   2.864
 4621WAT     H214106   9.208   8.326   2.832
 4622WAT      O14107   2.768   2.632   2.433
 4622WAT     H114108   2.725   2.723   2.438
 4622WAT     H214109   2.831   2.630   2.355
 4623WAT      O14110   1.244   6.603   3.740
 4623WAT     H114111   1.177   6.535   3.769
 4623WAT     H214112   1.213   6.647   3.655
 4624WAT      O14113   7.853   1.212   9.885
 4624WAT     H114114   7.912   1.246   9.812
 4624WAT     H214115   7.775   1.164   9.844
 4625WAT      O14116   7.683   6.036   6.235
 4625WAT     H114117   7.590   6.073   6.225
 4625WAT     H214118   7.677   5.940   6.264
 4626WAT      O14119   6.396   9.297   8.375
 4626WAT     H114120   6.471   9.305   8.311
 4626WAT     H214121   6.328   9.232   8.339
 4627WAT      O14122   8.205   9.311   6.748
 4627WAT     H114123   8.142   9.242   6.713
 4627WAT     H214124   8.227   9.291   6.844
 4628WAT      O14125   1.060   6.908   6.433
 4628WAT     H114126   1.009   6.929   6.517
 4628WAT     H214127   1.062   6.809   6.420
 4629WAT      O14128   4.655   4.684   8.874
 4629WAT     H114129   4.677   4.611   8.810
 4629WAT     H214130   4.594   4.749   8.829
 4630WAT      O14131   4.550   6.696   9.510
 4630WAT     H114132   4.504   6.686   9.422
 4630WAT     H214133   4.648   6.677   9.499
 4631WAT      O14134   4.253   6.703   2.836
 4631WAT     H114135   4.262   6.623   2.778
 4631WAT     H214136   4.243   6.675   2.932
 4632WAT      O14137   6.394   0.891   9.503
 4632WAT     H114138   6.366   0.841   9.422
 4632WAT     H214139   6.466   0.840   9.551
 4633WAT      O14140   5.760   8.229   1.544
 4633WAT     H114141   5.703   8.309   1.523
 4633WAT     H214142   5.848   8.260   1.580
 4634WAT      O14143   4.623   2.710   1.111
 4634WAT     H114144   4.589   2.738   1.021
 4634WAT     H214145   4.721   2.691   1.105
 4635WAT      O14146   2.876   8.418   5.349
 4635WAT     H114147   2.884   8.349   5.421
 4635WAT     H214148   2.967   8.452   5.325
 4636WAT      O14149   6.303   1.075   7.361
 4636WAT     H114150   6.336   1.170   7.366
 4636WAT     H214151   6.380   1.015   7.337
 4637WAT      O14152   8.397   4.305   5.025
 4637WAT     H114153   8.373   4.401   5.005
 4637WAT     H214154   8.379   4.249   4.945
 4638WAT      O14155   9.838   0.073   2.348
 4638WAT     H114156   9.755   0.118   2.382
 4638WAT     H214157   9.900   0.143   2.310
 4639WAT      O14158   4.502   3.585   1.419
 4639WAT     H114159   4.421   3.643   1.411
 4639WAT     H214160   4.558   3.595   1.337
 4640WAT      O14161   3.965   1.593   7.729
 4640WAT     H114162   4.060   1.563   7.722
 4640WAT     H214163   3.907   1.516   7.754
 4641WAT      O14164   9.880   1.885   0.014
 4641WAT     H114165   9.965   1.846  -0.022
 4641WAT     H214166   9.898   1.975   0.053
 4642WAT      O14167   5.348   2.878   9.522
 4642WAT     H114168   5.428   2.857   9.578
 4642WAT     H214169   5.265   2.874   9.578
 4643WAT      O14170   1.582   8.835   0.220
 4643WAT     H114171   1.506   8.770   0.217
 4643WAT     H214172   1.615   8.843   0.313
 4644WAT      O14173   6.194   0.102   2.409
 4644WAT     H114174   6.177   0.008   2.438
 4644WAT     H214175   6.109   0.153   2.411
 4645WAT      O14176   2.027   7.408   0.154
 4645WAT     H114177   1.945   7.418   0.210
 4645WAT     H214178   2.055   7.312   0.153
 4646WAT      O14179   2.209   6.813   6.054
 4646WAT     H114180   2.117   6.814   6.093
 4646WAT     H214181   2.265   6.881   6.101
 4647WAT      O14182   2.890   5.080   1.032
 4647WAT     H114183   2.919   5.091   1.127
 4647WAT     H214184   2.965   5.041   0.979
 4648WAT      O14185   5.423   0.137   4.190
 4648WAT     H114186   5.384   0.073   4.255
 4648WAT     H214187   5.409   0.231   4.224
 4649WAT      O14188   0.653   6.498   2.947
 4649WAT     H114189   0.603   6.425   2.995
 4649WAT     H214190   0.602   6.584   2.955
 4650WAT      O14191   5.460   5.524   8.203
 4650WAT     H114192   5.363   5.541   8.189
 4650WAT     H214193   5.509   5.535   8.116
 4651WAT      O14194   1.104   4.124   5.087
 4651WAT     H114195   1.011   4.118   5.122
 4651WAT     H214196   1.103   4.155   4.992
 4652WAT      O14197   2.737   0.440   5.973
 4652WAT     H114198   2.803   0.393   5.914
 4652WAT     H214199   2.644   0.420   5.942
 4653WAT      O14200   9.419   3.831   2.375
 4653WAT     H114201   9.416   3.803   2.471
 4653WAT     H214202   9.499   3.888   2.359
 4654WAT      O14203   7.224   1.600   0.048
 4654WAT     H114204   7.141   1.603  -0.008
 4654WAT     H214205   7.286   1.673   0.021
 4655WAT      O14206   2.910   5.086   4.915
 4655WAT     H114207   2.935   4.991   4.894
 4655WAT     H214208   2.914   5.100   5.014
 4656WAT      O14209   9.809   1.187   2.271
 4656WAT     H114210   9.721   1.221   2.304
 4656WAT     H214211   9.794   1.122   2.196
 4657WAT      O14212   0.720   8.570   8.451
 4657WAT     H114213   0.783   8.624   8.395
 4657WAT     H214214   0.717   8.609   8.544
 4658WAT      O14215   7.706   1.786   6.330
 4658WAT     H114216   7.635   1.738   6.382
 4658WAT     H214217   7.796   1.751   6.356
 4659WAT      O14218   8.581   1.776   3.373
 4659WAT     H114219   8.661   1.750   3.319
 4659WAT     H214220   8.609   1.796   3.467
 4660WAT      O14221   7.248   1.239   3.658
 4660WAT     H114222   7.317   1.309   3.641
 4660WAT     H214223   7.167   1.257   3.601
 4661WAT      O14224   0.166   5.693   0.888
 4661WAT     H114225   0.240   5.728   0.831
 4661WAT     H214226   0.125   5.613   0.843
 4662WAT      O14227   7.615   1.830   1.720
 4662WAT     H114228   7.687   1.851   1.653
 4662WAT     H214229   7.647   1.757   1.780
 4663WAT      O14230   2.808   8.075   1.654
 4663WAT     H114231   2.773   7.983   1.669
 4663WAT     H214232   2.738   8.130   1.606
 4664WAT      O14233   3.867   0.429   8.413
 4664WAT     H114234   3.866   0.373   8.496
 4664WAT     H214235   3.785   0.486   8.410
 4665WAT      O14236   2.375   9.702   5.567
 4665WAT     H114237   2.292   9.659   5.603
 4665WAT     H214238   2.365   9.720   5.470
 4666WAT      O14239   8.168   7.173   6.974
 4666WAT     H114240   8.135   7.223   7.054
 4666WAT     H214241   8.175   7.076   6.996
 4667WAT      O14242   4.879   0.326   9.118
 4667WAT     H114243   4.938   0.288   9.046
 4667WAT     H214244   4.919   0.411   9.152
 4668WAT      O14245   1.718   2.089   2.153
 4668WAT     H114246   1.727   2.006   2.098
 4668WAT     H214247   1.720   2.169   2.094
 4669WAT      O14248   1.861   7.832   3.741
 4669WAT     H114249   1.806   7.818   3.824
 4669WAT     H214250   1.857   7.928   3.714
 4670WAT      O14251   7.539   6.857   7.317
 4670WAT     H114252   7.596   6.939   7.329
 4670WAT     H214253   7.513   6.849   7.221
 4671WAT      O14254   6.694   9.095   5.772
 4671WAT     H114255   6.765   9.149   5.818
 4671WAT     H214256   6.733   9.008   5.741
 4672WAT      O14257   9.270   2.834   6.162
 4672WAT     H114258   9.249   2.737   6.174
 4672WAT     H214259   9.191   2.889   6.190
 4673WAT      O14260   3.583   6.978   2.464
 4673WAT     H114261   3.590   7.016   2.372
 4673WAT     H214262   3.509   7.024   2.513
 4674WAT      O14263   1.092   2.202   3.267
 4674WAT     H114264   1.172   2.171   3.215
 4674WAT     H214265   1.069   2.133   3.336
 4675WAT      O14266   0.760   5.980   1.270
 4675WAT     H114267   0.833   5.953   1.333
 4675WAT     H214268   0.689   6.029   1.320
 4676WAT      O14269   6.849   2.320   2.232
 4676WAT     H114270   6.774   2.338   2.169
 4676WAT     H214271   6.845   2.385   2.308
 4677WAT      O14272   9.796   6.901   7.813
 4677WAT     H114273   9.751   6.973   7.760
 4677WAT     H214274   9.869   6.860   7.757
 4678WAT      O14275   1.705   1.742   7.770
 4678WAT     H114276   1.693   1.676   7.696
 4678WAT     H214277   1.792   1.789   7.758
 4679WAT      O14278   3.757   5.537   6.216
 4679WAT     H114279   3.718   5.452   6.252
 4679WAT     H214280   3.849   5.549   6.252
 4680WAT      O14281   7.014   1.994   0.410
 4680WAT     H114282   6.983   2.061   0.342
 4680WAT     H214283   7.027   1.905   0.366
 4681WAT      O14284   4.973   1.264   7.796
 4681WAT     H114285   5.069   1.292   7.801
 4681WAT     H214286   4.967   1.165   7.808
 4682WAT      O14287   7.191   1.079   3.854
 4682WAT     H114288   7.209   1.144   3.780
 4682WAT     H214289   7.157   0.993   3.816
 4683WAT      O14290   6.768   6.356   0.691
 4683WAT     H114291   6.814   6.358   0.780
 4683WAT     H214292   6.790   6.271   0.644
 4684WAT      O14293   0.754   0.507   0.475
 4684WAT     H114294   0.683   0.437   0.463
 4684WAT     H214295   0.756   0.567   0.395
 4685WAT      O14296   5.040   9.315   8.073
 4685WAT     H114297   5.122   9.266   8.103
 4685WAT     H214298   4.968   9.306   8.142
 4686WAT      O14299   2.841   4.402   9.834
 4686WAT     H114300   2.786   4.348   9.898
 4686WAT     H214301   2.905   4.459   9.886
 4687WAT      O14302   3.083   5.687   9.746
 4687WAT     H114303   3.024   5.724   9.674
 4687WAT     H214304   3.064   5.590   9.758
 4688WAT      O14305   1.447   2.602   7.659
 4688WAT     H114306   1.540   2.571   7.681
 4688WAT     H214307   1.381   2.539   7.699
 4689WAT      O14308   1.078   5.511   4.562
 4689WAT     H114309   0.981   5.520   4.584
 4689WAT     H214310   1.114   5.426   4.602
 4690WAT      O14311   4.538   7.154   5.877
 4690WAT     H114312   4.634   7.149   5.851
 4690WAT     H214313   4.490   7.073   5.842
 4691WAT      O14314   1.433   8.859   9.483
 4691WAT     H114315   1.362   8.865   9.413
 4691WAT     H214316   1.413   8.783   9.544
 4692WAT      O14317   8.297   0.619   0.394
 4692WAT     H114318   8.337   0.668   0.471
 4692WAT     H214319   8.218   0.670   0.360
 4693WAT      O14320   8.576   8.124   6.703
 4693WAT     H114321   8.635   8.061   6.653
 4693WAT     H214322   8.624   8.157   6.784
 4694WAT      O14323   7.813   2.437   2.132
 4694WAT     H114324   7.758   2.509   2.175
 4694WAT     H214325   7.883   2.479   2.075
 4695WAT      O14326   8.925   3.289   6.083
 4695WAT     H114327   8.842   3.340   6.103
 4695WAT     H214328   8.908   3.191   6.095
 4696WAT      O14329   3.281   5.681   8.404
 4696WAT     H114330   3.253   5.719   8.316
 4696WAT     H214331   3.287   5.754   8.472
 4697WAT      O14332   8.107   6.105   6.227
 4697WAT     H114333   8.039   6.088   6.157
 4697WAT     H214334   8.156   6.021   6.248
 4698WAT      O14335   1.654   6.427   6.147
 4698WAT     H114336   1.672   6.518   6.109
 4698WAT     H214337   1.566   6.393   6.112
 4699WAT      O14338   1.509   6.492   7.961
 4699WAT     H114339   1.458   6.576   7.981
 4699WAT     H214340   1.561   6.504   7.877
 4700WAT      O14341   7.403   7.588   8.052
 4700WAT     H114342   7.469   7.527   8.009
 4700WAT     H214343   7.419   7.592   8.150
 4701WAT      O14344   7.681   7.410   0.791
 4701WAT     H114345   7.595   7.446   0.829
 4701WAT     H214346   7.725   7.481   0.736
 4702WAT      O14347   7.274   7.402   7.470
 4702WAT     H114348   7.185   7.443   7.490
 4702WAT     H214349   7.286   7.397   7.370
 4703WAT      O14350   7.157   1.185   6.284
 4703WAT     H114351   7.253   1.210   6.286
 4703WAT     H214352   7.115   1.203   6.374
 4704WAT      O14353   3.767   9.367   3.132
 4704WAT     H114354   3.696   9.306   3.098
 4704WAT     H214355   3.819   9.321   3.205
 4705WAT      O14356   2.425   7.662   5.104
 4705WAT     H114357   2.367   7.743   5.114
 4705WAT     H214358   2.521   7.689   5.109
 4706WAT      O14359   2.978   3.066   7.942
 4706WAT     H114360   3.064   3.015   7.932
 4706WAT     H214361   2.989   3.137   8.011
 4707WAT      O14362   3.417   0.855   1.084
 4707WAT     H114363   3.347   0.784   1.078
 4707WAT     H214364   3.426   0.886   1.179
 4708WAT      O14365   9.426   5.663   2.243
 4708WAT     H114366   9.358   5.590   2.251
 4708WAT     H214367   9.456   5.670   2.148
 4709WAT      O14368   0.698   0.413   1.236
 4709WAT     H114369   0.745   0.498   1.209
 4709WAT     H214370   0.616   0.435   1.288
 4710WAT      O14371   8.241   9.552   6.586
 4710WAT     H114372   8.261   9.627   6.649
 4710WAT     H214373   8.189   9.481   6.633
 4711WAT      O14374   1.183   3.730   8.572
 4711WAT     H114375   1.174   3.734   8.672
 4711WAT     H214376   1.113   3.787   8.530
 4712WAT      O14377   8.408   3.126   8.116
 4712WAT     H114378   8.479   3.184   8.156
 4712WAT     H214379   8.324   3.178   8.107
 4713WAT      O14380   4.854   4.622   7.490
 4713WAT     H114381   4.791   4.695   7.517
 4713WAT     H214382   4.814   4.534   7.514
 4714WAT      O14383   8.493   2.374   5.349
 4714WAT     H114384   8.573   2.358   5.292
 4714WAT     H214385   8.518   2.432   5.427
 4715WAT      O14386   7.982   8.390   4.970
 4715WAT     H114387   7.974   8.418   5.066
 4715WAT     H214388   7.961   8.292   4.962
 4716WAT      O14389   2.643   7.619   4.397
 4716WAT     H114390   2.562   7.617   4.455
 4716WAT     H214391   2.700   7.697   4.424
 4717WAT      O14392   2.719   0.948   5.599
 4717WAT     H114393   2.652   0.877   5.619
 4717WAT     H214394   2.694   1.032   5.647
 4718WAT      O14395   3.879   3.143   9.166
 4718WAT     H114396   3.965   3.092   9.168
 4718WAT     H214397   3.868   3.194   9.251
 4719WAT      O14398   6.236   7.335   1.314
 4719WAT     H114399   6.273   7.388   1.390
 4719WAT     H214400   6.136   7.342   1.314
 4720WAT      O14401   8.279   1.471   2.941
 4720WAT     H114402   8.219   1.551   2.943
 4720WAT     H214403   8.356   1.489   2.880
 4721WAT      O14404   0.805   3.701   8.424
 4721WAT     H114405   0.873   3.770   8.449
 4721WAT     H214406   0.777   3.651   8.506
 4722WAT      O14407   6.158   3.671   6.316
 4722WAT     H114408   6.202   3.753   6.282
 4722WAT     H214409   6.177   3.594   6.255
 4723WAT      O14410   7.358   4.177   4.182
 4723WAT     H114411   7.373   4.098   4.241
 4723WAT     H214412   7.326   4.254   4.236
 4724WAT      O14413   4.426   6.910   2.849
 4724WAT     H114414   4.356   6.839   2.842
 4724WAT     H214415   4.491   6.901   2.774
 4725WAT      O14416   8.805   5.275   3.310
 4725WAT     H114417   8.765   5.359   3.272
 4725WAT     H214418   8.804   5.280   3.410
 4726WAT      O14419   3.421   1.659   4.398
 4726WAT     H114420   3.495   1.719   4.367
 4726WAT     H214421   3.457   1.594   4.465
 4727WAT      O14422   2.565   1.048   7.458
 4727WAT     H114423   2.580   0.959   7.499
 4727WAT     H214424   2.622   1.116   7.505
 4728WAT      O14425   1.797   2.758   1.500
 4728WAT     H114426   1.887   2.726   1.529
 4728WAT     H214427   1.797   2.773   1.401
 4729WAT      O14428   4.275   5.862   5.314
 4729WAT     H114429   4.205   5.912   5.365
 4729WAT     H214430   4.364   5.906   5.329
 4730WAT      O14431   8.857   0.875   1.729
 4730WAT     H114432   8.951   0.908   1.725
 4730WAT     H214433   8.833   0.854   1.824
 4731WAT      O14434   0.439   6.229   2.803
 4731WAT     H114435   0.413   6.264   2.713
 4731WAT     H214436   0.528   6.184   2.798
 4732WAT      O14437   0.581   9.409   5.447
 4732WAT     H114438   0.623   9.381   5.360
 4732WAT     H214439   0.562   9.328   5.503
 4733WAT      O14440   9.442   1.448   7.025
 4733WAT     H114441   9.469   1.420   7.118
 4733WAT     H214442   9.411   1.367   6.975
 4734WAT      O14443   1.798   6.549   2.362
 4734WAT     H114444   1.746   6.511   2.285
 4734WAT     H214445   1.880   6.494   2.376
 4735WAT      O14446   4.982   2.444   5.861
 4735WAT     H114447   4.972   2.360   5.914
 4735WAT     H214448   4.976   2.423   5.763
 4736WAT      O14449   5.709   0.470   5.186
 4736WAT     H114450   5.664   0.382   5.173
 4736WAT     H214451   5.760   0.469   5.272
 4737WAT      O14452   5.134   0.623   8.502
 4737WAT     H114453   5.042   0.604   8.538
 4737WAT     H214454   5.140   0.588   8.409
 4738WAT      O14455   6.538   5.421   7.970
 4738WAT     H114456   6.502   5.500   7.920
 4738WAT     H214457   6.509   5.337   7.924
 4739WAT      O14458   1.092   2.751   9.742
 4739WAT     H114459   1.174   2.809   9.740
 4739WAT     H214460   1.010   2.808   9.738
 4740WAT      O14461   5.817   2.742   3.623
 4740WAT     H114462   5.786   2.653   3.589
 4740WAT     H214463   5.878   2.728   3.701
 4741WAT      O14464   6.742   1.631   3.672
 4741WAT     H114465   6.782   1.687   3.599
 4741WAT     H214466   6.655   1.593   3.642
 4742WAT      O14467   1.350   5.598   5.962
 4742WAT     H114468   1.405   5.518   5.987
 4742WAT     H214469   1.253   5.578   5.977
 4743WAT      O14470   7.801   7.220   0.940
 4743WAT     H114471   7.754   7.288   0.883
 4743WAT     H214472   7.883   7.261   0.980
 4744WAT      O14473   9.814   3.349   3.205
 4744WAT     H114474   9.817   3.254   3.236
 4744WAT     H214475   9.720   3.384   3.212
 4745WAT      O14476   9.069   0.385   1.822
 4745WAT     H114477   9.099   0.422   1.910
 4745WAT     H214478   9.089   0.287   1.819
 4746WAT      O14479   7.320   4.995   3.222
 4746WAT     H114480   7.390   5.033   3.283
 4746WAT     H214481   7.360   4.921   3.168
 4747WAT      O14482   8.031   4.235   1.528
 4747WAT     H114483   8.108   4.191   1.574
 4747WAT     H214484   7.945   4.204   1.569
 4748WAT      O14485   4.947   3.290   9.864
 4748WAT     H114486   4.895   3.370   9.892
 4748WAT     H214487   4.962   3.293   9.765
 4749WAT      O14488   6.233   3.674   2.861
 4749WAT     H114489   6.325   3.708   2.883
 4749WAT     H214490   6.165   3.741   2.890
 4750WAT      O14491   9.055   3.493   7.031
 4750WAT     H114492   9.145   3.502   7.074
 4750WAT     H214493   9.023   3.399   7.039
 4751WAT      O14494   5.214   7.765   9.007
 4751WAT     H114495   5.220   7.671   8.971
 4751WAT     H214496   5.302   7.810   8.996
 4752WAT      O14497   5.284   9.484   5.257
 4752WAT     H114498   5.205   9.424   5.247
 4752WAT     H214499   5.367   9.430   5.271
 4753WAT      O14500   1.377   3.432   3.405
 4753WAT     H114501   1.467   3.390   3.420
 4753WAT     H214502   1.317   3.366   3.360
 4754WAT      O14503   4.969   8.623   8.601
 4754WAT     H114504   4.973   8.708   8.547
 4754WAT     H214505   4.875   8.589   8.601
 4755WAT      O14506   3.994   0.270   2.457
 4755WAT     H114507   3.989   0.183   2.506
 4755WAT     H214508   4.080   0.274   2.405
 4756WAT      O14509   5.077   1.102   6.751
 4756WAT     H114510   5.122   1.181   6.792
 4756WAT     H214511   5.135   1.063   6.680
 4757WAT      O14512   5.281   6.832   7.244
 4757WAT     H114513   5.324   6.908   7.292
 4757WAT     H214514   5.187   6.855   7.222
 4758WAT      O14515   0.476   6.830   1.457
 4758WAT     H114516   0.576   6.834   1.454
 4758WAT     H214517   0.447   6.736   1.478
 4759WAT      O14518   3.234   4.457   4.499
 4759WAT     H114519   3.138   4.428   4.490
 4759WAT     H214520   3.243   4.552   4.468
 4760WAT      O14521   8.785   5.826   0.089
 4760WAT     H114522   8.800   5.883   0.009
 4760WAT     H214523   8.853   5.752   0.091
 4761WAT      O14524   9.292   8.535   3.126
 4761WAT     H114525   9.383   8.496   3.113
 4761WAT     H214526   9.225   8.461   3.137
 4762WAT      O14527   5.179   7.385   2.797
 4762WAT     H114528   5.122   7.312   2.836
 4762WAT     H214529   5.135   7.422   2.716
 4763WAT      O14530   4.299   3.971   6.698
 4763WAT     H114531   4.333   3.926   6.615
 4763WAT     H214532   4.204   4.000   6.683
 4764WAT      O14533   4.520   0.753   7.136
 4764WAT     H114534   4.486   0.799   7.218
 4764WAT     H214535   4.613   0.786   7.116
 4765WAT      O14536   6.635   0.398   1.898
 4765WAT     H114537   6.720   0.406   1.845
 4765WAT     H214538   6.562   0.366   1.838
 4766WAT      O14539   4.815   9.080   8.220
 4766WAT     H114540   4.806   9.179   8.234
 4766WAT     H214541   4.782   9.032   8.301
 4767WAT      O14542   7.985   4.517   6.385
 4767WAT     H114543   7.937   4.601   6.412
 4767WAT     H214544   7.922   4.440   6.395
 4768WAT      O14545   0.453   3.242   9.418
 4768WAT     H114546   0.487   3.324   9.464
 4768WAT     H214547   0.497   3.161   9.458
 4769WAT      O14548   2.957   4.591   5.286
 4769WAT     H114549   2.909   4.520   5.234
 4769WAT     H214550   2.971   4.560   5.380
 4770WAT      O14551   4.103   8.806   5.720
 4770WAT     H114552   4.092   8.904   5.733
 4770WAT     H214553   4.169   8.789   5.647
 4771WAT      O14554   2.582   8.268   8.177
 4771WAT     H114555   2.495   8.234   8.139
 4771WAT     H214556   2.590   8.366   8.158
 4772WAT      O14557   9.705   2.183   1.475
 4772WAT     H114558   9.647   2.148   1.401
 4772WAT     H214559   9.770   2.112   1.502
 4773WAT      O14560   3.862   8.561   2.515
 4773WAT     H114561   3.905   8.572   2.605
 4773WAT     H214562   3.866   8.464   2.488
 4774WAT      O14563   6.760   2.233   0.074
 4774WAT     H114564   6.673   2.281   0.064
 4774WAT     H214565   6.836   2.298   0.069
 4775WAT      O14566   6.049   5.426   4.706
 4775WAT     H114567   6.080   5.331   4.706
 4775WAT     H214568   6.121   5.485   4.668
 4776WAT      O14569   7.969   1.394   3.184
 4776WAT     H114570   7.941   1.365   3.093
 4776WAT     H214571   8.068   1.386   3.192
 4777WAT      O14572   8.385   2.687   4.184
 4777WAT     H114573   8.417   2.693   4.090
 4777WAT     H214574   8.287   2.708   4.188
 4778WAT      O14575   6.187   4.545   6.548
 4778WAT     H114576   6.150   4.514   6.635
 4778WAT     H214577   6.119   4.531   6.476
 4779WAT      O14578   8.423   8.919   8.051
 4779WAT     H114579   8.406   8.880   7.960
 4779WAT     H214580   8.416   9.019   8.046
 4780WAT      O14581   2.967   4.345   8.833
 4780WAT     H114582   2.908   4.417   8.870
 4780WAT     H214583   2.968   4.267   8.895
 4781WAT      O14584   8.423   0.861   4.845
 4781WAT     H114585   8.390   0.772   4.876
 4781WAT     H214586   8.520   0.871   4.867
 4782WAT      O14587   8.289   6.225   9.696
 4782WAT     H114588   8.246   6.315   9.707
 4782WAT     H214589   8.385   6.231   9.723
 4783WAT      O14590   7.535   9.463   3.490
 4783WAT     H114591   7.613   9.509   3.447
 4783WAT     H214592   7.484   9.530   3.545
 4784WAT      O14593   7.830   3.342   8.572
 4784WAT     H114594   7.821   3.441   8.587
 4784WAT     H214595   7.878   3.301   8.649
 4785WAT      O14596   2.748   1.319   1.894
 4785WAT     H114597   2.802   1.393   1.934
 4785WAT     H214598   2.699   1.353   1.813
 4786WAT      O14599   6.205   2.559   2.699
 4786WAT     H114600   6.301   2.555   2.674
 4786WAT     H214601   6.162   2.638   2.656
 4787WAT      O14602   6.951   2.269   4.543
 4787WAT     H114603   7.012   2.271   4.622
 4787WAT     H214604   6.995   2.220   4.468
 4788WAT      O14605   7.343   3.278   6.939
 4788WAT     H114606   7.290   3.292   6.855
 4788WAT     H214607   7.377   3.366   6.971
 4789WAT      O14608   8.605   8.442   3.535
 4789WAT     H114609   8.682   8.504   3.545
 4789WAT     H214610   8.541   8.479   3.467
 4790WAT      O14611   0.667   9.352   0.256
 4790WAT     H114612   0.668   9.356   0.156
 4790WAT     H214613   0.701   9.439   0.293
 4791WAT      O14614   4.892   3.045   2.633
 4791WAT     H114615   4.938   3.122   2.677
 4791WAT     H214616   4.932   3.028   2.543
 4792WAT      O14617   3.604   4.054   3.739
 4792WAT     H114618   3.690   4.011   3.768
 4792WAT     H214619   3.535   3.984   3.722
 4793WAT      O14620   0.624   9.364   3.793
 4793WAT     H114621   0.706   9.378   3.738
 4793WAT     H214622   0.615   9.266   3.814
 4794WAT      O14623   9.365   7.169   5.835
 4794WAT     H114624   9.462   7.156   5.814
 4794WAT     H214625   9.356   7.237   5.908
 4795WAT      O14626   6.230   8.326   9.365
 4795WAT     H114627   6.208   8.417   9.401
 4795WAT     H214628   6.305   8.333   9.300
 4796WAT      O14629   7.020   6.571   2.023
 4796WAT     H114630   6.960   6.567   1.943
 4796WAT     H214631   7.038   6.478   2.056
 4797WAT      O14632   7.096   7.974   3.016
 4797WAT     H114633   7.189   8.001   3.041
 4797WAT     H214634   7.076   7.884   3.054
 4798WAT      O14635   6.021   5.462   3.231
 4798WAT     H114636   5.980   5.506   3.311
 4798WAT     H214637   6.091   5.521   3.193
 4799WAT      O14638   4.464   7.501   7.282
 4799WAT     H114639   4.508   7.526   7.195
 4799WAT     H214640   4.507   7.419   7.319
 4800WAT      O14641   5.093   0.227   3.963
 4800WAT     H114642   5.058   0.319   3.949
 4800WAT     H214643   5.187   0.221   3.930
 4801WAT      O14644   0.391   6.260   6.972
 4801WAT     H114645   0.346   6.214   6.895
 4801WAT     H214646   0.369   6.358   6.969
 4802WAT      O14647   5.870   7.730   8.175
 4802WAT     H114648   5.952   7.692   8.132
 4802WAT     H214649   5.799   7.660   8.181
 4803WAT      O14650   3.836   4.329   3.773
 4803WAT     H114651   3.840   4.229   3.773
 4803WAT     H214652   3.857   4.363   3.865
 4804WAT      O14653   5.147   7.772   8.163
 4804WAT     H114654   5.217   7.822   8.215
 4804WAT     H214655   5.154   7.675   8.183
 4805WAT      O14656   2.420   6.253   2.567
 4805WAT     H114657   2.504   6.199   2.558
 4805WAT     H214658   2.417   6.295   2.658
 4806WAT      O14659   2.961   9.817   7.369
 4806WAT     H114660   2.972   9.889   7.438
 4806WAT     H214661   3.047   9.766   7.361
 4807WAT      O14662   5.739   2.850   4.026
 4807WAT     H114663   5.726   2.913   3.950
 4807WAT     H214664   5.837   2.836   4.040
 4808WAT      O14665   9.368   5.670   7.124
 4808WAT     H114666   9.327   5.596   7.178
 4808WAT     H214667   9.309   5.751   7.128
 4809WAT      O14668   3.305   7.749   1.326
 4809WAT     H114669   3.385   7.809   1.319
 4809WAT     H214670   3.322   7.677   1.393
 4810WAT      O14671   7.487   4.079   9.378
 4810WAT     H114672   7.460   4.132   9.458
 4810WAT     H214673   7.578   4.109   9.348
 4811WAT      O14674   1.803   8.667   0.133
 4811WAT     H114675   1.837   8.659   0.039
 4811WAT     H214676   1.731   8.737   0.136
 4812WAT      O14677   2.342   0.070   8.089
 4812WAT     H114678   2.259   0.014   8.089
 4812WAT     H214679   2.325   0.154   8.140
 4813WAT      O14680   6.818   6.215   7.688
 4813WAT     H114681   6.797   6.134   7.634
 4813WAT     H214682   6.797   6.297   7.635
 4814WAT      O14683   0.146   4.023   5.174
 4814WAT     H114684   0.183   3.948   5.118
 4814WAT     H214685   0.143   3.993   5.269
 4815WAT      O14686   1.251   9.277   0.984
 4815WAT     H114687   1.292   9.216   0.916
 4815WAT     H214688   1.311   9.356   0.998
 4816WAT      O14689   5.813   3.192   5.005
 4816WAT     H114690   5.880   3.253   4.964
 4816WAT     H214691   5.779   3.129   4.935
 4817WAT      O14692   5.304   8.439   1.823
 4817WAT     H114693   5.250   8.476   1.899
 4817WAT     H214694   5.303   8.504   1.747
 4818WAT      O14695   9.745   1.798   0.551
 4818WAT     H114696   9.761   1.893   0.575
 4818WAT     H214697   9.821   1.742   0.584
 4819WAT      O14698   6.053   1.641   9.584
 4819WAT     H114699   6.013   1.554   9.613
 4819WAT     H214700   6.116   1.673   9.655
 4820WAT      O14701   8.363   0.284   1.705
 4820WAT     H114702   8.432   0.356   1.695
 4820WAT     H214703   8.409   0.196   1.715
 4821WAT      O14704   2.490   2.380   0.244
 4821WAT     H114705   2.580   2.376   0.288
 4821WAT     H214706   2.478   2.301   0.185
 4822WAT      O14707   6.386   1.744   3.574
 4822WAT     H114708   6.450   1.672   3.603
 4822WAT     H214709   6.390   1.819   3.640
 4823WAT      O14710   7.775   2.021   2.009
 4823WAT     H114711   7.740   1.965   2.084
 4823WAT     H214712   7.809   1.961   1.936
 4824WAT      O14713   7.166   9.510   7.221
 4824WAT     H114714   7.141   9.414   7.215
 4824WAT     H214715   7.177   9.547   7.128
 4825WAT      O14716   8.620   6.476   6.511
 4825WAT     H114717   8.697   6.437   6.561
 4825WAT     H214718   8.634   6.462   6.413
 4826WAT      O14719   7.688   5.953   1.506
 4826WAT     H114720   7.777   5.987   1.477
 4826WAT     H214721   7.625   6.029   1.520
 4827WAT      O14722   1.173   7.003   3.983
 4827WAT     H114723   1.094   7.012   3.922
 4827WAT     H214724   1.141   6.997   4.078
 4828WAT      O14725   0.119   0.290   0.505
 4828WAT     H114726   0.074   0.215   0.554
 4828WAT     H214727   0.088   0.290   0.409
 4829WAT      O14728   7.657   3.918   8.376
 4829WAT     H114729   7.718   3.926   8.455
 4829WAT     H214730   7.660   4.004   8.324
 4830WAT      O14731   4.894   5.252   8.354
 4830WAT     H114732   4.848   5.269   8.267
 4830WAT     H214733   4.949   5.169   8.347
 4831WAT      O14734   4.960   1.806   8.797
 4831WAT     H114735   4.963   1.888   8.855
 4831WAT     H214736   4.971   1.725   8.854
 4832WAT      O14737   3.407   9.706   9.422
 4832WAT     H114738   3.473   9.631   9.419
 4832WAT     H214739   3.452   9.787   9.459
 4833WAT      O14740   4.397   7.901   7.058
 4833WAT     H114741   4.385   8.000   7.067
 4833WAT     H214742   4.444   7.866   7.139
 4834WAT      O14743   4.560   7.705   7.616
 4834WAT     H114744   4.463   7.699   7.593
 4834WAT     H214745   4.587   7.801   7.626
 4835WAT      O14746   1.106   2.001   3.453
 4835WAT     H114747   1.202   1.983   3.435
 4835WAT     H214748   1.053   1.918   3.435
 4836WAT      O14749   2.996   1.428   7.305
 4836WAT     H114750   3.001   1.344   7.251
 4836WAT     H214751   3.036   1.412   7.395
 4837WAT      O14752   1.274   5.474   1.944
 4837WAT     H114753   1.197   5.410   1.939
 4837WAT     H214754   1.312   5.486   1.852
 4838WAT      O14755   5.476   0.159   4.742
 4838WAT     H114756   5.558   0.144   4.797
 4838WAT     H214757   5.412   0.083   4.756
 4839WAT      O14758   2.195   9.323   7.926
 4839WAT     H114759   2.227   9.362   7.840
 4839WAT     H214760   2.252   9.357   8.001
 4840WAT      O14761   5.578   1.895   3.836
 4840WAT     H114762   5.579   1.804   3.876
 4840WAT     H214763   5.561   1.888   3.738
 4841WAT      O14764   0.497   5.077   0.218
 4841WAT     H114765   0.540   5.019   0.288
 4841WAT     H214766   0.546   5.164   0.212
 4842WAT      O14767   4.219   0.950   6.607
 4842WAT     H114768   4.306   0.995   6.628
 4842WAT     H214769   4.232   0.851   6.607
 4843WAT      O14770   8.774   8.145   1.856
 4843WAT     H114771   8.798   8.191   1.942
 4843WAT     H214772   8.703   8.076   1.874
 4844WAT      O14773   1.645   6.092   1.649
 4844WAT     H114774   1.743   6.085   1.663
 4844WAT     H214775   1.625   6.085   1.551
 4845WAT      O14776   6.590   4.679   3.604
 4845WAT     H114777   6.651   4.741   3.554
 4845WAT     H214778   6.564   4.604   3.544
 4846WAT      O14779   6.205   1.345   9.095
 4846WAT     H114780   6.194   1.249   9.069
 4846WAT     H214781   6.302   1.369   9.092
 4847WAT      O14782   0.941   9.547   1.725
 4847WAT     H114783   1.017   9.570   1.664
 4847WAT     H214784   0.862   9.604   1.701
 4848WAT      O14785   9.289   3.890   4.367
 4848WAT     H114786   9.227   3.859   4.438
 4848WAT     H214787   9.368   3.829   4.362
 4849WAT      O14788   0.396   2.138   4.167
 4849WAT     H114789   0.419   2.230   4.134
 4849WAT     H214790   0.479   2.083   4.170
 4850WAT      O14791   1.038   4.738   5.296
 4850WAT     H114792   1.025   4.836   5.309
 4850WAT     H214793   1.024   4.715   5.200
 4851WAT      O14794   0.687   9.663   8.292
 4851WAT     H114795   0.596   9.676   8.253
 4851WAT     H214796   0.688   9.697   8.386
 4852WAT      O14797   2.599   4.049   8.022
 4852WAT     H114798   2.543   4.013   7.948
 4852WAT     H214799   2.683   4.088   7.985
 4853WAT      O14800   4.511   3.244   0.688
 4853WAT     H114801   4.431   3.274   0.741
 4853WAT     H214802   4.579   3.205   0.749
 4854WAT      O14803   3.705   1.231   4.598
 4854WAT     H114804   3.685   1.168   4.673
 4854WAT     H214805   3.718   1.180   4.513
 4855WAT      O14806   8.409   9.651   2.897
 4855WAT     H114807   8.403   9.699   2.810
 4855WAT     H214808   8.483   9.584   2.894
 4856WAT      O14809   8.865   5.677   3.468
 4856WAT     H114810   8.802   5.698   3.543
 4856WAT     H214811   8.949   5.731   3.478
 4857WAT      O14812   1.587   9.269   0.341
 4857WAT     H114813   1.503   9.268   0.288
 4857WAT     H214814   1.594   9.355   0.391
 4858WAT      O14815   8.941   8.671   5.457
 4858WAT     H114816   8.972   8.578   5.439
 4858WAT     H214817   8.867   8.670   5.525
 4859WAT      O14818   1.654   7.568   3.133
 4859WAT     H114819   1.675   7.622   3.215
 4859WAT     H214820   1.739   7.533   3.094
 4860WAT      O14821   1.283   6.894   4.368
 4860WAT     H114822   1.211   6.857   4.426
 4860WAT     H214823   1.313   6.823   4.304
 4861WAT      O14824   1.294   9.767   4.467
 4861WAT     H114825   1.240   9.749   4.550
 4861WAT     H214826   1.389   9.739   4.483
 4862WAT      O14827   3.812   2.446   1.963
 4862WAT     H114828   3.715   2.430   1.980
 4862WAT     H214829   3.862   2.443   2.050
 4863WAT      O14830   7.422   8.883   4.515
 4863WAT     H114831   7.447   8.787   4.502
 4863WAT     H214832   7.324   8.890   4.533
 4864WAT      O14833   5.964   7.446   9.676
 4864WAT     H114834   5.921   7.387   9.607
 4864WAT     H214835   5.897   7.467   9.747
 4865WAT      O14836   5.043   4.775   0.584
 4865WAT     H114837   4.973   4.743   0.648
 4865WAT     H214838   5.111   4.829   0.633
 4866WAT      O14839   6.933   8.260   1.713
 4866WAT     H114840   6.978   8.325   1.774
 4866WAT     H214841   6.866   8.308   1.657
 4867WAT      O14842   8.077   8.874   5.316
 4867WAT     H114843   8.019   8.802   5.277
 4867WAT     H214844   8.173   8.851   5.302
 4868WAT      O14845   8.785   0.188   1.237
 4868WAT     H114846   8.721   0.222   1.305
 4868WAT     H214847   8.867   0.245   1.237
 4869WAT      O14848   0.375   7.950   7.296
 4869WAT     H114849   0.437   7.903   7.234
 4869WAT     H214850   0.349   8.039   7.258
 4870WAT      O14851   9.861   8.714   8.054
 4870WAT     H114852   9.916   8.664   8.120
 4870WAT     H214853   9.789   8.654   8.018
 4871WAT      O14854   2.991   0.041   6.847
 4871WAT     H114855   2.932   0.009   6.921
 4871WAT     H214856   2.938   0.096   6.783
 4872WAT      O14857   2.746   2.898   2.392
 4872WAT     H114858   2.705   2.961   2.326
 4872WAT     H214859   2.725   2.927   2.485
 4873WAT      O14860   4.945   4.752   3.099
 4873WAT     H114861   4.940   4.789   3.006
 4873WAT     H214862   4.950   4.828   3.165
 4874WAT      O14863   9.556   6.054   2.447
 4874WAT     H114864   9.581   6.066   2.543
 4874WAT     H214865   9.595   5.968   2.414
 4875WAT      O14866   1.141   9.240   2.855
 4875WAT     H114867   1.145   9.266   2.951
 4875WAT     H214868   1.066   9.175   2.841
 4876WAT      O14869   2.162   7.531   8.932
 4876WAT     H114870   2.181   7.471   8.855
 4876WAT     H214871   2.088   7.493   8.988
 4877WAT      O14872   2.170   1.638   2.079
 4877WAT     H114873   2.138   1.617   2.171
 4877WAT     H214874   2.172   1.737   2.066
 4878WAT      O14875   0.438   4.252   8.779
 4878WAT     H114876   0.441   4.320   8.853
 4878WAT     H214877   0.529   4.242   8.739
 4879WAT      O14878   0.909   2.687   6.676
 4879WAT     H114879   0.955   2.751   6.613
 4879WAT     H214880   0.842   2.737   6.730
 4880WAT      O14881   2.782   9.616   2.424
 4880WAT     H114882   2.848   9.615   2.499
 4880WAT     H214883   2.819   9.669   2.348
 4881WAT      O14884   5.765   8.228   4.272
 4881WAT     H114885   5.683   8.269   4.313
 4881WAT     H214886   5.811   8.296   4.215
 4882WAT      O14887   8.225   4.570   5.578
 4882WAT     H114888   8.232   4.606   5.485
 4882WAT     H214889   8.258   4.639   5.642
 4883WAT      O14890   7.975   2.256   9.757
 4883WAT     H114891   7.957   2.160   9.735
 4883WAT     H214892   7.930   2.314   9.689
 4884WAT      O14893   0.283   5.057   6.436
 4884WAT     H114894   0.216   4.984   6.449
 4884WAT     H214895   0.336   5.069   6.520
 4885WAT      O14896   0.938   8.043   2.071
 4885WAT     H114897   0.907   8.001   2.156
 4885WAT     H214898   0.895   7.997   1.993
 4886WAT      O14899   1.363   2.553   0.089
 4886WAT     H114900   1.407   2.491   0.155
 4886WAT     H214901   1.285   2.506   0.047
 4887WAT      O14902   2.093   2.325   0.523
 4887WAT     H114903   2.037   2.379   0.586
 4887WAT     H214904   2.188   2.353   0.531
 4888WAT      O14905   7.365   8.637   3.651
 4888WAT     H114906   7.431   8.711   3.663
 4888WAT     H214907   7.348   8.623   3.553
 4889WAT      O14908   7.698   3.481   7.302
 4889WAT     H114909   7.754   3.550   7.255
 4889WAT     H214910   7.745   3.393   7.299
 4890WAT      O14911   7.124   9.094   0.586
 4890WAT     H114912   7.202   9.078   0.526
 4890WAT     H214913   7.039   9.084   0.534
 4891WAT      O14914   0.573   5.953   6.766
 4891WAT     H114915   0.622   5.976   6.851
 4891WAT     H214916   0.489   5.904   6.789
 4892WAT      O14917   1.206   6.949   7.326
 4892WAT     H114918   1.190   6.918   7.420
 4892WAT     H214919   1.299   6.985   7.317
 4893WAT      O14920   2.600   0.228   2.783
 4893WAT     H114921   2.577   0.206   2.688
 4893WAT     H214922   2.694   0.199   2.803
 4894WAT      O14923   5.507   0.287   7.776
 4894WAT     H114924   5.603   0.295   7.747
 4894WAT     H214925   5.456   0.235   7.707
 4895WAT      O14926   9.031   5.695   5.570
 4895WAT     H114927   9.058   5.614   5.622
 4895WAT     H214928   9.101   5.766   5.582
 4896WAT      O14929   1.758   7.170   8.932
 4896WAT     H114930   1.729   7.085   8.888
 4896WAT     H214931   1.727   7.248   8.876
 4897WAT      O14932   8.775   3.662   4.157
 4897WAT     H114933   8.849   3.636   4.220
 4897WAT     H214934   8.785   3.758   4.132
 4898WAT      O14935   9.046   2.693   3.880
 4898WAT     H114936   9.123   2.664   3.824
 4898WAT     H214937   8.964   2.644   3.851
 4899WAT      O14938   9.482   6.215   9.189
 4899WAT     H114939   9.520   6.215   9.282
 4899WAT     H214940   9.389   6.176   9.191
 4900WAT      O14941   5.720   1.579   1.672
 4900WAT     H114942   5.635   1.538   1.706
 4900WAT     H214943   5.729   1.561   1.574
 4901WAT      O14944   8.624   6.318   7.729
 4901WAT     H114945   8.590   6.365   7.648
 4901WAT     H214946   8.610   6.219   7.720
 4902WAT      O14947   4.576   2.690   3.290
 4902WAT     H114948   4.597   2.655   3.381
 4902WAT     H214949   4.482   2.724   3.289
 4903WAT      O14950   6.911   6.894   8.943
 4903WAT     H114951   6.941   6.890   8.848
 4903WAT     H214952   6.976   6.949   8.996
 4904WAT      O14953   5.355   8.883   9.562
 4904WAT     H114954   5.353   8.933   9.476
 4904WAT     H214955   5.420   8.807   9.555
 4905WAT      O14956   8.713   8.855   1.746
 4905WAT     H114957   8.674   8.871   1.837
 4905WAT     H214958   8.639   8.836   1.681
 4906WAT      O14959   5.595   6.621   3.919
 4906WAT     H114960   5.569   6.588   4.009
 4906WAT     H214961   5.642   6.548   3.869
 4907WAT      O14962   5.759   9.553   7.088
 4907WAT     H114963   5.854   9.560   7.118
 4907WAT     H214964   5.752   9.580   6.992
 4908WAT      O14965   7.010   2.994   2.682
 4908WAT     H114966   7.103   2.959   2.687
 4908WAT     H214967   6.971   2.974   2.592
 4909WAT      O14968   5.738   1.705   2.108
 4909WAT     H114969   5.721   1.678   2.203
 4909WAT     H214970   5.836   1.719   2.095
 4910WAT      O14971   8.988   8.217   8.958
 4910WAT     H114972   8.994   8.142   9.024
 4910WAT     H214973   8.893   8.235   8.936
 4911WAT      O14974   8.640   1.527   9.323
 4911WAT     H114975   8.691   1.577   9.393
 4911WAT     H214976   8.581   1.592   9.274
 4912WAT      O14977   7.981   5.075   4.783
 4912WAT     H114978   7.916   5.033   4.719
 4912WAT     H214979   7.982   5.022   4.868
 4913WAT      O14980   9.447   4.773   0.191
 4913WAT     H114981   9.436   4.673   0.193
 4913WAT     H214982   9.535   4.795   0.150
 4914WAT      O14983   3.554   0.419   8.190
 4914WAT     H114984   3.596   0.442   8.277
 4914WAT     H214985   3.625   0.404   8.121
 4915WAT      O14986   0.183   4.127   9.877
 4915WAT     H114987   0.243   4.182   9.936
 4915WAT     H214988   0.237   4.091   9.801
 4916WAT      O14989   3.480   7.931   5.304
 4916WAT     H114990   3.461   8.022   5.267
 4916WAT     H214991   3.576   7.927   5.333
 4917WAT      O14992   2.222   1.280   5.515
 4917WAT     H114993   2.150   1.322   5.570
 4917WAT     H214994   2.281   1.351   5.477
 4918WAT      O14995   2.519   2.089   9.053
 4918WAT     H114996   2.445   2.050   8.998
 4918WAT     H214997   2.597   2.027   9.053
 4919WAT      O14998   2.514   8.660   9.288
 4919WAT     H114999   2.562   8.640   9.202
 4919WAT     H215000   2.524   8.757   9.310
 4920WAT      O15001   0.842   9.802   5.386
 4920WAT     H115002   0.903   9.829   5.461
 4920WAT     H215003   0.808   9.710   5.402
 4921WAT      O15004   4.430   0.808   0.286
 4921WAT     H115005   4.528   0.815   0.265
 4921WAT     H215006   4.406   0.879   0.353
 4922WAT      O15007   0.004   6.694   9.505
 4922WAT     H115008   0.029   6.610   9.552
 4922WAT     H215009   0.083   6.756   9.503
 4923WAT      O15010   8.244   8.258   3.171
 4923WAT     H115011   8.233   8.184   3.105
 4923WAT     H215012   8.155   8.281   3.211
 4924WAT      O15013   7.084   2.861   8.444
 4924WAT     H115014   7.159   2.915   8.407
 4924WAT     H215015   7.048   2.800   8.374
 4925WAT      O15016   5.667   7.967   5.874
 4925WAT     H115017   5.692   7.948   5.969
 4925WAT     H215018   5.569   7.982   5.867
 4926WAT      O15019   1.080   3.417   1.425
 4926WAT     H115020   1.173   3.454   1.430
 4926WAT     H215021   1.074   3.353   1.348
 4927WAT      O15022   8.330   6.415   8.819
 4927WAT     H115023   8.238   6.377   8.827
 4927WAT     H215024   8.364   6.400   8.727
 4928WAT      O15025   2.034   3.063   8.349
 4928WAT     H115026   2.045   3.029   8.256
 4928WAT     H215027   2.000   3.157   8.347
 4929WAT      O15028   7.304   7.242   8.174
 4929WAT     H115029   7.267   7.166   8.228
 4929WAT     H215030   7.397   7.262   8.203
 4930WAT      O15031   6.294   4.536   3.970
 4930WAT     H115032   6.315   4.624   4.012
 4930WAT     H215033   6.374   4.504   3.918
 4931WAT      O15034   0.277   7.141   9.540
 4931WAT     H115035   0.216   7.220   9.546
 4931WAT     H215036   0.284   7.099   9.631
 4932WAT      O15037   8.912   5.246   3.021
 4932WAT     H115038   8.902   5.251   3.121
 4932WAT     H215039   8.831   5.284   2.977
 4933WAT      O15040   3.541   8.822   8.920
 4933WAT     H115041   3.638   8.815   8.945
 4933WAT     H215042   3.530   8.886   8.844
 4934WAT      O15043   6.735   2.822   0.907
 4934WAT     H115044   6.716   2.742   0.850
 4934WAT     H215045   6.769   2.792   0.996
 4935WAT      O15046   3.774   1.690   4.799
 4935WAT     H115047   3.831   1.691   4.881
 4935WAT     H215048   3.793   1.606   4.747
 4936WAT      O15049   6.498   1.650   4.946
 4936WAT     H115050   6.553   1.566   4.947
 4936WAT     H215051   6.554   1.727   4.976
 4937WAT      O15052   4.533   3.115   3.301
 4937WAT     H115053   4.519   3.206   3.263
 4937WAT     H215054   4.558   3.051   3.228
 4938WAT      O15055   1.931   5.267   0.135
 4938WAT     H115056   1.850   5.274   0.077
 4938WAT     H215057   1.950   5.357   0.176
 4939WAT      O15058   6.542   4.550   5.415
 4939WAT     H115059   6.476   4.622   5.394
 4939WAT     H215060   6.500   4.460   5.398
 4940WAT      O15061   4.216   2.577   1.158
 4940WAT     H115062   4.211   2.628   1.244
 4940WAT     H215063   4.150   2.614   1.093
 4941WAT      O15064   9.396   9.232   3.820
 4941WAT     H115065   9.445   9.267   3.740
 4941WAT     H215066   9.406   9.133   3.824
 4942WAT      O15067   0.775   8.682   8.054
 4942WAT     H115068   0.815   8.610   7.998
 4942WAT     H215069   0.700   8.725   8.005
 4943WAT      O15070   2.908   5.426   1.157
 4943WAT     H115071   2.911   5.374   1.242
 4943WAT     H215072   2.908   5.524   1.177
 4944WAT      O15073   1.714   8.665   2.869
 4944WAT     H115074   1.667   8.634   2.787
 4944WAT     H215075   1.649   8.709   2.931
 4945WAT      O15076   1.832   3.835   0.299
 4945WAT     H115077   1.772   3.803   0.225
 4945WAT     H215078   1.925   3.847   0.263
 4946WAT      O15079   6.932   1.434   7.725
 4946WAT     H115080   6.990   1.496   7.778
 4946WAT     H215081   6.856   1.485   7.686
 4947WAT      O15082   8.598   8.392   2.417
 4947WAT     H115083   8.499   8.404   2.421
 4947WAT     H215084   8.639   8.420   2.504
 4948WAT      O15085   6.204   0.232   6.059
 4948WAT     H115086   6.116   0.191   6.038
 4948WAT     H215087   6.258   0.169   6.116
 4949WAT      O15088   7.120   2.738   2.006
 4949WAT     H115089   7.181   2.810   1.972
 4949WAT     H215090   7.043   2.780   2.054
 4950WAT      O15091   0.513   3.098   4.671
 4950WAT     H115092   0.425   3.070   4.631
 4950WAT     H215093   0.549   3.176   4.620
 4951WAT      O15094   1.696   7.884   6.532
 4951WAT     H115095   1.661   7.844   6.447
 4951WAT     H215096   1.784   7.927   6.515
 4952WAT      O15097   0.717   4.467   9.109
 4952WAT     H115098   0.790   4.420   9.060
 4952WAT     H215099   0.747   4.486   9.203
 4953WAT      O15100   1.416   0.281   4.186
 4953WAT     H115101   1.321   0.302   4.208
 4953WAT     H215102   1.475   0.309   4.261
 4954WAT      O15103   8.757   1.837   4.034
 4954WAT     H115104   8.788   1.839   4.129
 4954WAT     H215105   8.821   1.783   3.979
 4955WAT      O15106   3.781   5.408   8.636
 4955WAT     H115107   3.841   5.360   8.700
 4955WAT     H215108   3.776   5.357   8.550
 4956WAT      O15109   3.303   7.610   1.910
 4956WAT     H115110   3.389   7.626   1.958
 4956WAT     H215111   3.313   7.636   1.814
 4957WAT      O15112   1.500   5.081   7.707
 4957WAT     H115113   1.553   5.083   7.622
 4957WAT     H215114   1.556   5.116   7.782
 4958WAT      O15115   1.356   6.094   8.960
 4958WAT     H115116   1.430   6.129   9.018
 4958WAT     H215117   1.361   5.994   8.956
 4959WAT      O15118   7.578   5.781   3.662
 4959WAT     H115119   7.594   5.746   3.754
 4959WAT     H215120   7.647   5.743   3.600
 4960WAT      O15121   6.760   3.490   8.447
 4960WAT     H115122   6.761   3.590   8.453
 4960WAT     H215123   6.670   3.459   8.418
 4961WAT      O15124   6.603   2.742   8.907
 4961WAT     H115125   6.660   2.766   8.828
 4961WAT     H215126   6.511   2.721   8.876
 4962WAT      O15127   8.115   1.133   6.360
 4962WAT     H115128   8.137   1.042   6.394
 4962WAT     H215129   8.192   1.195   6.376
 4963WAT      O15130   1.756   5.620   5.913
 4963WAT     H115131   1.753   5.522   5.895
 4963WAT     H215132   1.731   5.637   6.008
 4964WAT      O15133   2.818   3.419   2.011
 4964WAT     H115134   2.868   3.426   1.924
 4964WAT     H215135   2.720   3.429   1.993
 4965WAT      O15136   8.387   7.773   0.949
 4965WAT     H115137   8.469   7.736   0.904
 4965WAT     H215138   8.356   7.709   1.019
 4966WAT      O15139   6.571   0.410   0.328
 4966WAT     H115140   6.578   0.401   0.229
 4966WAT     H215141   6.493   0.469   0.351
 4967WAT      O15142   3.389   5.965   7.901
 4967WAT     H115143   3.428   6.000   7.816
 4967WAT     H215144   3.315   6.024   7.931
 4968WAT      O15145   5.298   7.220   6.915
 4968WAT     H115146   5.391   7.227   6.953
 4968WAT     H215147   5.232   7.225   6.990
 4969WAT      O15148   4.609   6.156   9.395
 4969WAT     H115149   4.625   6.229   9.329
 4969WAT     H215150   4.525   6.108   9.372
 4970WAT      O15151   8.358   0.958   5.779
 4970WAT     H115152   8.313   0.913   5.702
 4970WAT     H215153   8.290   0.986   5.846
 4971WAT      O15154   5.789   4.202   5.571
 4971WAT     H115155   5.810   4.200   5.474
 4971WAT     H215156   5.771   4.108   5.603
 4972WAT      O15157   7.811   1.061   3.021
 4972WAT     H115158   7.899   1.019   2.996
 4972WAT     H215159   7.780   1.022   3.108
 4973WAT      O15160   1.347   9.117   3.155
 4973WAT     H115161   1.348   9.216   3.145
 4973WAT     H215162   1.429   9.078   3.113
 4974WAT      O15163   6.106   5.467   3.773
 4974WAT     H115164   6.166   5.524   3.717
 4974WAT     H215165   6.143   5.460   3.865
 4975WAT      O15166   2.143   4.107   7.606
 4975WAT     H115167   2.063   4.112   7.546
 4975WAT     H215168   2.128   4.036   7.675
 4976WAT      O15169   6.199   1.047   9.083
 4976WAT     H115170   6.290   1.039   9.124
 4976WAT     H215171   6.181   0.967   9.028
 4977WAT      O15172   6.224   7.378   9.731
 4977WAT     H115173   6.216   7.454   9.666
 4977WAT     H215174   6.139   7.326   9.732
 4978WAT      O15175   2.612   0.612   5.211
 4978WAT     H115176   2.544   0.574   5.273
 4978WAT     H215177   2.694   0.554   5.211
 4979WAT      O15178   4.695   8.527   4.129
 4979WAT     H115179   4.740   8.441   4.101
 4979WAT     H215180   4.717   8.598   4.062
 4980WAT      O15181   4.050   3.625   8.306
 4980WAT     H115182   4.018   3.716   8.282
 4980WAT     H215183   4.017   3.558   8.239
 4981WAT      O15184   5.608   9.157   8.550
 4981WAT     H115185   5.556   9.234   8.587
 4981WAT     H215186   5.636   9.096   8.625
 4982WAT      O15187   6.189   3.768   2.538
 4982WAT     H115188   6.267   3.705   2.539
 4982WAT     H215189   6.110   3.723   2.580
 4983WAT      O15190   7.115   8.717   4.781
 4983WAT     H115191   7.149   8.708   4.688
 4983WAT     H215192   7.191   8.703   4.845
 4984WAT      O15193   8.547   0.322   8.143
 4984WAT     H115194   8.582   0.358   8.230
 4984WAT     H215195   8.623   0.310   8.079
 4985WAT      O15196   1.503   8.709   3.473
 4985WAT     H115197   1.405   8.701   3.490
 4985WAT     H215198   1.547   8.621   3.489
 4986WAT      O15199   6.347   6.030   5.325
 4986WAT     H115200   6.296   5.991   5.248
 4986WAT     H215201   6.286   6.043   5.403
 4987WAT      O15202   1.429   4.596   6.032
 4987WAT     H115203   1.504   4.552   6.082
 4987WAT     H215204   1.376   4.653   6.095
 4988WAT      O15205   7.471   5.876   1.200
 4988WAT     H115206   7.444   5.903   1.292
 4988WAT     H215207   7.514   5.954   1.153
 4989WAT      O15208   2.584   1.044   7.177
 4989WAT     H115209   2.577   1.063   7.275
 4989WAT     H215210   2.627   1.123   7.131
 4990WAT      O15211   3.273   2.157   9.656
 4990WAT     H115212   3.257   2.244   9.702
 4990WAT     H215213   3.330   2.171   9.576
 4991WAT      O15214   4.629   8.643   9.444
 4991WAT     H115215   4.604   8.698   9.365
 4991WAT     H215216   4.657   8.552   9.414
 4992WAT      O15217   7.954   8.345   9.133
 4992WAT     H115218   8.010   8.266   9.159
 4992WAT     H215219   7.994   8.428   9.173
 4993WAT      O15220   9.871   0.935   7.664
 4993WAT     H115221   9.858   0.895   7.755
 4993WAT     H215222   9.869   1.035   7.671
 4994WAT      O15223   3.813   9.014   6.280
 4994WAT     H115224   3.719   8.980   6.272
 4994WAT     H215225   3.853   8.984   6.367
 4995WAT      O15226   4.421   0.033   7.763
 4995WAT     H115227   4.360  -0.018   7.702
 4995WAT     H215228   4.440  -0.022   7.844
 4996WAT      O15229   1.842   2.773   7.928
 4996WAT     H115230   1.890   2.812   7.849
 4996WAT     H215231   1.897   2.699   7.967
 4997WAT      O15232   5.516   6.832   6.709
 4997WAT     H115233   5.539   6.900   6.639
 4997WAT     H215234   5.480   6.879   6.790
 4998WAT      O15235   3.810   6.154   4.646
 4998WAT     H115236   3.725   6.207   4.643
 4998WAT     H215237   3.839   6.132   4.553
 4999WAT      O15238   5.031   8.956   3.631
 4999WAT     H115239   5.077   8.874   3.598
 4999WAT     H215240   5.088   9.000   3.701
 5000WAT      O15241   5.071   8.562   2.422
 5000WAT     H115242   4.992   8.593   2.369
 5000WAT     H215243   5.046   8.555   2.519
 5001WAT      O15244   4.741   0.556   6.595
 5001WAT     H115245   4.777   0.621   6.663
 5001WAT     H215246   4.641   0.561   6.594
 5002WAT      O15247   8.043   4.985   2.525
 5002WAT     H115248   8.008   4.951   2.437
 5002WAT     H215249   8.135   4.948   2.540
 5003WAT      O15250   3.084   4.002   1.301
 5003WAT     H115251   3.057   4.075   1.364
 5003WAT     H215252   3.123   4.041   1.218
 5004WAT      O15253   4.581   7.218   2.241
 5004WAT     H115254   4.488   7.231   2.275
 5004WAT     H215255   4.644   7.276   2.292
 5005WAT      O15256   9.448   6.279   5.316
 5005WAT     H115257   9.521   6.341   5.342
 5005WAT     H215258   9.381   6.272   5.390
 5006WAT      O15259   6.397   9.134   0.509
 5006WAT     H115260   6.347   9.186   0.439
 5006WAT     H215261   6.332   9.088   0.569
 5007WAT      O15262   6.204   0.861   2.201
 5007WAT     H115263   6.192   0.771   2.160
 5007WAT     H215264   6.125   0.918   2.180
 5008WAT      O15265   5.659   2.778   0.952
 5008WAT     H115266   5.626   2.715   1.023
 5008WAT     H215267   5.638   2.872   0.979
 5009WAT      O15268   1.456   8.176   9.655
 5009WAT     H115269   1.434   8.082   9.679
 5009WAT     H215270   1.466   8.184   9.556
 5010WAT      O15271   5.665   5.727   1.507
 5010WAT     H115272   5.609   5.703   1.428
 5010WAT     H215273   5.734   5.656   1.522
 5011WAT      O15274   5.034   2.553   0.061
 5011WAT     H115275   5.106   2.488   0.037
 5011WAT     H215276   4.973   2.511   0.129
 5012WAT      O15277   7.748   5.950   9.590
 5012WAT     H115278   7.790   5.943   9.500
 5012WAT     H215279   7.673   6.017   9.587
 5013WAT      O15280   3.182   4.821   8.841
 5013WAT     H115281   3.116   4.861   8.905
 5013WAT     H215282   3.239   4.894   8.802
 5014WAT      O15283   3.955   4.492   2.785
 5014WAT     H115284   4.033   4.438   2.817
 5014WAT     H215285   3.956   4.581   2.829
 5015WAT      O15286   4.061   6.488   7.257
 5015WAT     H115287   4.039   6.521   7.348
 5015WAT     H215288   4.008   6.406   7.237
 5016WAT      O15289   3.064   3.519   9.481
 5016WAT     H115290   3.012   3.442   9.519
 5016WAT     H215291   3.161   3.509   9.503
 5017WAT      O15292   7.204   9.001   2.079
 5017WAT     H115293   7.198   9.025   2.175
 5017WAT     H215294   7.297   9.021   2.046
 5018WAT      O15295   0.201   3.151   4.017
 5018WAT     H115296   0.126   3.090   3.992
 5018WAT     H215297   0.209   3.153   4.117
 5019WAT      O15298   5.757   2.539   6.980
 5019WAT     H115299   5.759   2.449   6.935
 5019WAT     H215300   5.674   2.547   7.035
 5020WAT      O15301   9.235   8.660   0.059
 5020WAT     H115302   9.269   8.743   0.014
 5020WAT     H215303   9.287   8.644   0.142
 5021WAT      O15304   7.204   4.627   9.481
 5021WAT     H115305   7.261   4.676   9.414
 5021WAT     H215306   7.253   4.620   9.568
 5022WAT      O15307   3.876   5.175   8.085
 5022WAT     H115308   3.803   5.181   8.152
 5022WAT     H215309   3.839   5.145   7.997
 5023WAT      O15310   5.356   3.632   3.344
 5023WAT     H115311   5.373   3.727   3.371
 5023WAT     H215312   5.324   3.580   3.423
 5024WAT      O15313   3.071   5.204   2.222
 5024WAT     H115314   3.118   5.193   2.134
 5024WAT     H215315   3.135   5.243   2.288
 5025WAT      O15316   9.610   7.807   6.225
 5025WAT     H115317   9.534   7.748   6.196
 5025WAT     H215318   9.694   7.753   6.232
 5026WAT      O15319   2.735   0.597   1.136
 5026WAT     H115320   2.740   0.513   1.081
 5026WAT     H215321   2.825   0.617   1.174
 5027WAT      O15322   6.493   7.316   5.140
 5027WAT     H115323   6.459   7.293   5.049
 5027WAT     H215324   6.593   7.321   5.137
 5028WAT      O15325   9.554   2.526   1.249
 5028WAT     H115326   9.472   2.490   1.293
 5028WAT     H215327   9.634   2.476   1.282
 5029WAT      O15328   2.145   9.568   1.112
 5029WAT     H115329   2.097   9.534   1.031
 5029WAT     H215330   2.103   9.529   1.194
 5030WAT      O15331   4.266   6.145   2.495
 5030WAT     H115332   4.288   6.050   2.513
 5030WAT     H215333   4.339   6.188   2.441
 5031WAT      O15334   1.154   6.826   7.578
 5031WAT     H115335   1.177   6.755   7.646
 5031WAT     H215336   1.064   6.807   7.539
 5032WAT      O15337   5.996   5.801   3.957
 5032WAT     H115338   6.076   5.756   3.998
 5032WAT     H215339   5.960   5.743   3.884
 5033WAT      O15340   4.560   7.103   3.691
 5033WAT     H115341   4.506   7.058   3.763
 5033WAT     H215342   4.566   7.042   3.612
 5034WAT      O15343   2.033   2.990   1.780
 5034WAT     H115344   2.066   3.051   1.708
 5034WAT     H215345   2.110   2.956   1.833
 5035WAT      O15346   1.253   4.079   1.242
 5035WAT     H115347   1.258   4.082   1.342
 5035WAT     H215348   1.261   4.172   1.206
 5036WAT      O15349   7.365   5.404   4.457
 5036WAT     H115350   7.421   5.420   4.538
 5036WAT     H215351   7.420   5.360   4.386
 5037WAT      O15352   3.006   7.179   4.721
 5037WAT     H115353   3.061   7.241   4.777
 5037WAT     H215354   2.910   7.192   4.742
 5038WAT      O15355   9.152   4.119   5.216
 5038WAT     H115356   9.134   4.021   5.207
 5038WAT     H215357   9.161   4.159   5.124
 5039WAT      O15358   1.367   1.906   6.263
 5039WAT     H115359   1.448   1.935   6.313
 5039WAT     H215360   1.286   1.952   6.300
 5040WAT      O15361   2.836   0.768   9.259
 5040WAT     H115362   2.860   0.855   9.215
 5040WAT     H215363   2.759   0.783   9.321
 5041WAT      O15364   4.438   5.021   5.680
 5041WAT     H115365   4.499   4.945   5.700
 5041WAT     H215366   4.467   5.101   5.733
 5042WAT      O15367   4.621   7.207   5.448
 5042WAT     H115368   4.612   7.277   5.377
 5042WAT     H215369   4.684   7.136   5.417
 5043WAT      O15370   1.382   1.698   8.198
 5043WAT     H115371   1.299   1.690   8.253
 5043WAT     H215372   1.427   1.609   8.191
 5044WAT      O15373   0.581   4.136   8.403
 5044WAT     H115374   0.493   4.183   8.401
 5044WAT     H215375   0.601   4.107   8.496
 5045WAT      O15376   7.504   1.728   4.780
 5045WAT     H115377   7.542   1.746   4.871
 5045WAT     H215378   7.565   1.766   4.711
 5046WAT      O15379   8.473   2.027   3.293
 5046WAT     H115380   8.484   1.935   3.329
 5046WAT     H215381   8.561   2.073   3.289
 5047WAT      O15382   9.033   0.822   4.319
 5047WAT     H115383   8.995   0.766   4.246
 5047WAT     H215384   9.093   0.892   4.280
 5048WAT      O15385   6.381  -0.000   6.445
 5048WAT     H115386   6.346   0.086   6.482
 5048WAT     H215387   6.399  -0.064   6.520
 5049WAT      O15388   8.536   4.927   3.283
 5049WAT     H115389   8.633   4.927   3.307
 5049WAT     H215390   8.482   4.959   3.361
 5050WAT      O15391   1.569   2.142   5.945
 5050WAT     H115392   1.544   2.238   5.934
 5050WAT     H215393   1.492   2.092   5.985
 5051WAT      O15394   4.234   2.602   7.229
 5051WAT     H115395   4.296   2.666   7.183
 5051WAT     H215396   4.287   2.544   7.291
 5052WAT      O15397   2.398   6.061   4.180
 5052WAT     H115398   2.440   6.024   4.098
 5052WAT     H215399   2.468   6.104   4.238
 5053WAT      O15400   6.469   2.167   3.067
 5053WAT     H115401   6.504   2.096   3.005
 5053WAT     H215402   6.373   2.148   3.087
 5054WAT      O15403   4.412   8.817   8.753
 5054WAT     H115404   4.405   8.784   8.659
 5054WAT     H215405   4.491   8.774   8.797
 5055WAT      O15406   4.652   1.208   3.177
 5055WAT     H115407   4.743   1.244   3.159
 5055WAT     H215408   4.583   1.275   3.149
 5056WAT      O15409   4.707   4.843   2.411
 5056WAT     H115410   4.732   4.751   2.382
 5056WAT     H215411   4.637   4.879   2.350
 5057WAT      O15412   1.566   5.090   8.924
 5057WAT     H115413   1.622   5.007   8.933
 5057WAT     H215414   1.535   5.099   8.829
 5058WAT      O15415   5.189   1.022   2.695
 5058WAT     H115416   5.124   0.950   2.672
 5058WAT     H215417   5.203   1.024   2.794
 5059WAT      O15418   9.024   0.212   0.649
 5059WAT     H115419   8.967   0.146   0.599
 5059WAT     H215420   9.117   0.210   0.613
 5060WAT      O15421   7.480   1.977   0.839
 5060WAT     H115422   7.478   2.063   0.890
 5060WAT     H215423   7.533   1.989   0.756
 5061WAT      O15424   6.825   4.875   4.053
 5061WAT     H115425   6.791   4.889   3.960
 5061WAT     H215426   6.913   4.827   4.051
 5062WAT      O15427   9.158   1.580   5.006
 5062WAT     H115428   9.233   1.520   4.976
 5062WAT     H215429   9.191   1.674   5.011
 5063WAT      O15430   8.912   5.584   5.213
 5063WAT     H115431   8.928   5.669   5.263
 5063WAT     H215432   8.982   5.518   5.237
 5064WAT      O15433   5.493   0.817   4.637
 5064WAT     H115434   5.399   0.787   4.654
 5064WAT     H215435   5.500   0.915   4.654
 5065WAT      O15436   2.147   3.191   5.082
 5065WAT     H115437   2.150   3.289   5.061
 5065WAT     H215438   2.154   3.139   4.998
 5066WAT      O15439   2.970   9.336   4.055
 5066WAT     H115440   3.013   9.376   4.136
 5066WAT     H215441   3.030   9.349   3.976
 5067WAT      O15442   9.074   0.263   0.164
 5067WAT     H115443   9.054   0.323   0.242
 5067WAT     H215444   9.111   0.176   0.198
 5068WAT      O15445   5.796   0.326   8.635
 5068WAT     H115446   5.753   0.267   8.566
 5068WAT     H215447   5.892   0.342   8.609
 5069WAT      O15448   3.445   8.735   7.762
 5069WAT     H115449   3.535   8.737   7.806
 5069WAT     H215450   3.446   8.794   7.682
 5070WAT      O15451   7.287   1.823   0.249
 5070WAT     H115452   7.290   1.922   0.261
 5070WAT     H215453   7.305   1.801   0.153
 5071WAT      O15454   3.616   5.952   4.131
 5071WAT     H115455   3.607   5.855   4.106
 5071WAT     H215456   3.525   5.990   4.150
 5072WAT      O15457   1.644   6.951   0.243
 5072WAT     H115458   1.678   6.899   0.321
 5072WAT     H215459   1.720   6.998   0.198
 5073WAT      O15460   7.093   5.125   4.825
 5073WAT     H115461   7.154   5.164   4.755
 5073WAT     H215462   7.146   5.067   4.887
 5074WAT      O15463   1.551   0.694   1.583
 5074WAT     H115464   1.488   0.663   1.511
 5074WAT     H215465   1.511   0.771   1.632
 5075WAT      O15466   6.942   7.217   4.853
 5075WAT     H115467   6.972   7.200   4.759
 5075WAT     H215468   6.860   7.275   4.852
 5076WAT      O15469   2.478   2.899   9.080
 5076WAT     H115470   2.502   2.804   9.061
 5076WAT     H215471   2.445   2.907   9.174
 5077WAT      O15472   9.722   0.732   9.309
 5077WAT     H115473   9.653   0.743   9.381
 5077WAT     H215474   9.789   0.663   9.337
 5078WAT      O15475   6.158   6.083   2.058
 5078WAT     H115476   6.124   6.173   2.087
 5078WAT     H215477   6.254   6.091   2.031
 5079WAT      O15478   0.097   1.304   2.643
 5079WAT     H115479   0.182   1.329   2.688
 5079WAT     H215480   0.117   1.272   2.550
 5080WAT      O15481   1.654   3.101   1.144
 5080WAT     H115482   1.560   3.132   1.156
 5080WAT     H215483   1.655   3.002   1.130
 5081WAT      O15484   3.727   0.404   7.958
 5081WAT     H115485   3.731   0.366   7.866
 5081WAT     H215486   3.801   0.366   8.013
 5082WAT      O15487   9.496   9.296   3.375
 5082WAT     H115488   9.512   9.351   3.293
 5082WAT     H215489   9.399   9.269   3.379
 5083WAT      O15490   8.480   4.170   6.368
 5083WAT     H115491   8.484   4.270   6.363
 5083WAT     H215492   8.390   4.141   6.400
 5084WAT      O15493   6.021   0.700   5.458
 5084WAT     H115494   6.034   0.792   5.422
 5084WAT     H215495   6.062   0.634   5.395
 5085WAT      O15496   2.637   7.101   2.467
 5085WAT     H115497   2.651   7.046   2.549
 5085WAT     H215498   2.562   7.165   2.482
 5086WAT      O15499   4.171   4.893   4.804
 5086WAT     H115500   4.104   4.918   4.733
 5086WAT     H215501   4.219   4.976   4.834
 5087WAT      O15502   0.340   8.245   2.489
 5087WAT     H115503   0.396   8.162   2.493
 5087WAT     H215504   0.342   8.291   2.578
 5088WAT      O15505   0.132   5.904   0.123
 5088WAT     H115506   0.184   5.819   0.126
 5088WAT     H215507   0.129   5.945   0.214
 5089WAT      O15508   6.588   1.195   5.590
 5089WAT     H115509   6.618   1.252   5.513
 5089WAT     H215510   6.569   1.252   5.670
 5090WAT      O15511   0.000   3.163   3.671
 5090WAT     H115512  -0.062   3.220   3.724
 5090WAT     H215513   0.079   3.217   3.643
 5091WAT      O15514   9.433   8.352   0.399
 5091WAT     H115515   9.496   8.351   0.477
 5091WAT     H215516   9.381   8.267   0.398
 5092WAT      O15517   3.748   8.951   5.930
 5092WAT     H115518   3.710   8.910   6.012
 5092WAT     H215519   3.675   8.971   5.865
 5093WAT      O15520   7.574   9.469   2.733
 5093WAT     H115521   7.562   9.470   2.832
 5093WAT     H215522   7.615   9.382   2.705
 5094WAT      O15523   1.050   6.006   1.713
 5094WAT     H115524   0.989   6.072   1.669
 5094WAT     H215525   1.021   5.913   1.690
 5095WAT      O15526   7.415   8.432   3.196
 5095WAT     H115527   7.369   8.364   3.139
 5095WAT     H215528   7.489   8.474   3.145
 5096WAT      O15529   0.877   5.889   4.680
 5096WAT     H115530   0.837   5.894   4.771
 5096WAT     H215531   0.808   5.913   4.612
 5097WAT      O15532   4.602   2.929   3.862
 5097WAT     H115533   4.633   2.839   3.832
 5097WAT     H215534   4.625   2.941   3.959
 5098WAT      O15535   3.445   9.831   9.759
 5098WAT     H115536   3.507   9.849   9.683
 5098WAT     H215537   3.400   9.742   9.746
 5099WAT      O15538   8.157   4.794   7.438
 5099WAT     H115539   8.190   4.888   7.445
 5099WAT     H215540   8.232   4.730   7.455
 5100WAT      O15541   9.063   4.717   4.679
 5100WAT     H115542   9.011   4.644   4.633
 5100WAT     H215543   9.161   4.705   4.661
 5101WAT      O15544   9.875   2.715   3.279
 5101WAT     H115545   9.838   2.737   3.369
 5101WAT     H215546   9.972   2.690   3.288
 5102WAT      O15547   8.903   1.162   3.601
 5102WAT     H115548   9.000   1.136   3.602
 5102WAT     H215549   8.893   1.249   3.551
 5103WAT      O15550   0.789   1.121   0.731
 5103WAT     H115551   0.872   1.140   0.784
 5103WAT     H215552   0.774   1.023   0.727
 5104WAT      O15553   8.575   1.741   5.659
 5104WAT     H115554   8.581   1.646   5.690
 5104WAT     H215555   8.482   1.760   5.627
 5105WAT      O15556   1.850   2.164   1.146
 5105WAT     H115557   1.821   2.089   1.086
 5105WAT     H215558   1.794   2.163   1.229
 5106WAT      O15559   7.014   3.897   4.909
 5106WAT     H115560   6.927   3.879   4.862
 5106WAT     H215561   6.998   3.961   4.984
 5107WAT      O15562   2.638   4.966   0.805
 5107WAT     H115563   2.560   5.003   0.754
 5107WAT     H215564   2.628   4.987   0.902
 5108WAT      O15565   3.841   4.203   5.180
 5108WAT     H115566   3.863   4.108   5.159
 5108WAT     H215567   3.750   4.225   5.145
 5109WAT      O15568   5.562   6.099   6.370
 5109WAT     H115569   5.558   6.141   6.461
 5109WAT     H215570   5.653   6.063   6.354
 5110WAT      O15571   4.547   3.913   0.640
 5110WAT     H115572   4.476   3.847   0.666
 5110WAT     H215573   4.617   3.867   0.585
 5111WAT      O15574   1.915   2.377   3.468
 5111WAT     H115575   1.879   2.285   3.486
 5111WAT     H215576   1.842   2.434   3.430
 5112WAT      O15577   7.412   3.334   7.719
 5112WAT     H115578   7.474   3.354   7.795
 5112WAT     H215579   7.390   3.418   7.670
 5113WAT      O15580   0.464   2.974   5.741
 5113WAT     H115581   0.395   2.905   5.720
 5113WAT     H215582   0.521   2.990   5.660
 5114WAT      O15583   1.572   5.143   4.097
 5114WAT     H115584   1.490   5.172   4.048
 5114WAT     H215585   1.647   5.206   4.077
 5115WAT      O15586   3.264   3.989   9.692
 5115WAT     H115587   3.321   3.944   9.760
 5115WAT     H215588   3.296   3.963   9.600
 5116WAT      O15589   4.193   4.396   5.121
 5116WAT     H115590   4.282   4.432   5.094
 5116WAT     H215591   4.182   4.304   5.084
 5117WAT      O15592   5.962   3.777   4.009
 5117WAT     H115593   5.875   3.727   4.007
 5117WAT     H215594   6.034   3.717   4.043
 5118WAT      O15595   7.753   2.704   8.054
 5118WAT     H115596   7.704   2.764   7.990
 5118WAT     H215597   7.789   2.625   8.004
 5119WAT      O15598   7.878   9.829   3.846
 5119WAT     H115599   7.864   9.795   3.939
 5119WAT     H215600   7.908   9.754   3.787
 5120WAT      O15601   4.620   4.278   5.462
 5120WAT     H115602   4.592   4.205   5.524
 5120WAT     H215603   4.718   4.270   5.444
 5121WAT      O15604   5.529   8.250   3.684
 5121WAT     H115605   5.601   8.193   3.645
 5121WAT     H215606   5.562   8.292   3.769
 5122WAT      O15607   2.981   9.277   3.635
 5122WAT     H115608   2.945   9.367   3.660
 5122WAT     H215609   2.905   9.216   3.613
 5123WAT      O15610   0.265   1.975   5.355
 5123WAT     H115611   0.274   2.003   5.450
 5123WAT     H215612   0.176   1.932   5.341
 5124WAT      O15613   3.990   1.182   7.173
 5124WAT     H115614   3.948   1.120   7.107
 5124WAT     H215615   3.945   1.171   7.262
 5125WAT      O15616   7.079   6.620   0.570
 5125WAT     H115617   7.079   6.703   0.514
 5125WAT     H215618   7.115   6.642   0.661
 5126WAT      O15619   1.075   3.047   0.937
 5126WAT     H115620   1.088   2.949   0.921
 5126WAT     H215621   1.158   3.096   0.911
 5127WAT      O15622   7.713   9.629   3.383
 5127WAT     H115623   7.799   9.597   3.422
 5127WAT     H215624   7.727   9.651   3.286
 5128WAT      O15625   2.187   8.594   0.129
 5128WAT     H115626   2.109   8.538   0.156
 5128WAT     H215627   2.156   8.670   0.073
 5129WAT      O15628   9.646   3.568   1.164
 5129WAT     H115629   9.694   3.530   1.243
 5129WAT     H215630   9.574   3.629   1.195
 5130WAT      O15631   7.100   1.616   7.286
 5130WAT     H115632   7.177   1.599   7.224
 5130WAT     H215633   7.022   1.651   7.234
 5131WAT      O15634   1.211   8.303   3.808
 5131WAT     H115635   1.128   8.313   3.753
 5131WAT     H215636   1.265   8.226   3.774
 5132WAT      O15637   0.460   3.433   3.425
 5132WAT     H115638   0.500   3.486   3.350
 5132WAT     H215639   0.372   3.471   3.450
 5133WAT      O15640   5.164   5.753   7.040
 5133WAT     H115641   5.132   5.697   6.963
 5133WAT     H215642   5.183   5.846   7.008
 5134WAT      O15643   9.145   7.130   4.726
 5134WAT     H115644   9.093   7.098   4.646
 5134WAT     H215645   9.233   7.083   4.729
 5135WAT      O15646   6.825   6.563   0.239
 5135WAT     H115647   6.853   6.504   0.315
 5135WAT     H215648   6.904   6.614   0.205
 5136WAT      O15649   6.393   8.141   1.749
 5136WAT     H115650   6.451   8.218   1.775
 5136WAT     H215651   6.381   8.141   1.649
 5137WAT      O15652   5.029   6.464   7.835
 5137WAT     H115653   5.110   6.521   7.817
 5137WAT     H215654   4.949   6.523   7.844
 5138WAT      O15655   5.459   1.266   0.239
 5138WAT     H115656   5.514   1.228   0.314
 5138WAT     H215657   5.425   1.356   0.265
 5139WAT      O15658   8.733   1.806   0.647
 5139WAT     H115659   8.654   1.858   0.617
 5139WAT     H215660   8.811   1.825   0.587
 5140WAT      O15661   0.929   9.249   4.025
 5140WAT     H115662   0.862   9.283   4.091
 5140WAT     H215663   0.886   9.241   3.935
 5141WAT      O15664   8.202   4.506   3.599
 5141WAT     H115665   8.295   4.517   3.564
 5141WAT     H215666   8.141   4.570   3.552
 5142WAT      O15667   8.188   6.040   4.803
 5142WAT     H115668   8.210   5.968   4.738
 5142WAT     H215669   8.230   6.018   4.892
 5143WAT      O15670   6.740   3.202   0.841
 5143WAT     H115671   6.831   3.218   0.878
 5143WAT     H215672   6.693   3.132   0.896
 5144WAT      O15673   7.934   9.051   3.070
 5144WAT     H115674   7.961   8.979   3.134
 5144WAT     H215675   7.907   9.132   3.121
 5145WAT      O15676   7.592   2.411   3.379
 5145WAT     H115677   7.660   2.466   3.428
 5145WAT     H215678   7.636   2.361   3.304
 5146WAT      O15679   1.963   4.731   9.031
 5146WAT     H115680   1.983   4.637   9.060
 5146WAT     H215681   2.048   4.778   9.008
 5147WAT      O15682   7.565   6.644   1.991
 5147WAT     H115683   7.491   6.621   2.053
 5147WAT     H215684   7.653   6.624   2.034
 5148WAT      O15685   2.126   8.359   6.207
 5148WAT     H115686   2.056   8.417   6.248
 5148WAT     H215687   2.083   8.288   6.151
 5149WAT      O15688   4.854   1.240   1.213
 5149WAT     H115689   4.838   1.145   1.240
 5149WAT     H215690   4.881   1.243   1.116
 5150WAT      O15691   9.575   5.626   1.512
 5150WAT     H115692   9.556   5.538   1.555
 5150WAT     H215693   9.550   5.621   1.415
 5151WAT      O15694   6.062   8.786   2.288
 5151WAT     H115695   6.104   8.742   2.367
 5151WAT     H215696   6.090   8.881   2.284
 5152WAT      O15697   8.138   7.475   7.390
 5152WAT     H115698   8.084   7.393   7.405
 5152WAT     H215699   8.195   7.464   7.308
 5153WAT      O15700   0.006   7.861   8.336
 5153WAT     H115701   0.008   7.846   8.237
 5153WAT     H215702  -0.017   7.956   8.354
 5154WAT      O15703   3.727   4.677   1.984
 5154WAT     H115704   3.689   4.708   2.071
 5154WAT     H215705   3.675   4.597   1.952
 5155WAT      O15706   7.354   9.712   7.327
 5155WAT     H115707   7.284   9.772   7.288
 5155WAT     H215708   7.314   9.622   7.345
 5156WAT      O15709   3.352   2.557   8.084
 5156WAT     H115710   3.439   2.585   8.042
 5156WAT     H215711   3.293   2.637   8.096
 5157WAT      O15712   8.737   4.642   8.704
 5157WAT     H115713   8.792   4.649   8.788
 5157WAT     H215714   8.677   4.563   8.711
 5158WAT      O15715   4.605   7.234   3.062
 5158WAT     H115716   4.673   7.163   3.043
 5158WAT     H215717   4.550   7.208   3.142
 5159WAT      O15718   5.778   8.451   7.376
 5159WAT     H115719   5.849   8.441   7.446
 5159WAT     H215720   5.815   8.504   7.299
 5160WAT      O15721   0.165   9.388   2.863
 5160WAT     H115722   0.099   9.402   2.790
 5160WAT     H215723   0.234   9.460   2.861
 5161WAT      O15724   7.975   7.093   6.347
 5161WAT     H115725   7.979   7.141   6.259
 5161WAT     H215726   8.006   6.998   6.334
 5162WAT      O15727   6.652   7.824   2.539
 5162WAT     H115728   6.730   7.827   2.478
 5162WAT     H215729   6.636   7.915   2.578
 5163WAT      O15730   0.690   8.700   2.112
 5163WAT     H115731   0.715   8.613   2.070
 5163WAT     H215732   0.738   8.709   2.200
 5164WAT      O15733   4.883   4.649   5.164
 5164WAT     H115734   4.842   4.730   5.207
 5164WAT     H215735   4.911   4.673   5.071
 5165WAT      O15736   8.476   9.326   4.198
 5165WAT     H115737   8.489   9.294   4.104
 5165WAT     H215738   8.538   9.402   4.217
 5166WAT      O15739   6.726   3.601   1.386
 5166WAT     H115740   6.715   3.680   1.445
 5166WAT     H215741   6.678   3.617   1.300
 5167WAT      O15742   4.226   0.777   5.516
 5167WAT     H115743   4.228   0.703   5.584
 5167WAT     H215744   4.320   0.805   5.495
 5168WAT      O15745   9.502   0.249   8.832
 5168WAT     H115746   9.582   0.235   8.775
 5168WAT     H215747   9.485   0.168   8.888
 5169WAT      O15748   8.333   2.559   9.270
 5169WAT     H115749   8.261   2.490   9.271
 5169WAT     H215750   8.306   2.634   9.210
 5170WAT      O15751   7.270   3.505   9.755
 5170WAT     H115752   7.282   3.568   9.832
 5170WAT     H215753   7.172   3.495   9.736
 5171WAT      O15754   6.420   3.715   7.958
 5171WAT     H115755   6.421   3.769   8.042
 5171WAT     H215756   6.386   3.623   7.978
 5172WAT      O15757   7.304   6.774   9.685
 5172WAT     H115758   7.336   6.813   9.772
 5172WAT     H215759   7.240   6.699   9.703
 5173WAT      O15760   0.395   4.290   3.713
 5173WAT     H115761   0.306   4.293   3.667
 5173WAT     H215762   0.426   4.384   3.732
 5174WAT      O15763   0.980   0.609   6.137
 5174WAT     H115764   1.037   0.672   6.191
 5174WAT     H215765   0.905   0.576   6.193
 5175WAT      O15766   2.258   1.337   8.561
 5175WAT     H115767   2.292   1.424   8.597
 5175WAT     H215768   2.335   1.281   8.530
 5176WAT      O15769   3.293   1.329   9.631
 5176WAT     H115770   3.263   1.415   9.671
 5176WAT     H215771   3.328   1.269   9.703
 5177WAT      O15772   4.504   0.910   5.396
 5177WAT     H115773   4.602   0.899   5.378
 5177WAT     H215774   4.460   0.951   5.317
 5178WAT      O15775   8.269   7.538   6.665
 5178WAT     H115776   8.196   7.602   6.688
 5178WAT     H215777   8.279   7.471   6.739
 5179WAT      O15778   8.359   4.912   1.346
 5179WAT     H115779   8.404   4.912   1.435
 5179WAT     H215780   8.391   4.833   1.292
 5180WAT      O15781   2.675   0.793   7.102
 5180WAT     H115782   2.668   0.732   7.181
 5180WAT     H215783   2.626   0.878   7.120
 5181WAT      O15784   7.083   8.552   6.657
 5181WAT     H115785   7.037   8.545   6.745
 5181WAT     H215786   7.076   8.464   6.609
 5182WAT      O15787   2.275   5.405   4.914
 5182WAT     H115788   2.305   5.431   5.005
 5182WAT     H215789   2.332   5.451   4.846
 5183WAT      O15790   8.224   2.892   6.319
 5183WAT     H115791   8.258   2.959   6.385
 5183WAT     H215792   8.124   2.891   6.321
 5184WAT      O15793   5.294   9.296   2.213
 5184WAT     H115794   5.341   9.379   2.186
 5184WAT     H215795   5.331   9.262   2.299
 5185WAT      O15796   8.877   0.590   8.860
 5185WAT     H115797   8.794   0.645   8.846
 5185WAT     H215798   8.955   0.650   8.876
 5186WAT      O15799   0.804   1.209   2.129
 5186WAT     H115800   0.734   1.195   2.059
 5186WAT     H215801   0.759   1.216   2.219
 5187WAT      O15802   6.956   3.517   2.264
 5187WAT     H115803   6.943   3.471   2.176
 5187WAT     H215804   6.886   3.486   2.329
 5188WAT      O15805   1.672   1.739   3.400
 5188WAT     H115806   1.706   1.720   3.492
 5188WAT     H215807   1.732   1.805   3.356
 5189WAT      O15808   3.924   2.399   7.332
 5189WAT     H115809   3.852   2.341   7.295
 5189WAT     H215810   3.969   2.449   7.257
 5190WAT      O15811   0.602   0.374   3.495
 5190WAT     H115812   0.613   0.386   3.397
 5190WAT     H215813   0.650   0.447   3.543
 5191WAT      O15814   0.759   8.566   1.737
 5191WAT     H115815   0.849   8.605   1.757
 5191WAT     H215816   0.727   8.513   1.815
 5192WAT      O15817   2.961   4.735   7.548
 5192WAT     H115818   2.892   4.765   7.482
 5192WAT     H215819   2.927   4.747   7.641
 5193WAT      O15820   7.343   2.838   4.942
 5193WAT     H115821   7.265   2.881   4.989
 5193WAT     H215822   7.308   2.771   4.876
 5194WAT      O15823   3.446   9.685   0.488
 5194WAT     H115824   3.359   9.642   0.511
 5194WAT     H215825   3.437   9.738   0.404
 5195WAT      O15826   1.977   9.394   7.665
 5195WAT     H115827   1.984   9.318   7.729
 5195WAT     H215828   1.892   9.444   7.682
 5196WAT      O15829   6.122   4.513   5.978
 5196WAT     H115830   6.131   4.416   5.954
 5196WAT     H215831   6.107   4.566   5.894
 5197WAT      O15832   6.578   2.645   4.027
 5197WAT     H115833   6.532   2.564   4.063
 5197WAT     H215834   6.581   2.641   3.927
 5198WAT      O15835   2.348   1.348   9.034
 5198WAT     H115836   2.260   1.309   9.010
 5198WAT     H215837   2.402   1.280   9.085
 5199WAT      O15838   6.289   4.139   0.443
 5199WAT     H115839   6.359   4.077   0.478
 5199WAT     H215840   6.201   4.119   0.487
 5200WAT      O15841   7.813   8.179   3.337
 5200WAT     H115842   7.767   8.247   3.279
 5200WAT     H215843   7.911   8.196   3.336
 5201WAT      O15844   8.188   5.441   9.064
 5201WAT     H115845   8.131   5.493   9.000
 5201WAT     H215846   8.134   5.367   9.104
 5202WAT      O15847   1.224   7.852   5.321
 5202WAT     H115848   1.146   7.792   5.305
 5202WAT     H215849   1.284   7.850   5.241
 5203WAT      O15850   5.550   8.272   0.168
 5203WAT     H115851   5.526   8.177   0.190
 5203WAT     H215852   5.471   8.331   0.183
 5204WAT      O15853   7.763   3.394   2.775
 5204WAT     H115854   7.834   3.344   2.825
 5204WAT     H215855   7.752   3.485   2.815
 5205WAT      O15856   9.424   6.121   6.847
 5205WAT     H115857   9.376   6.076   6.922
 5205WAT     H215858   9.399   6.218   6.845
 5206WAT      O15859   9.366   9.280   4.896
 5206WAT     H115860   9.291   9.255   4.958
 5206WAT     H215861   9.348   9.369   4.855
 5207WAT      O15862   7.728   2.260   5.331
 5207WAT     H115863   7.739   2.268   5.430
 5207WAT     H215864   7.676   2.178   5.309
 5208WAT      O15865   5.441   5.256   8.751
 5208WAT     H115866   5.523   5.201   8.744
 5208WAT     H215867   5.375   5.211   8.812
 5209WAT      O15868   7.283   7.649   8.732
 5209WAT     H115869   7.362   7.646   8.793
 5209WAT     H215870   7.224   7.570   8.749
 5210WAT      O15871   7.276   5.203   4.635
 5210WAT     H115872   7.305   5.260   4.559
 5210WAT     H215873   7.337   5.123   4.643
 5211WAT      O15874   9.585   5.339   2.107
 5211WAT     H115875   9.624   5.250   2.129
 5211WAT     H215876   9.490   5.328   2.077
 5212WAT      O15877   1.128   0.686   6.539
 5212WAT     H115878   1.146   0.587   6.539
 5212WAT     H215879   1.040   0.703   6.496
 5213WAT      O15880   4.727   1.836   4.742
 5213WAT     H115881   4.751   1.750   4.786
 5213WAT     H215882   4.809   1.877   4.701
 5214WAT      O15883   4.216   7.531   6.211
 5214WAT     H115884   4.246   7.445   6.252
 5214WAT     H215885   4.265   7.607   6.255
 5215WAT      O15886   3.766   5.102   0.063
 5215WAT     H115887   3.693   5.126   0.127
 5215WAT     H215888   3.803   5.185   0.022
 5216WAT      O15889   2.168   8.876   7.804
 5216WAT     H115890   2.244   8.932   7.839
 5216WAT     H215891   2.104   8.934   7.754
 5217WAT      O15892   3.845   1.425   2.218
 5217WAT     H115893   3.856   1.486   2.296
 5217WAT     H215894   3.879   1.334   2.242
 5218WAT      O15895   2.120   1.296   4.127
 5218WAT     H115896   2.072   1.380   4.107
 5218WAT     H215897   2.206   1.293   4.075
 5219WAT      O15898   1.960   1.287   3.824
 5219WAT     H115899   1.893   1.270   3.897
 5219WAT     H215900   2.005   1.202   3.799
 5220WAT      O15901   4.218   6.079   1.505
 5220WAT     H115902   4.199   6.135   1.424
 5220WAT     H215903   4.134   6.064   1.557
 5221WAT      O15904   9.850   0.525   3.567
 5221WAT     H115905   9.841   0.427   3.587
 5221WAT     H215906   9.832   0.541   3.470
 5222WAT      O15907   4.354   8.264   4.217
 5222WAT     H115908   4.398   8.348   4.250
 5222WAT     H215909   4.418   8.187   4.228
 5223WAT      O15910   6.489   7.530   4.461
 5223WAT     H115911   6.439   7.611   4.429
 5223WAT     H215912   6.569   7.515   4.402
 5224WAT      O15913   3.987   7.082   9.720
 5224WAT     H115914   4.072   7.030   9.722
 5224WAT     H215915   3.919   7.033   9.664
 5225WAT      O15916   7.862   1.359   5.927
 5225WAT     H115917   7.857   1.448   5.973
 5225WAT     H215918   7.840   1.370   5.830
 5226WAT      O15919   2.220   9.272   8.369
 5226WAT     H115920   2.225   9.354   8.426
 5226WAT     H215921   2.137   9.222   8.390
 5227WAT      O15922   5.234   0.282   8.046
 5227WAT     H115923   5.202   0.367   8.006
 5227WAT     H215924   5.206   0.205   7.988
 5228WAT      O15925   8.060   7.660   6.764
 5228WAT     H115926   8.073   7.719   6.844
 5228WAT     H215927   7.998   7.585   6.788
 5229WAT      O15928   4.029   5.080   3.063
 5229WAT     H115929   4.056   5.006   3.125
 5229WAT     H215930   3.989   5.155   3.116
 5230WAT      O15931   2.735   3.884   1.514
 5230WAT     H115932   2.682   3.817   1.462
 5230WAT     H215933   2.708   3.880   1.611
 5231WAT      O15934   6.207   6.539   2.766
 5231WAT     H115935   6.238   6.532   2.861
 5231WAT     H215936   6.213   6.449   2.723
 5232WAT      O15937   7.265   3.194   5.182
 5232WAT     H115938   7.361   3.173   5.163
 5232WAT     H215939   7.259   3.255   5.261
 5233WAT      O15940   5.375   7.312   6.669
 5233WAT     H115941   5.342   7.279   6.757
 5233WAT     H215942   5.336   7.257   6.596
 5234WAT      O15943   4.769   9.181   5.917
 5234WAT     H115944   4.731   9.154   5.828
 5234WAT     H215945   4.801   9.276   5.912
 5235WAT      O15946   1.548   8.842   5.145
 5235WAT     H115947   1.633   8.813   5.187
 5235WAT     H215948   1.526   8.935   5.175
 5236WAT      O15949   7.336   0.476   0.725
 5236WAT     H115950   7.305   0.447   0.815
 5236WAT     H215951   7.428   0.515   0.731
 5237WAT      O15952   5.366   1.796   9.328
 5237WAT     H115953   5.415   1.781   9.414
 5237WAT     H215954   5.283   1.849   9.346
 5238WAT      O15955   9.261   4.933   6.405
 5238WAT     H115956   9.224   5.003   6.344
 5238WAT     H215957   9.209   4.849   6.396
 5239WAT      O15958   4.127   0.268   1.838
 5239WAT     H115959   4.138   0.345   1.901
 5239WAT     H215960   4.217   0.226   1.821
 5240WAT      O15961   5.728   9.153   6.771
 5240WAT     H115962   5.819   9.118   6.793
 5240WAT     H215963   5.673   9.159   6.855
 5241WAT      O15964   3.996   7.091   2.450
 5241WAT     H115965   3.969   7.168   2.509
 5241WAT     H215966   4.040   7.021   2.505
 5242WAT      O15967   8.921   3.918   4.193
 5242WAT     H115968   8.885   4.001   4.236
 5242WAT     H215969   9.019   3.909   4.214
 5243WAT      O15970   4.780   0.975   1.256
 5243WAT     H115971   4.808   0.911   1.327
 5243WAT     H215972   4.684   0.961   1.234
 5244WAT      O15973   4.494   9.733   7.996
 5244WAT     H115974   4.508   9.790   8.077
 5244WAT     H215975   4.556   9.654   8.000
 5245WAT      O15976   9.875   5.902   4.002
 5245WAT     H115977   9.786   5.924   4.043
 5245WAT     H215978   9.929   5.849   4.068
 5246WAT      O15979   3.449   7.216   9.169
 5246WAT     H115980   3.400   7.153   9.229
 5246WAT     H215981   3.388   7.246   9.095
 5247WAT      O15982   4.826   8.517   0.685
 5247WAT     H115983   4.774   8.588   0.636
 5247WAT     H215984   4.763   8.443   0.710
 5248WAT      O15985   3.205   0.252   7.890
 5248WAT     H115986   3.198   0.176   7.955
 5248WAT     H215987   3.259   0.326   7.930
 5249WAT      O15988   6.018   9.295   2.596
 5249WAT     H115989   6.031   9.351   2.515
 5249WAT     H215990   6.083   9.323   2.667
 5250WAT      O15991   8.376   8.325   8.607
 5250WAT     H115992   8.385   8.402   8.670
 5250WAT     H215993   8.293   8.337   8.552
 5251WAT      O15994   7.022   3.968   7.469
 5251WAT     H115995   6.944   3.919   7.509
 5251WAT     H215996   7.107   3.925   7.498
 5252WAT      O15997   2.857   8.374   1.327
 5252WAT     H115998   2.849   8.290   1.380
 5252WAT     H215999   2.933   8.367   1.264
 5253WAT      O16000   2.235   9.523   8.471
 5253WAT     H116001   2.155   9.584   8.471
 5253WAT     H216002   2.305   9.560   8.410
 5254WAT      O16003   9.121   2.104   6.323
 5254WAT     H116004   9.203   2.144   6.366
 5254WAT     H216005   9.064   2.177   6.286
 5255WAT      O16006   3.478   9.693   7.083
 5255WAT     H116007   3.537   9.654   7.012
 5255WAT     H216008   3.432   9.775   7.047
 5256WAT      O16009   5.792   5.495   0.349
 5256WAT     H116010   5.817   5.470   0.443
 5256WAT     H216011   5.876   5.513   0.297
 5257WAT      O16012   0.949   1.717   9.861
 5257WAT     H116013   1.007   1.636   9.868
 5257WAT     H216014   0.901   1.731   9.948
 5258WAT      O16015   5.484   1.300   0.798
 5258WAT     H116016   5.470   1.311   0.896
 5258WAT     H216017   5.396   1.313   0.750
 5259WAT      O16018   6.139   8.144   8.415
 5259WAT     H116019   6.113   8.049   8.431
 5259WAT     H216020   6.220   8.147   8.357
 5260WAT      O16021   9.611   9.133   4.850
 5260WAT     H116022   9.519   9.167   4.868
 5260WAT     H216023   9.673   9.163   4.923
 5261WAT      O16024   5.061   3.516   6.075
 5261WAT     H116025   5.104   3.501   6.164
 5261WAT     H216026   4.995   3.443   6.057
 5262WAT      O16027   1.441   0.644   2.790
 5262WAT     H116028   1.487   0.641   2.879
 5262WAT     H216029   1.485   0.579   2.728
 5263WAT      O16030   6.014   4.839   1.511
 5263WAT     H116031   6.085   4.905   1.537
 5263WAT     H216032   6.045   4.747   1.534
 5264WAT      O16033   1.624   2.347   6.960
 5264WAT     H116034   1.620   2.302   7.049
 5264WAT     H216035   1.676   2.290   6.897
 5265WAT      O16036   6.953   0.875   6.920
 5265WAT     H116037   6.863   0.868   6.964
 5265WAT     H216038   6.976   0.789   6.876
 5266WAT      O16039   2.494   1.162   8.512
 5266WAT     H116040   2.480   1.217   8.430
 5266WAT     H216041   2.582   1.187   8.554
 5267WAT      O16042   7.906   3.319   0.061
 5267WAT     H116043   7.891   3.225   0.092
 5267WAT     H216044   7.861   3.333  -0.027
 5268WAT      O16045   0.043   9.447   1.717
 5268WAT     H116046  -0.013   9.510   1.770
 5268WAT     H216047   0.128   9.428   1.767
 5269WAT      O16048   7.192   3.249   1.314
 5269WAT     H116049   7.249   3.294   1.382
 5269WAT     H216050   7.099   3.239   1.349
 5270WAT      O16051   9.450   0.936   5.520
 5270WAT     H116052   9.385   0.870   5.484
 5270WAT     H216053   9.438   1.024   5.474
 5271WAT      O16054   2.954   5.883   1.054
 5271WAT     H116055   2.862   5.844   1.052
 5271WAT     H216056   2.949   5.981   1.068
 5272WAT      O16057   6.050   4.657   8.619
 5272WAT     H116058   6.002   4.578   8.582
 5272WAT     H216059   5.985   4.732   8.631
 5273WAT      O16060   0.232   5.162   7.003
 5273WAT     H116061   0.146   5.189   6.959
 5273WAT     H216062   0.294   5.240   7.006
 5274WAT      O16063   1.194   2.669   8.283
 5274WAT     H116064   1.106   2.667   8.330
 5274WAT     H216065   1.209   2.759   8.243
 5275WAT      O16066   7.410   8.288   9.866
 5275WAT     H116067   7.385   8.253   9.956
 5275WAT     H216068   7.504   8.262   9.845
 5276WAT      O16069   4.894   1.157   9.592
 5276WAT     H116070   4.883   1.256   9.600
 5276WAT     H216071   4.928   1.120   9.679
 5277WAT      O16072   1.905   8.255   9.677
 5277WAT     H116073   1.904   8.155   9.688
 5277WAT     H216074   1.930   8.297   9.764
 5278WAT      O16075   3.403   0.093   3.765
 5278WAT     H116076   3.363   0.167   3.818
 5278WAT     H216077   3.423   0.016   3.826
 5279WAT      O16078   8.165   6.291   1.928
 5279WAT     H116079   8.110   6.289   2.012
 5279WAT     H216080   8.104   6.281   1.849
 5280WAT      O16081   9.394   0.626   9.189
 5280WAT     H116082   9.440   0.540   9.214
 5280WAT     H216083   9.359   0.619   9.096
 5281WAT      O16084   2.687   2.741   7.467
 5281WAT     H116085   2.775   2.755   7.421
 5281WAT     H216086   2.688   2.653   7.514
 5282WAT      O16087   5.562   7.200   2.628
 5282WAT     H116088   5.488   7.185   2.561
 5282WAT     H216089   5.547   7.286   2.676
 5283WAT      O16090   4.820   0.116   4.730
 5283WAT     H116091   4.736   0.098   4.781
 5283WAT     H216092   4.828   0.051   4.654
 5284WAT      O16093   7.481   6.027   8.503
 5284WAT     H116094   7.568   6.017   8.551
 5284WAT     H216095   7.441   5.936   8.486
 5285WAT      O16096   2.111   4.755   6.119
 5285WAT     H116097   2.130   4.692   6.043
 5285WAT     H216098   2.027   4.805   6.100
 5286WAT      O16099   1.414   7.184   4.998
 5286WAT     H116100   1.336   7.229   5.042
 5286WAT     H216101   1.466   7.251   4.945
 5287WAT      O16102   1.477   0.469   5.575
 5287WAT     H116103   1.496   0.421   5.660
 5287WAT     H216104   1.559   0.520   5.546
 5288WAT      O16105   3.956   1.518   7.271
 5288WAT     H116106   4.014   1.498   7.192
 5288WAT     H216107   3.863   1.484   7.253
 5289WAT      O16108   8.068   1.001   2.958
 5289WAT     H116109   8.107   1.072   2.901
 5289WAT     H216110   8.026   0.931   2.900
 5290WAT      O16111   5.211   1.280   9.687
 5290WAT     H116112   5.239   1.184   9.694
 5290WAT     H216113   5.242   1.317   9.600
 5291WAT      O16114   0.619   0.497   7.031
 5291WAT     H116115   0.572   0.568   6.979
 5291WAT     H216116   0.705   0.532   7.067
 5292WAT      O16117   5.264   4.743   3.302
 5292WAT     H116118   5.278   4.661   3.357
 5292WAT     H216119   5.211   4.810   3.354
 5293WAT      O16120   3.406   2.619   3.067
 5293WAT     H116121   3.336   2.575   3.010
 5293WAT     H216122   3.444   2.551   3.130
 5294WAT      O16123   3.906   3.055   1.836
 5294WAT     H116124   3.955   3.011   1.761
 5294WAT     H216125   3.836   2.992   1.872
 5295WAT      O16126   8.685   2.481   1.105
 5295WAT     H116127   8.622   2.557   1.119
 5295WAT     H216128   8.638   2.395   1.126
 5296WAT      O16129   3.650   6.015   6.970
 5296WAT     H116130   3.621   5.926   6.935
 5296WAT     H216131   3.581   6.049   7.035
 5297WAT      O16132   0.037   4.713   6.766
 5297WAT     H116133  -0.046   4.725   6.820
 5297WAT     H216134   0.058   4.615   6.761
 5298WAT      O16135   4.654   7.782   4.553
 5298WAT     H116136   4.680   7.686   4.553
 5298WAT     H216137   4.702   7.829   4.479
 5299WAT      O16138   5.067   9.619   9.548
 5299WAT     H116139   5.111   9.658   9.629
 5299WAT     H216140   5.024   9.692   9.495
 5300WAT      O16141   4.566   0.803   6.422
 5300WAT     H116142   4.518   0.760   6.346
 5300WAT     H216143   4.632   0.868   6.388
 5301WAT      O16144   7.194   5.560   1.506
 5301WAT     H116145   7.191   5.660   1.505
 5301WAT     H216146   7.289   5.530   1.499
 5302WAT      O16147   4.252   2.619   0.089
 5302WAT     H116148   4.171   2.652   0.041
 5302WAT     H216149   4.273   2.681   0.165
 5303WAT      O16150   0.057   8.464   5.990
 5303WAT     H116151   0.155   8.468   5.972
 5303WAT     H216152   0.042   8.476   6.088
 5304WAT      O16153   6.316   5.001   1.492
 5304WAT     H116154   6.262   5.033   1.570
 5304WAT     H216155   6.263   5.011   1.408
 5305WAT      O16156   7.986   7.179   8.942
 5305WAT     H116157   7.983   7.144   9.036
 5305WAT     H216158   8.038   7.116   8.884
 5306WAT      O16159   0.248   7.581   5.146
 5306WAT     H116160   0.338   7.540   5.128
 5306WAT     H216161   0.204   7.604   5.059
 5307WAT      O16162   1.041   4.060   5.654
 5307WAT     H116163   0.992   4.139   5.690
 5307WAT     H216164   1.125   4.090   5.610
 5308WAT      O16165   2.398   4.382   5.840
 5308WAT     H116166   2.464   4.307   5.838
 5308WAT     H216167   2.324   4.363   5.775
 5309WAT      O16168   3.562   8.992   5.685
 5309WAT     H116169   3.641   8.959   5.633
 5309WAT     H216170   3.478   8.960   5.641
 5310WAT      O16171   3.685   5.238   3.346
 5310WAT     H116172   3.718   5.181   3.422
 5310WAT     H216173   3.761   5.264   3.288
 5311WAT      O16174   6.436   9.744   4.840
 5311WAT     H116175   6.404   9.674   4.776
 5311WAT     H216176   6.418   9.835   4.802
 5312WAT      O16177   3.358   7.740   2.594
 5312WAT     H116178   3.402   7.717   2.508
 5312WAT     H216179   3.414   7.708   2.670
 5313WAT      O16180   7.780   6.886   1.966
 5313WAT     H116181   7.801   6.790   1.985
 5313WAT     H216182   7.838   6.919   1.892
 5314WAT      O16183   8.356   5.162   3.412
 5314WAT     H116184   8.267   5.137   3.450
 5314WAT     H216185   8.399   5.231   3.471
 5315WAT      O16186   7.978   6.509   7.419
 5315WAT     H116187   7.882   6.534   7.406
 5315WAT     H216188   8.018   6.485   7.330
 5316WAT      O16189   5.769   2.893   1.664
 5316WAT     H116190   5.861   2.854   1.658
 5316WAT     H216191   5.709   2.845   1.600
 5317WAT      O16192   8.777   6.395   4.792
 5317WAT     H116193   8.722   6.475   4.765
 5317WAT     H216194   8.716   6.320   4.817
 5318WAT      O16195   1.269   9.050   7.865
 5318WAT     H116196   1.318   8.979   7.916
 5318WAT     H216197   1.327   9.131   7.856
 5319WAT      O16198   8.240   8.859   2.014
 5319WAT     H116199   8.251   8.897   2.106
 5319WAT     H216200   8.143   8.857   1.990
 5320WAT      O16201   1.072   1.375   5.571
 5320WAT     H116202   1.154   1.349   5.520
 5320WAT     H216203   0.992   1.366   5.512
 5321WAT      O16204   5.961   5.785   8.979
 5321WAT     H116205   5.982   5.739   9.065
 5321WAT     H216206   5.990   5.728   8.902
 5322WAT      O16207   3.524   7.160   7.836
 5322WAT     H116208   3.427   7.180   7.847
 5322WAT     H216209   3.537   7.062   7.824
 5323WAT      O16210   8.748   4.527   2.794
 5323WAT     H116211   8.804   4.445   2.807
 5323WAT     H216212   8.684   4.512   2.719
 5324WAT      O16213   8.596   2.154   6.773
 5324WAT     H116214   8.635   2.171   6.863
 5324WAT     H216215   8.660   2.184   6.703
 5325WAT      O16216   4.088   2.746   9.821
 5325WAT     H116217   4.082   2.844   9.841
 5325WAT     H216218   4.038   2.727   9.736
 5326WAT      O16219   4.733   6.314   5.986
 5326WAT     H116220   4.655   6.322   6.048
 5326WAT     H216221   4.712   6.245   5.916
 5327WAT      O16222   4.068   5.987   2.876
 5327WAT     H116223   3.979   6.012   2.838
 5327WAT     H216224   4.073   6.017   2.971
 5328WAT      O16225   2.069   1.989   9.486
 5328WAT     H116226   2.129   1.911   9.466
 5328WAT     H216227   2.017   2.012   9.404
 5329WAT      O16228   9.749   5.698   2.045
 5329WAT     H116229   9.748   5.631   1.970
 5329WAT     H216230   9.749   5.790   2.007
 5330WAT      O16231   0.614   6.916   2.120
 5330WAT     H116232   0.648   6.970   2.043
 5330WAT     H216233   0.550   6.847   2.087
 5331WAT      O16234   8.995   5.229   8.118
 5331WAT     H116235   9.065   5.169   8.080
 5331WAT     H216236   9.038   5.307   8.163
 5332WAT      O16237   6.894   6.724   4.022
 5332WAT     H116238   6.823   6.680   3.968
 5332WAT     H216239   6.965   6.759   3.962
 5333WAT      O16240   5.134   8.931   8.184
 5333WAT     H116241   5.176   8.840   8.177
 5333WAT     H216242   5.051   8.933   8.128
 5334WAT      O16243   5.141   5.159   0.792
 5334WAT     H116244   5.152   5.103   0.874
 5334WAT     H216245   5.231   5.174   0.751
 5335WAT      O16246   7.802   1.617   1.023
 5335WAT     H116247   7.830   1.603   1.119
 5335WAT     H216248   7.834   1.539   0.968
 5336WAT      O16249   4.549   4.754   6.406
 5336WAT     H116250   4.525   4.658   6.400
 5336WAT     H216251   4.643   4.767   6.374
 5337WAT      O16252   3.813   7.164   4.069
 5337WAT     H116253   3.793   7.194   4.162
 5337WAT     H216254   3.843   7.243   4.015
 5338WAT      O16255   3.425   2.446   5.325
 5338WAT     H116256   3.422   2.387   5.244
 5338WAT     H216257   3.466   2.534   5.299
 5339WAT      O16258   6.518   4.938   1.652
 5339WAT     H116259   6.460   4.925   1.571
 5339WAT     H216260   6.483   5.016   1.704
 5340WAT      O16261   1.058   2.161   3.650
 5340WAT     H116262   1.006   2.243   3.630
 5340WAT     H216263   1.069   2.106   3.567
 5341WAT      O16264   5.837   0.292   5.423
 5341WAT     H116265   5.913   0.232   5.401
 5341WAT     H216266   5.754   0.238   5.436
 5342WAT      O16267   8.099   2.582   6.439
 5342WAT     H116268   8.197   2.603   6.432
 5342WAT     H216269   8.066   2.607   6.530
 5343WAT      O16270   2.712   2.413   5.247
 5343WAT     H116271   2.790   2.472   5.225
 5343WAT     H216272   2.628   2.457   5.218
 5344WAT      O16273   4.915   9.438   0.304
 5344WAT     H116274   4.903   9.409   0.399
 5344WAT     H216275   4.904   9.359   0.244
 5345WAT      O16276   3.303   1.535   0.979
 5345WAT     H116277   3.250   1.552   0.896
 5345WAT     H216278   3.314   1.437   0.993
 5346WAT      O16279   7.602   8.192   2.857
 5346WAT     H116280   7.670   8.119   2.862
 5346WAT     H216281   7.512   8.153   2.839
 5347WAT      O16282   2.537   0.340   9.426
 5347WAT     H116283   2.566   0.293   9.342
 5347WAT     H216284   2.615   0.387   9.466
 5348WAT      O16285   1.980   5.359   7.725
 5348WAT     H116286   1.931   5.380   7.640
 5348WAT     H216287   1.990   5.442   7.779
 5349WAT      O16288   3.253   0.253   4.370
 5349WAT     H116289   3.274   0.166   4.327
 5349WAT     H216290   3.160   0.250   4.409
 5350WAT      O16291   9.727   1.731   6.770
 5350WAT     H116292   9.780   1.748   6.853
 5350WAT     H216293   9.780   1.762   6.690
 5351WAT      O16294   3.237   5.215   3.952
 5351WAT     H116295   3.203   5.123   3.970
 5351WAT     H216296   3.304   5.240   4.023
 5352WAT      O16297   1.388   6.765   5.656
 5352WAT     H116298   1.446   6.843   5.679
 5352WAT     H216299   1.292   6.793   5.657
 5353WAT      O16300   6.362   9.233   8.809
 5353WAT     H116301   6.360   9.289   8.726
 5353WAT     H216302   6.405   9.145   8.789
 5354WAT      O16303   9.582   5.422   5.460
 5354WAT     H116304   9.551   5.336   5.421
 5354WAT     H216305   9.638   5.471   5.393
 5355WAT      O16306   8.424   9.729   5.360
 5355WAT     H116307   8.463   9.642   5.390
 5355WAT     H216308   8.371   9.770   5.435
 5356WAT      O16309   8.161   2.066   3.591
 5356WAT     H116310   8.242   2.101   3.543
 5356WAT     H216311   8.079   2.108   3.552
 5357WAT      O16312   8.305   5.933   2.748
 5357WAT     H116313   8.346   5.919   2.658
 5357WAT     H216314   8.207   5.911   2.745
 5358WAT      O16315   3.236   0.828   0.122
 5358WAT     H116316   3.260   0.865   0.032
 5358WAT     H216317   3.182   0.745   0.111
 5359WAT      O16318   8.541   1.086   9.131
 5359WAT     H116319   8.625   1.067   9.081
 5359WAT     H216320   8.504   1.001   9.168
 5360WAT      O16321   3.173   2.356   5.738
 5360WAT     H116322   3.253   2.402   5.698
 5360WAT     H216323   3.189   2.342   5.835
 5361WAT      O16324   1.899   8.971   1.498
 5361WAT     H116325   1.972   8.978   1.565
 5361WAT     H216326   1.811   8.987   1.543
 5362WAT      O16327   7.480   2.165   2.154
 5362WAT     H116328   7.406   2.226   2.126
 5362WAT     H216329   7.459   2.127   2.245
 5363WAT      O16330   5.918   7.638   6.624
 5363WAT     H116331   5.890   7.720   6.674
 5363WAT     H216332   5.974   7.664   6.546
 5364WAT      O16333   1.491   3.086   8.505
 5364WAT     H116334   1.521   3.057   8.596
 5364WAT     H216335   1.535   3.029   8.435
 5365WAT      O16336   9.579   0.024   8.144
 5365WAT     H116337   9.589   0.088   8.068
 5365WAT     H216338   9.646   0.045   8.215
 5366WAT      O16339   0.501   0.986   6.987
 5366WAT     H116340   0.450   1.057   7.034
 5366WAT     H216341   0.536   1.022   6.900
 5367WAT      O16342   1.366   7.777   8.108
 5367WAT     H116343   1.309   7.787   8.026
 5367WAT     H216344   1.315   7.810   8.187
 5368WAT      O16345   0.915   5.647   9.002
 5368WAT     H116346   0.874   5.575   9.057
 5368WAT     H216347   0.846   5.717   8.982
 5369WAT      O16348   9.251   7.006   7.741
 5369WAT     H116349   9.203   7.030   7.657
 5369WAT     H216350   9.294   7.088   7.781
 5370WAT      O16351   5.074   9.295   5.329
 5370WAT     H116352   5.162   9.252   5.351
 5370WAT     H216353   5.019   9.304   5.412
 5371WAT      O16354   2.457   2.977   2.162
 5371WAT     H116355   2.387   2.931   2.216
 5371WAT     H216356   2.500   3.049   2.217
 5372WAT      O16357   7.125   6.516   5.894
 5372WAT     H116358   7.084   6.426   5.907
 5372WAT     H216359   7.065   6.585   5.935
 5373WAT      O16360   0.851   2.600   9.501
 5373WAT     H116361   0.846   2.528   9.571
 5373WAT     H216362   0.941   2.643   9.506
 5374WAT      O16363   9.773   4.985   7.996
 5374WAT     H116364   9.840   4.995   8.069
 5374WAT     H216365   9.787   5.056   7.927
 5375WAT      O16366   4.439   8.882   2.342
 5375WAT     H116367   4.518   8.942   2.342
 5375WAT     H216368   4.399   8.879   2.434
 5376WAT      O16369   0.330   4.820   4.868
 5376WAT     H116370   0.352   4.795   4.962
 5376WAT     H216371   0.278   4.746   4.825
 5377WAT      O16372   0.733   7.880   5.736
 5377WAT     H116373   0.739   7.810   5.665
 5377WAT     H216374   0.786   7.960   5.709
 5378WAT      O16375   1.914   7.755   3.486
 5378WAT     H116376   1.988   7.688   3.495
 5378WAT     H216377   1.880   7.779   3.577
 5379WAT      O16378   3.796   4.248   8.865
 5379WAT     H116379   3.715   4.198   8.835
 5379WAT     H216380   3.837   4.296   8.788
 5380WAT      O16381   5.262   0.729   4.751
 5380WAT     H116382   5.163   0.736   4.756
 5380WAT     H216383   5.294   0.655   4.811
 5381WAT      O16384   4.130   9.050   3.193
 5381WAT     H116385   4.135   8.956   3.161
 5381WAT     H216386   4.080   9.053   3.280
 5382WAT      O16387   1.563   3.956   3.051
 5382WAT     H116388   1.620   4.030   3.085
 5382WAT     H216389   1.584   3.872   3.102
 5383WAT      O16390   5.180   4.599   3.032
 5383WAT     H116391   5.151   4.523   2.974
 5383WAT     H216392   5.099   4.646   3.069
 5384WAT      O16393   9.847   5.667   6.139
 5384WAT     H116394   9.881   5.724   6.214
 5384WAT     H216395   9.886   5.698   6.052
 5385WAT      O16396   9.460   0.181   5.540
 5385WAT     H116397   9.559   0.169   5.535
 5385WAT     H216398   9.416   0.092   5.525
 5386WAT      O16399   6.017   6.497   3.714
 5386WAT     H116400   6.025   6.507   3.814
 5386WAT     H216401   6.036   6.585   3.670
 5387WAT      O16402   2.968   8.654   8.272
 5387WAT     H116403   2.974   8.680   8.368
 5387WAT     H216404   3.011   8.724   8.216
 5388WAT      O16405   6.059   6.071   3.950
 5388WAT     H116406   6.026   5.977   3.957
 5388WAT     H216407   5.983   6.135   3.961
 5389WAT      O16408   1.829   6.421   1.399
 5389WAT     H116409   1.781   6.451   1.317
 5389WAT     H216410   1.898   6.352   1.374
 5390WAT      O16411   7.537   7.000   5.284
 5390WAT     H116412   7.476   7.009   5.205
 5390WAT     H216413   7.631   6.988   5.252
 5391WAT      O16414   1.598   3.984   2.507
 5391WAT     H116415   1.552   4.072   2.516
 5391WAT     H216416   1.612   3.944   2.597
 5392WAT      O16417   9.858   4.229   4.014
 5392WAT     H116418   9.830   4.255   3.922
 5392WAT     H216419   9.777   4.214   4.070
 5393WAT      O16420   5.731   3.405   6.408
 5393WAT     H116421   5.645   3.456   6.404
 5393WAT     H216422   5.714   3.310   6.380
 5394WAT      O16423   8.438   5.837   9.350
 5394WAT     H116424   8.379   5.833   9.432
 5394WAT     H216425   8.410   5.914   9.293
 5395WAT      O16426   4.367   9.750   0.753
 5395WAT     H116427   4.295   9.733   0.686
 5395WAT     H216428   4.392   9.847   0.751
 5396WAT      O16429   3.699   9.734   3.983
 5396WAT     H116430   3.673   9.767   4.073
 5396WAT     H216431   3.771   9.792   3.945
 5397WAT      O16432   5.848   0.584   9.590
 5397WAT     H116433   5.867   0.533   9.507
 5397WAT     H216434   5.804   0.671   9.566
 5398WAT      O16435   1.584   7.047   8.539
 5398WAT     H116436   1.546   6.958   8.514
 5398WAT     H216437   1.646   7.037   8.616
 5399WAT      O16438   9.069   9.698   6.803
 5399WAT     H116439   9.061   9.760   6.725
 5399WAT     H216440   9.054   9.604   6.773
 5400WAT      O16441   8.562   6.911   1.471
 5400WAT     H116442   8.523   7.002   1.485
 5400WAT     H216443   8.506   6.843   1.520
 5401WAT      O16444   5.360   2.578   6.377
 5401WAT     H116445   5.335   2.659   6.430
 5401WAT     H216446   5.280   2.519   6.365
 5402WAT      O16447   2.010   0.279   9.799
 5402WAT     H116448   2.092   0.337   9.801
 5402WAT     H216449   1.937   0.327   9.751
 5403WAT      O16450   6.038   8.756   8.039
 5403WAT     H116451   5.978   8.680   8.065
 5403WAT     H216452   5.983   8.827   7.994
 5404WAT      O16453   8.044   7.621   0.158
 5404WAT     H116454   7.998   7.532   0.157
 5404WAT     H216455   8.130   7.615   0.107
 5405WAT      O16456   8.214   5.692   6.631
 5405WAT     H116457   8.228   5.595   6.611
 5405WAT     H216458   8.130   5.723   6.584
 5406WAT      O16459   8.429   0.385   0.610
 5406WAT     H116460   8.383   0.472   0.625
 5406WAT     H216461   8.371   0.310   0.642
 5407WAT      O16462   7.302   0.814   1.781
 5407WAT     H116463   7.229   0.871   1.820
 5407WAT     H216464   7.335   0.750   1.850
 5408WAT      O16465   0.634   9.022   4.736
 5408WAT     H116466   0.540   9.034   4.767
 5408WAT     H216467   0.658   9.097   4.674
 5409WAT      O16468   2.864   5.882   7.572
 5409WAT     H116469   2.910   5.793   7.565
 5409WAT     H216470   2.817   5.902   7.486
 5410WAT      O16471   2.746   5.086   6.692
 5410WAT     H116472   2.797   5.115   6.611
 5410WAT     H216473   2.689   5.161   6.724
 5411WAT      O16474   5.507   9.266   6.295
 5411WAT     H116475   5.600   9.236   6.275
 5411WAT     H216476   5.501   9.293   6.391
 5412WAT      O16477   3.999   0.817   7.924
 5412WAT     H116478   3.982   0.722   7.898
 5412WAT     H216479   4.001   0.874   7.841
 5413WAT      O16480   1.940   9.069   0.960
 5413WAT     H116481   1.905   9.121   1.038
 5413WAT     H216482   1.989   8.988   0.993
 5414WAT      O16483   2.134   8.052   9.414
 5414WAT     H116484   2.170   8.047   9.321
 5414WAT     H216485   2.192   8.111   9.469
 5415WAT      O16486   5.545   5.628   3.185
 5415WAT     H116487   5.473   5.564   3.213
 5415WAT     H216488   5.507   5.720   3.178
 5416WAT      O16489   8.032   9.598   4.889
 5416WAT     H116490   7.974   9.553   4.821
 5416WAT     H216491   8.063   9.531   4.956
 5417WAT      O16492   0.503   9.200   5.578
 5417WAT     H116493   0.457   9.189   5.666
 5417WAT     H216494   0.502   9.114   5.528
 5418WAT      O16495   5.759   8.770   6.990
 5418WAT     H116496   5.811   8.801   6.911
 5418WAT     H216497   5.778   8.830   7.068
 5419WAT      O16498   7.403   0.646   1.971
 5419WAT     H116499   7.492   0.613   1.941
 5419WAT     H216500   7.343   0.569   1.992
 5420WAT      O16501   0.792   7.761   4.805
 5420WAT     H116502   0.811   7.663   4.811
 5420WAT     H216503   0.866   7.812   4.849
 5421WAT      O16504   1.318   8.164   4.383
 5421WAT     H116505   1.377   8.112   4.445
 5421WAT     H216506   1.374   8.229   4.331
 5422WAT      O16507   5.075   4.722   8.765
 5422WAT     H116508   5.122   4.748   8.849
 5422WAT     H216509   5.019   4.641   8.782
 5423WAT      O16510   2.628   6.020   3.698
 5423WAT     H116511   2.605   5.997   3.604
 5423WAT     H216512   2.718   5.982   3.720
 5424WAT      O16513   5.850   7.875   6.742
 5424WAT     H116514   5.855   7.857   6.841
 5424WAT     H216515   5.847   7.973   6.726
 5425WAT      O16516   7.707   8.441   5.010
 5425WAT     H116517   7.667   8.352   4.986
 5425WAT     H216518   7.801   8.445   4.978
 5426WAT      O16519   9.760   2.067   3.690
 5426WAT     H116520   9.824   2.032   3.621
 5426WAT     H216521   9.750   2.000   3.764
 5427WAT      O16522   3.030   4.186   5.685
 5427WAT     H116523   3.105   4.233   5.733
 5427WAT     H216524   3.049   4.088   5.681
 5428WAT      O16525   4.285   1.939   4.708
 5428WAT     H116526   4.210   1.994   4.743
 5428WAT     H216527   4.281   1.848   4.749
 5429WAT      O16528   4.357   6.967   4.885
 5429WAT     H116529   4.351   6.972   4.786
 5429WAT     H216530   4.283   7.020   4.926
 5430WAT      O16531   7.011   3.417   4.420
 5430WAT     H116532   6.935   3.351   4.419
 5430WAT     H216533   7.098   3.368   4.421
 5431WAT      O16534   8.208   2.494   0.145
 5431WAT     H116535   8.254   2.578   0.115
 5431WAT     H216536   8.276   2.424   0.166
 5432WAT      O16537   4.709   6.218   3.206
 5432WAT     H116538   4.615   6.189   3.224
 5432WAT     H216539   4.723   6.310   3.242
 5433WAT      O16540   2.829   6.056   1.727
 5433WAT     H116541   2.842   5.959   1.707
 5433WAT     H216542   2.858   6.074   1.821
 5434WAT      O16543   5.779   6.129   4.584
 5434WAT     H116544   5.799   6.159   4.678
 5434WAT     H216545   5.735   6.040   4.587
 5435WAT      O16546   5.165   4.821   8.408
 5435WAT     H116547   5.220   4.838   8.490
 5435WAT     H216548   5.084   4.768   8.433
 5436WAT      O16549   8.490   7.576   7.560
 5436WAT     H116550   8.552   7.517   7.611
 5436WAT     H216551   8.403   7.583   7.609
 5437WAT      O16552   2.449   2.658   6.299
 5437WAT     H116553   2.391   2.650   6.218
 5437WAT     H216554   2.396   2.694   6.375
 5438WAT      O16555   6.141   6.639   8.810
 5438WAT     H116556   6.065   6.641   8.876
 5438WAT     H216557   6.127   6.710   8.741
 5439WAT      O16558   6.316   9.270   6.344
 5439WAT     H116559   6.285   9.178   6.324
 5439WAT     H216560   6.248   9.318   6.400
 5440WAT      O16561   4.322   2.156   7.933
 5440WAT     H116562   4.405   2.115   7.972
 5440WAT     H216563   4.337   2.177   7.837
 5441WAT      O16564   8.095   4.615   7.632
 5441WAT     H116565   8.115   4.681   7.559
 5441WAT     H216566   8.181   4.589   7.676
 5442WAT      O16567   1.974   0.359   5.592
 5442WAT     H116568   2.070   0.347   5.570
 5442WAT     H216569   1.965   0.406   5.680
 5443WAT      O16570   3.687   8.845   2.789
 5443WAT     H116571   3.726   8.804   2.871
 5443WAT     H216572   3.666   8.774   2.722
 5444WAT      O16573   7.059   5.343   8.649
 5444WAT     H116574   7.011   5.351   8.562
 5444WAT     H216575   7.157   5.338   8.633
 5445WAT      O16576   0.353   1.593   4.899
 5445WAT     H116577   0.382   1.689   4.905
 5445WAT     H216578   0.363   1.561   4.805
 5446WAT      O16579   8.713   9.680   9.653
 5446WAT     H116580   8.670   9.709   9.567
 5446WAT     H216581   8.703   9.581   9.663
 5447WAT      O16582   5.937   5.198   9.631
 5447WAT     H116583   6.032   5.172   9.613
 5447WAT     H216584   5.936   5.272   9.698
 5448WAT      O16585   8.260   7.916   4.951
 5448WAT     H116586   8.358   7.901   4.954
 5448WAT     H216587   8.231   7.964   5.035
 5449WAT      O16588   1.830   7.753   2.277
 5449WAT     H116589   1.882   7.802   2.207
 5449WAT     H216590   1.878   7.759   2.365
 5450WAT      O16591   9.811   8.760   1.444
 5450WAT     H116592   9.849   8.686   1.388
 5450WAT     H216593   9.801   8.728   1.538
 5451WAT      O16594   2.203   7.380   8.716
 5451WAT     H116595   2.145   7.301   8.695
 5451WAT     H216596   2.192   7.449   8.644
 5452WAT      O16597   7.530   8.943   1.587
 5452WAT     H116598   7.570   8.934   1.496
 5452WAT     H216599   7.439   8.900   1.588
 5453WAT      O16600   2.896   1.119   7.034
 5453WAT     H116601   2.978   1.172   7.012
 5453WAT     H216602   2.822   1.181   7.060
 5454WAT      O16603   3.569   0.356   5.440
 5454WAT     H116604   3.495   0.423   5.451
 5454WAT     H216605   3.557   0.282   5.506
 5455WAT      O16606   4.774   7.234   0.291
 5455WAT     H116607   4.756   7.142   0.324
 5455WAT     H216608   4.689   7.287   0.291
 5456WAT      O16609   5.397   8.686   5.847
 5456WAT     H116610   5.447   8.746   5.910
 5456WAT     H216611   5.324   8.639   5.896
 5457WAT      O16612   2.829   7.729   0.179
 5457WAT     H116613   2.833   7.825   0.208
 5457WAT     H216614   2.915   7.704   0.134
 5458WAT      O16615   8.967   8.236   8.054
 5458WAT     H116616   9.029   8.287   8.114
 5458WAT     H216617   8.961   8.141   8.086
 5459WAT      O16618   3.136   3.691   9.277
 5459WAT     H116619   3.116   3.629   9.352
 5459WAT     H216620   3.096   3.655   9.192
 5460WAT      O16621   7.364   9.646   3.603
 5460WAT     H116622   7.370   9.623   3.700
 5460WAT     H216623   7.378   9.744   3.591
 5461WAT      O16624   8.099   7.585   1.396
 5461WAT     H116625   8.191   7.546   1.393
 5461WAT     H216626   8.069   7.593   1.492
 5462WAT      O16627   2.800   3.965   5.022
 5462WAT     H116628   2.799   3.884   4.963
 5462WAT     H216629   2.709   3.979   5.061
 5463WAT      O16630   4.191   0.902   8.434
 5463WAT     H116631   4.264   0.967   8.411
 5463WAT     H216632   4.181   0.836   8.359
 5464WAT      O16633   5.492   8.373   1.413
 5464WAT     H116634   5.499   8.342   1.508
 5464WAT     H216635   5.486   8.472   1.410
 5465WAT      O16636   1.080   1.842   1.012
 5465WAT     H116637   1.152   1.779   1.042
 5465WAT     H216638   1.103   1.878   0.922
 5466WAT      O16639   8.235   3.880   1.972
 5466WAT     H116640   8.154   3.929   2.005
 5466WAT     H216641   8.289   3.849   2.050
 5467WAT      O16642   5.268   8.028   1.389
 5467WAT     H116643   5.251   8.097   1.459
 5467WAT     H216644   5.316   8.069   1.312
 5468WAT      O16645   4.528   3.968   4.058
 5468WAT     H116646   4.569   3.995   3.971
 5468WAT     H216647   4.528   3.868   4.066
 5469WAT      O16648   8.440   8.702   5.795
 5469WAT     H116649   8.417   8.758   5.874
 5469WAT     H216650   8.434   8.605   5.819
 5470WAT      O16651   2.566   6.931   3.038
 5470WAT     H116652   2.559   7.021   2.996
 5470WAT     H216653   2.491   6.918   3.102
 5471WAT      O16654   9.253   8.781   6.938
 5471WAT     H116655   9.259   8.810   6.843
 5471WAT     H216656   9.330   8.819   6.990
 5472WAT      O16657   2.511   0.898   8.390
 5472WAT     H116658   2.466   0.974   8.438
 5472WAT     H216659   2.487   0.902   8.293
 5473WAT      O16660   6.423   3.815   8.210
 5473WAT     H116661   6.377   3.904   8.221
 5473WAT     H216662   6.398   3.755   8.287
 5474WAT      O16663   7.823   4.326   6.542
 5474WAT     H116664   7.759   4.307   6.468
 5474WAT     H216665   7.779   4.384   6.610
 5475WAT      O16666   7.047   8.067   7.521
 5475WAT     H116667   6.989   8.019   7.587
 5475WAT     H216668   7.140   8.031   7.525
 5476WAT      O16669   7.932   2.851   7.329
 5476WAT     H116670   7.913   2.883   7.236
 5476WAT     H216671   7.856   2.874   7.389
 5477WAT      O16672   3.693   7.676   9.442
 5477WAT     H116673   3.713   7.605   9.374
 5477WAT     H216674   3.664   7.632   9.528
 5478WAT      O16675   0.071   9.182   4.856
 5478WAT     H116676   0.078   9.175   4.756
 5478WAT     H216677   0.161   9.203   4.894
 5479WAT      O16678   1.243   3.033   5.415
 5479WAT     H116679   1.334   3.029   5.458
 5479WAT     H216680   1.173   3.030   5.486
 5480WAT      O16681   7.310   9.032   4.316
 5480WAT     H116682   7.371   9.027   4.395
 5480WAT     H216683   7.244   9.106   4.329
 5481WAT      O16684   0.726   8.228   1.440
 5481WAT     H116685   0.648   8.244   1.501
 5481WAT     H216686   0.792   8.302   1.451
 5482WAT      O16687   8.185   8.507   1.939
 5482WAT     H116688   8.171   8.565   1.859
 5482WAT     H216689   8.281   8.511   1.967
 5483WAT      O16690   1.880   2.778   7.465
 5483WAT     H116691   1.790   2.749   7.497
 5483WAT     H216692   1.951   2.733   7.518
 5484WAT      O16693   4.375   2.338   3.635
 5484WAT     H116694   4.295   2.397   3.644
 5484WAT     H216695   4.388   2.316   3.538
 5485WAT      O16696   8.292   2.204   3.792
 5485WAT     H116697   8.389   2.221   3.774
 5485WAT     H216698   8.255   2.144   3.721
 5486WAT      O16699   0.972   2.153   4.870
 5486WAT     H116700   1.010   2.173   4.960
 5486WAT     H216701   0.881   2.111   4.881
 5487WAT      O16702   5.890   0.806   1.005
 5487WAT     H116703   5.794   0.811   1.032
 5487WAT     H216704   5.945   0.773   1.082
 5488WAT      O16705   9.545   3.436   5.530
 5488WAT     H116706   9.583   3.349   5.498
 5488WAT     H216707   9.560   3.444   5.629
 5489WAT      O16708   9.190   5.547   2.289
 5489WAT     H116709   9.152   5.562   2.380
 5489WAT     H216710   9.143   5.606   2.223
 5490WAT      O16711   2.988   2.881   4.540
 5490WAT     H116712   2.963   2.977   4.552
 5490WAT     H216713   3.068   2.875   4.481
 5491WAT      O16714   1.311   0.823   5.877
 5491WAT     H116715   1.212   0.827   5.892
 5491WAT     H216716   1.339   0.897   5.816
 5492WAT      O16717   9.116   0.370   8.913
 5492WAT     H116718   9.130   0.344   9.008
 5492WAT     H216719   9.063   0.455   8.909
 5493WAT      O16720   4.379   1.826   9.011
 5493WAT     H116721   4.348   1.753   8.950
 5493WAT     H216722   4.455   1.875   8.969
 5494WAT      O16723   4.998   7.657   4.686
 5494WAT     H116724   5.006   7.756   4.698
 5494WAT     H216725   4.916   7.636   4.632
 5495WAT      O16726   7.447   7.543   9.611
 5495WAT     H116727   7.389   7.484   9.554
 5495WAT     H216728   7.496   7.487   9.677
 5496WAT      O16729   6.737   2.788   4.224
 5496WAT     H116730   6.691   2.718   4.170
 5496WAT     H216731   6.764   2.750   4.313
 5497WAT      O16732   1.669   0.704   8.036
 5497WAT     H116733   1.716   0.792   8.027
 5497WAT     H216734   1.578   0.710   7.993
 5498WAT      O16735   8.488   3.454   7.952
 5498WAT     H116736   8.496   3.508   7.869
 5498WAT     H216737   8.528   3.363   7.937
 5499WAT      O16738   0.020   4.695   9.209
 5499WAT     H116739  -0.037   4.762   9.161
 5499WAT     H216740  -0.004   4.694   9.306
 5500WAT      O16741   1.167   9.428   6.932
 5500WAT     H116742   1.219   9.460   6.852
 5500WAT     H216743   1.230   9.412   7.008
 5501WAT      O16744   8.778   8.989   0.899
 5501WAT     H116745   8.736   8.900   0.880
 5501WAT     H216746   8.831   9.019   0.819
 5502WAT      O16747   8.443   9.761   8.738
 5502WAT     H116748   8.479   9.670   8.761
 5502WAT     H216749   8.493   9.831   8.789
 5503WAT      O16750   1.339   2.834   0.909
 5503WAT     H116751   1.405   2.879   0.847
 5503WAT     H216752   1.375   2.744   0.935
 5504WAT      O16753   9.365   6.195   0.165
 5504WAT     H116754   9.286   6.199   0.226
 5504WAT     H216755   9.449   6.195   0.220
 5505WAT      O16756   5.577   4.683   7.086
 5505WAT     H116757   5.677   4.685   7.098
 5505WAT     H216758   5.533   4.674   7.176
 5506WAT      O16759   6.016   7.324   3.014
 5506WAT     H116760   6.063   7.412   3.024
 5506WAT     H216761   5.923   7.340   2.981
 5507WAT      O16762   2.325   7.620   3.877
 5507WAT     H116763   2.386   7.590   3.804
 5507WAT     H216764   2.281   7.705   3.850
 5508WAT      O16765   3.439   0.006   0.285
 5508WAT     H116766   3.489  -0.038   0.210
 5508WAT     H216767   3.369   0.066   0.248
 5509WAT      O16768   9.479   9.207   5.183
 5509WAT     H116769   9.420   9.281   5.214
 5509WAT     H216770   9.533   9.238   5.104
 5510WAT      O16771   4.407   7.687   5.563
 5510WAT     H116772   4.490   7.647   5.602
 5510WAT     H216773   4.334   7.684   5.630
 5511WAT      O16774   9.141   4.213   7.290
 5511WAT     H116775   9.108   4.304   7.266
 5511WAT     H216776   9.108   4.188   7.381
 5512WAT      O16777   1.413   2.011   0.914
 5512WAT     H116778   1.355   1.943   0.869
 5512WAT     H216779   1.359   2.092   0.936
 5513WAT      O16780   9.005   0.691   0.815
 5513WAT     H116781   8.979   0.596   0.797
 5513WAT     H216782   8.939   0.733   0.878
 5514WAT      O16783   5.529   2.668   2.965
 5514WAT     H116784   5.480   2.583   2.984
 5514WAT     H216785   5.572   2.702   3.049
 5515WAT      O16786   2.712   9.245   2.645
 5515WAT     H116787   2.666   9.248   2.733
 5515WAT     H216788   2.789   9.309   2.645
 5516WAT      O16789   6.321   7.378   3.877
 5516WAT     H116790   6.310   7.366   3.976
 5516WAT     H216791   6.248   7.437   3.843
 5517WAT      O16792   9.270   0.432   2.373
 5517WAT     H116793   9.309   0.366   2.309
 5517WAT     H216794   9.314   0.422   2.463
 5518WAT      O16795   9.115   2.999   8.745
 5518WAT     H116796   9.030   3.026   8.790
 5518WAT     H216797   9.172   3.079   8.729
 5519WAT      O16798   8.652   4.116   2.001
 5519WAT     H116799   8.722   4.056   1.960
 5519WAT     H216800   8.674   4.211   1.981
 5520WAT      O16801   4.363   8.584   2.784
 5520WAT     H116802   4.382   8.558   2.879
 5520WAT     H216803   4.433   8.648   2.752
 5521WAT      O16804   5.761   4.282   1.049
 5521WAT     H116805   5.818   4.324   1.119
 5521WAT     H216806   5.785   4.185   1.041
 5522WAT      O16807   1.351   7.226   8.157
 5522WAT     H116808   1.378   7.322   8.166
 5522WAT     H216809   1.284   7.204   8.228
 5523WAT      O16810   7.019   1.557   6.642
 5523WAT     H116811   6.939   1.541   6.584
 5523WAT     H216812   7.078   1.624   6.598
 5524WAT      O16813   8.509   4.368   0.396
 5524WAT     H116814   8.465   4.289   0.355
 5524WAT     H216815   8.602   4.344   0.425
 5525WAT      O16816   0.130   8.077   6.913
 5525WAT     H116817   0.179   8.122   6.988
 5525WAT     H216818   0.183   7.999   6.881
 5526WAT      O16819   4.438   1.617   3.345
 5526WAT     H116820   4.520   1.664   3.315
 5526WAT     H216821   4.369   1.684   3.374
 5527WAT      O16822   6.755   6.320   4.587
 5527WAT     H116823   6.698   6.285   4.662
 5527WAT     H216824   6.847   6.282   4.593
 5528WAT      O16825   3.051   7.308   5.913
 5528WAT     H116826   3.128   7.246   5.929
 5528WAT     H216827   3.010   7.289   5.824
 5529WAT      O16828   0.114   7.313   5.459
 5529WAT     H116829   0.016   7.307   5.442
 5529WAT     H216830   0.142   7.409   5.455
 5530WAT      O16831   7.148   9.721   9.292
 5530WAT     H116832   7.064   9.669   9.311
 5530WAT     H216833   7.160   9.790   9.364
 5531WAT      O16834   1.005   5.947   2.444
 5531WAT     H116835   1.102   5.970   2.450
 5531WAT     H216836   0.990   5.884   2.368
 5532WAT      O16837   2.877   8.605   1.777
 5532WAT     H116838   2.877   8.600   1.677
 5532WAT     H216839   2.917   8.522   1.814
 5533WAT      O16840   1.148   7.342   0.265
 5533WAT     H116841   1.154   7.301   0.174
 5533WAT     H216842   1.230   7.396   0.282
 5534WAT      O16843   9.117   5.618   0.967
 5534WAT     H116844   9.055   5.646   0.894
 5534WAT     H216845   9.074   5.636   1.056
 5535WAT      O16846   1.657   6.912   2.323
 5535WAT     H116847   1.592   6.871   2.259
 5535WAT     H216848   1.701   6.990   2.280
 5536WAT      O16849   8.344   3.768   5.189
 5536WAT     H116850   8.274   3.701   5.214
 5536WAT     H216851   8.362   3.828   5.267
 5537WAT      O16852   2.903   6.067   9.549
 5537WAT     H116853   2.968   6.016   9.492
 5537WAT     H216854   2.940   6.074   9.642
 5538WAT      O16855   8.888   9.387   6.427
 5538WAT     H116856   8.980   9.425   6.413
 5538WAT     H216857   8.892   9.287   6.424
 5539WAT      O16858   3.982   1.276   3.426
 5539WAT     H116859   3.969   1.227   3.512
 5539WAT     H216860   4.046   1.226   3.368
 5540WAT      O16861   8.899   7.403   6.165
 5540WAT     H116862   8.871   7.413   6.070
 5540WAT     H216863   8.982   7.457   6.182
 5541WAT      O16864   4.204   1.844   7.562
 5541WAT     H116865   4.250   1.756   7.551
 5541WAT     H216866   4.203   1.870   7.658
 5542WAT      O16867   0.632   0.603   2.736
 5542WAT     H116868   0.648   0.551   2.652
 5542WAT     H216869   0.573   0.681   2.716
 5543WAT      O16870   8.632   1.098   2.175
 5543WAT     H116871   8.732   1.094   2.176
 5543WAT     H216872   8.600   1.161   2.246
 5544WAT      O16873   3.266   3.921   7.131
 5544WAT     H116874   3.185   3.873   7.096
 5544WAT     H216875   3.277   4.008   7.082
 5545WAT      O16876   3.297   3.705   5.969
 5545WAT     H116877   3.202   3.715   5.939
 5545WAT     H216878   3.347   3.648   5.904
 5546WAT      O16879   8.073   4.169   0.253
 5546WAT     H116880   7.978   4.165   0.222
 5546WAT     H216881   8.114   4.256   0.223
 5547WAT      O16882   6.066   5.302   1.739
 5547WAT     H116883   5.987   5.312   1.799
 5547WAT     H216884   6.036   5.297   1.644
 5548WAT      O16885   3.722   9.826   1.724
 5548WAT     H116886   3.741   9.746   1.781
 5548WAT     H216887   3.808   9.870   1.698
 5549WAT      O16888   0.053   5.101   1.485
 5549WAT     H116889  -0.023   5.161   1.511
 5549WAT     H216890   0.136   5.131   1.531
 5550WAT      O16891   7.075   9.236   7.169
 5550WAT     H116892   7.088   9.146   7.209
 5550WAT     H216893   6.982   9.244   7.134
 5551WAT      O16894   6.226   6.093   0.035
 5551WAT     H116895   6.249   6.179  -0.011
 5551WAT     H216896   6.126   6.087   0.045
 5552WAT      O16897   9.838   9.620   0.919
 5552WAT     H116898   9.931   9.590   0.902
 5552WAT     H216899   9.797   9.653   0.833
 5553WAT      O16900   5.483   3.714   9.486
 5553WAT     H116901   5.503   3.790   9.424
 5553WAT     H216902   5.463   3.750   9.577
 5554WAT      O16903   6.175   4.210   2.601
 5554WAT     H116904   6.145   4.231   2.507
 5554WAT     H216905   6.265   4.166   2.598
 5555WAT      O16906   9.001   8.622   9.614
 5555WAT     H116907   8.972   8.589   9.524
 5555WAT     H216908   9.070   8.694   9.602
 5556WAT      O16909   3.059   2.181   1.601
 5556WAT     H116910   3.095   2.217   1.516
 5556WAT     H216911   3.090   2.087   1.614
 5557WAT      O16912   1.906   7.111   0.831
 5557WAT     H116913   1.827   7.104   0.770
 5557WAT     H216914   1.913   7.205   0.866
 5558WAT      O16915   1.058   0.269   3.641
 5558WAT     H116916   0.992   0.202   3.676
 5558WAT     H216917   1.066   0.261   3.542
 5559WAT      O16918   6.384   4.819   8.886
 5559WAT     H116919   6.412   4.725   8.908
 5559WAT     H216920   6.401   4.836   8.789
 5560WAT      O16921   2.728   9.240   6.104
 5560WAT     H116922   2.634   9.208   6.102
 5560WAT     H216923   2.761   9.254   6.010
 5561WAT      O16924   9.110   9.461   3.707
 5561WAT     H116925   9.164   9.470   3.623
 5561WAT     H216926   9.157   9.507   3.782
 5562WAT      O16927   9.017   8.233   1.019
 5562WAT     H116928   9.059   8.173   0.952
 5562WAT     H216929   9.086   8.263   1.086
 5563WAT      O16930   6.366   6.609   9.435
 5563WAT     H116931   6.377   6.523   9.386
 5563WAT     H216932   6.286   6.657   9.400
 5564WAT      O16933   0.859   7.445   2.935
 5564WAT     H116934   0.896   7.483   3.020
 5564WAT     H216935   0.784   7.382   2.956
 5565WAT      O16936   6.267   3.653   3.312
 5565WAT     H116937   6.174   3.646   3.347
 5565WAT     H216938   6.276   3.734   3.254
 5566WAT      O16939   3.653   3.512   6.136
 5566WAT     H116940   3.725   3.581   6.133
 5566WAT     H216941   3.656   3.464   6.224
 5567WAT      O16942   4.631   9.516   1.734
 5567WAT     H116943   4.692   9.582   1.689
 5567WAT     H216944   4.616   9.438   1.673
 5568WAT      O16945   7.134   7.845   8.264
 5568WAT     H116946   7.207   7.911   8.282
 5568WAT     H216947   7.112   7.795   8.347
 5569WAT      O16948   8.947   4.124   9.365
 5569WAT     H116949   9.039   4.112   9.327
 5569WAT     H216950   8.880   4.084   9.302
 5570WAT      O16951   9.695   0.832   5.453
 5570WAT     H116952   9.779   0.884   5.464
 5570WAT     H216953   9.618   0.887   5.485
 5571WAT      O16954   4.052   7.180   1.534
 5571WAT     H116955   4.025   7.274   1.555
 5571WAT     H216956   3.992   7.117   1.584
 5572WAT      O16957   6.494   0.776   4.870
 5572WAT     H116958   6.398   0.803   4.856
 5572WAT     H216959   6.516   0.781   4.967
 5573WAT      O16960   7.552   4.343   1.880
 5573WAT     H116961   7.491   4.398   1.823
 5573WAT     H216962   7.522   4.248   1.880
 5574WAT      O16963   2.923   7.373   3.910
 5574WAT     H116964   2.920   7.473   3.917
 5574WAT     H216965   3.011   7.345   3.871
 5575WAT      O16966   6.371   4.167   4.269
 5575WAT     H116967   6.327   4.191   4.183
 5575WAT     H216968   6.469   4.187   4.263
 5576WAT      O16969   4.859   3.394   3.064
 5576WAT     H116970   4.833   3.299   3.047
 5576WAT     H216971   4.786   3.441   3.113
 5577WAT      O16972   2.656   2.345   0.686
 5577WAT     H116973   2.661   2.386   0.777
 5577WAT     H216974   2.575   2.285   0.681
 5578WAT      O16975   2.763   1.640   8.511
 5578WAT     H116976   2.731   1.578   8.439
 5578WAT     H216977   2.862   1.644   8.510
 5579WAT      O16978   8.888   9.769   3.885
 5579WAT     H116979   8.836   9.684   3.876
 5579WAT     H216980   8.986   9.749   3.888
 5580WAT      O16981   8.655   5.158   8.504
 5580WAT     H116982   8.563   5.132   8.474
 5580WAT     H216983   8.721   5.138   8.431
 5581WAT      O16984   0.771   6.845   9.046
 5581WAT     H116985   0.767   6.792   9.130
 5581WAT     H216986   0.866   6.858   9.019
 5582WAT      O16987   1.304   8.354   4.640
 5582WAT     H116988   1.400   8.365   4.664
 5582WAT     H216989   1.293   8.275   4.579
 5583WAT      O16990   9.507   8.492   8.063
 5583WAT     H116991   9.436   8.437   8.019
 5583WAT     H216992   9.557   8.544   7.994
 5584WAT      O16993   3.780   1.938   6.262
 5584WAT     H116994   3.767   1.885   6.178
 5584WAT     H216995   3.706   2.004   6.272
 5585WAT      O16996   8.324   3.548   7.376
 5585WAT     H116997   8.350   3.461   7.420
 5585WAT     H216998   8.379   3.562   7.294
 5586WAT      O16999   0.117   8.883   2.240
 5586WAT     H117000   0.108   8.854   2.144
 5586WAT     H217001   0.214   8.901   2.260
 5587WAT      O17002   0.718   1.607   1.629
 5587WAT     H117003   0.697   1.695   1.586
 5587WAT     H217004   0.647   1.540   1.605
 5588WAT      O17005   4.398   4.736   7.174
 5588WAT     H117006   4.481   4.772   7.217
 5588WAT     H217007   4.403   4.636   7.172
 5589WAT      O17008   8.664   7.138   4.595
 5589WAT     H117009   8.736   7.180   4.539
 5589WAT     H217010   8.625   7.061   4.546
 5590WAT      O17011   4.695   3.209   1.649
 5590WAT     H117012   4.644   3.261   1.719
 5590WAT     H217013   4.642   3.207   1.564
 5591WAT      O17014   6.378   5.505   2.389
 5591WAT     H117015   6.423   5.504   2.300
 5591WAT     H217016   6.315   5.583   2.393
 5592WAT      O17017   9.279   5.104   8.352
 5592WAT     H117018   9.235   5.183   8.395
 5592WAT     H217019   9.263   5.023   8.409
 5593WAT      O17020   8.248   1.900   1.886
 5593WAT     H117021   8.199   1.939   1.808
 5593WAT     H217022   8.341   1.936   1.888
 5594WAT      O17023   0.566   6.259   5.886
 5594WAT     H117024   0.626   6.186   5.853
 5594WAT     H217025   0.540   6.318   5.810
 5595WAT      O17026   6.892   3.012   8.533
 5595WAT     H117027   6.960   2.947   8.500
 5595WAT     H217028   6.861   3.069   8.456
 5596WAT      O17029   7.733   3.057   0.657
 5596WAT     H117030   7.690   3.118   0.724
 5596WAT     H217031   7.664   2.994   0.621
 5597WAT      O17032   5.239   2.246   2.987
 5597WAT     H117033   5.181   2.202   2.919
 5597WAT     H217034   5.307   2.180   3.020
 5598WAT      O17035   4.867   6.021   1.601
 5598WAT     H117036   4.804   6.047   1.674
 5598WAT     H217037   4.837   6.061   1.515
 5599WAT      O17038   3.194   9.630   2.486
 5599WAT     H117039   3.289   9.660   2.478
 5599WAT     H217040   3.177   9.556   2.422
 5600WAT      O17041   5.228   1.799   1.169
 5600WAT     H117042   5.298   1.854   1.123
 5600WAT     H217043   5.266   1.710   1.194
 5601WAT      O17044   5.181   0.258   7.484
 5601WAT     H117045   5.231   0.320   7.424
 5601WAT     H217046   5.108   0.309   7.530
 5602WAT      O17047   4.408   9.717   6.332
 5602WAT     H117048   4.322   9.667   6.317
 5602WAT     H217049   4.431   9.715   6.430
 5603WAT      O17050   1.453   7.740   5.702
 5603WAT     H117051   1.375   7.793   5.736
 5603WAT     H217052   1.426   7.644   5.694
 5604WAT      O17053   9.171   0.858   3.590
 5604WAT     H117054   9.124   0.840   3.504
 5604WAT     H217055   9.261   0.814   3.590
 5605WAT      O17056   4.724   6.033   7.516
 5605WAT     H117057   4.708   6.077   7.428
 5605WAT     H217058   4.816   5.994   7.519
 5606WAT      O17059   9.652   7.871   2.293
 5606WAT     H117060   9.569   7.888   2.240
 5606WAT     H217061   9.710   7.952   2.291
 5607WAT      O17062   3.346   7.362   9.415
 5607WAT     H117063   3.371   7.450   9.376
 5607WAT     H217064   3.331   7.296   9.341
 5608WAT      O17065   9.481   6.897   3.138
 5608WAT     H117066   9.570   6.908   3.094
 5608WAT     H217067   9.489   6.832   3.213
 5609WAT      O17068   2.027   4.861   6.483
 5609WAT     H117069   2.123   4.878   6.504
 5609WAT     H217070   1.989   4.798   6.550
 5610WAT      O17071   7.385   1.319   1.476
 5610WAT     H117072   7.354   1.377   1.551
 5610WAT     H217073   7.338   1.344   1.392
 5611WAT      O17074   6.237   5.977   9.673
 5611WAT     H117075   6.335   5.962   9.660
 5611WAT     H217076   6.218   5.991   9.771
 5612WAT      O17077   0.917   6.301   0.576
 5612WAT     H117078   0.918   6.282   0.674
 5612WAT     H217079   1.008   6.330   0.546
 5613WAT      O17080   4.845   6.697   1.174
 5613WAT     H117081   4.891   6.659   1.093
 5613WAT     H217082   4.803   6.623   1.227
 5614WAT      O17083   6.377   2.649   5.789
 5614WAT     H117084   6.365   2.727   5.728
 5614WAT     H217085   6.469   2.612   5.779
 5615WAT      O17086   8.579   6.491   3.170
 5615WAT     H117087   8.625   6.508   3.082
 5615WAT     H217088   8.612   6.405   3.209
 5616WAT      O17089   7.277   0.313   3.670
 5616WAT     H117090   7.282   0.395   3.727
 5616WAT     H217091   7.245   0.338   3.579
 5617WAT      O17092   2.631   1.372   4.788
 5617WAT     H117093   2.668   1.451   4.739
 5617WAT     H217094   2.701   1.335   4.848
 5618WAT      O17095   4.681   3.558   4.245
 5618WAT     H117096   4.766   3.534   4.293
 5618WAT     H217097   4.610   3.578   4.313
 5619WAT      O17098   2.744   3.341   3.821
 5619WAT     H117099   2.653   3.346   3.863
 5619WAT     H217100   2.743   3.275   3.746
 5620WAT      O17101   7.251   1.822   6.946
 5620WAT     H117102   7.221   1.734   6.911
 5620WAT     H217103   7.224   1.894   6.882
 5621WAT      O17104   6.071   2.346   4.218
 5621WAT     H117105   6.101   2.322   4.125
 5621WAT     H217106   6.110   2.282   4.283
 5622WAT      O17107   3.802   7.111   8.629
 5622WAT     H117108   3.728   7.080   8.689
 5622WAT     H217109   3.767   7.178   8.564
 5623WAT      O17110   5.332   8.522   6.363
 5623WAT     H117111   5.305   8.523   6.459
 5623WAT     H217112   5.317   8.431   6.325
 5624WAT      O17113   1.641   4.068   3.460
 5624WAT     H117114   1.564   4.034   3.513
 5624WAT     H217115   1.608   4.109   3.375
 5625WAT      O17116   7.254   8.730   2.662
 5625WAT     H117117   7.230   8.755   2.568
 5625WAT     H217118   7.207   8.792   2.725
 5626WAT      O17119   8.935   6.897   2.639
 5626WAT     H117120   8.945   6.903   2.540
 5626WAT     H217121   9.020   6.927   2.683
 5627WAT      O17122   2.778   2.985   9.147
 5627WAT     H117123   2.822   2.895   9.149
 5627WAT     H217124   2.722   2.993   9.065
 5628WAT      O17125   4.208   7.880   2.158
 5628WAT     H117126   4.297   7.842   2.182
 5628WAT     H217127   4.196   7.967   2.204
 5629WAT      O17128   0.682   0.068   7.240
 5629WAT     H117129   0.675   0.104   7.333
 5629WAT     H217130   0.778   0.064   7.213
 5630WAT      O17131   6.773   2.946   8.151
 5630WAT     H117132   6.811   2.858   8.182
 5630WAT     H217133   6.680   2.931   8.117
 5631WAT      O17134   1.997   3.098   0.540
 5631WAT     H117135   1.914   3.121   0.489
 5631WAT     H217136   2.008   3.162   0.617
 5632WAT      O17137   2.083   9.820   3.850
 5632WAT     H117138   2.037   9.759   3.785
 5632WAT     H217139   2.060   9.792   3.944
 5633WAT      O17140   9.539   7.959   5.881
 5633WAT     H117141   9.557   7.863   5.899
 5633WAT     H217142   9.498   7.970   5.791
 5634WAT      O17143   0.293   6.016   2.814
 5634WAT     H117144   0.348   6.098   2.803
 5634WAT     H217145   0.344   5.937   2.779
 5635WAT      O17146   2.404   0.469   0.524
 5635WAT     H117147   2.352   0.518   0.594
 5635WAT     H217148   2.341   0.414   0.468
 5636WAT      O17149   5.879   6.639   6.409
 5636WAT     H117150   5.911   6.546   6.391
 5636WAT     H217151   5.782   6.637   6.433
 5637WAT      O17152   6.978   4.143   7.035
 5637WAT     H117153   7.036   4.153   6.955
 5637WAT     H217154   6.926   4.228   7.049
 5638WAT      O17155   6.340   7.566   0.867
 5638WAT     H117156   6.242   7.558   0.883
 5638WAT     H217157   6.387   7.489   0.909
 5639WAT      O17158   4.658   4.942   9.445
 5639WAT     H117159   4.681   5.039   9.433
 5639WAT     H217160   4.641   4.924   9.542
 5640WAT      O17161   2.602   2.114   3.064
 5640WAT     H117162   2.558   2.175   2.999
 5640WAT     H217163   2.532   2.065   3.116
 5641WAT      O17164   4.745   2.172   5.402
 5641WAT     H117165   4.663   2.114   5.410
 5641WAT     H217166   4.808   2.151   5.477
 5642WAT      O17167   6.692   8.950   4.740
 5642WAT     H117168   6.664   8.941   4.836
 5642WAT     H217169   6.791   8.943   4.733
 5643WAT      O17170   2.176   2.675   9.067
 5643WAT     H117171   2.133   2.585   9.052
 5643WAT     H217172   2.202   2.715   8.980
 5644WAT      O17173   3.446   7.390   4.930
 5644WAT     H117174   3.419   7.415   5.023
 5644WAT     H217175   3.533   7.340   4.933
 5645WAT      O17176   4.061   8.194   7.808
 5645WAT     H117177   4.011   8.150   7.733
 5645WAT     H217178   4.085   8.126   7.877
 5646WAT      O17179   1.057   8.981   6.305
 5646WAT     H117180   1.013   8.899   6.270
 5646WAT     H217181   1.010   9.012   6.387
 5647WAT      O17182   4.728   8.895   5.621
 5647WAT     H117183   4.798   8.847   5.673
 5647WAT     H217184   4.731   8.992   5.643
 5648WAT      O17185   5.152   9.630   1.478
 5648WAT     H117186   5.062   9.601   1.510
 5648WAT     H217187   5.182   9.570   1.403
 5649WAT      O17188   7.314   3.990   9.800
 5649WAT     H117189   7.316   3.919   9.730
 5649WAT     H217190   7.272   4.073   9.763
 5650WAT      O17191   8.234   1.226   2.394
 5650WAT     H117192   8.332   1.242   2.394
 5650WAT     H217193   8.196   1.245   2.303
 5651WAT      O17194   9.787   9.070   2.048
 5651WAT     H117195   9.788   9.117   2.136
 5651WAT     H217196   9.766   9.135   1.975
 5652WAT      O17197   0.769   4.887   0.240
 5652WAT     H117198   0.752   4.894   0.141
 5652WAT     H217199   0.852   4.833   0.255
 5653WAT      O17200   3.866   9.410   1.130
 5653WAT     H117201   3.839   9.345   1.200
 5653WAT     H217202   3.884   9.499   1.173
 5654WAT      O17203   7.209   5.121   6.900
 5654WAT     H117204   7.174   5.201   6.947
 5654WAT     H217205   7.133   5.072   6.856
 5655WAT      O17206   8.872   8.875   3.374
 5655WAT     H117207   8.801   8.940   3.400
 5655WAT     H217208   8.962   8.911   3.400
 5656WAT      O17209   6.040   2.988   4.762
 5656WAT     H117210   6.060   2.898   4.800
 5656WAT     H217211   5.965   2.981   4.696
 5657WAT      O17212   2.155   8.124   2.001
 5657WAT     H117213   2.190   8.180   2.077
 5657WAT     H217214   2.202   8.035   2.001
 5658WAT      O17215   5.072   8.564   8.844
 5658WAT     H117216   5.008   8.518   8.905
 5658WAT     H217217   5.020   8.611   8.772
 5659WAT      O17218   0.103   3.378   7.944
 5659WAT     H117219   0.174   3.446   7.962
 5659WAT     H217220   0.035   3.417   7.882
 5660WAT      O17221   1.086   9.619   2.909
 5660WAT     H117222   1.171   9.662   2.938
 5660WAT     H217223   1.075   9.532   2.957
 5661WAT      O17224   3.354   9.134   0.797
 5661WAT     H117225   3.395   9.115   0.886
 5661WAT     H217226   3.255   9.117   0.802
 5662WAT      O17227   1.678   5.299   7.394
 5662WAT     H117228   1.675   5.395   7.367
 5662WAT     H217229   1.699   5.243   7.313
 5663WAT      O17230   5.719   1.363   3.928
 5663WAT     H117231   5.620   1.368   3.944
 5663WAT     H217232   5.738   1.303   3.850
 5664WAT      O17233   0.417   2.830   5.355
 5664WAT     H117234   0.366   2.766   5.296
 5664WAT     H217235   0.393   2.813   5.450
 5665WAT      O17236   2.264   7.090   4.324
 5665WAT     H117237   2.246   7.088   4.422
 5665WAT     H217238   2.363   7.089   4.308
 5666WAT      O17239   2.767   8.692   9.465
 5666WAT     H117240   2.766   8.617   9.399
 5666WAT     H217241   2.759   8.779   9.417
 5667WAT      O17242   1.289   7.825   9.290
 5667WAT     H117243   1.197   7.790   9.275
 5667WAT     H217244   1.343   7.759   9.342
 5668WAT      O17245   1.085   5.312   5.304
 5668WAT     H117246   1.096   5.219   5.341
 5668WAT     H217247   1.094   5.309   5.204
 5669WAT      O17248   2.606   6.394   6.466
 5669WAT     H117249   2.602   6.453   6.546
 5669WAT     H217250   2.589   6.299   6.494
 5670WAT      O17251   5.961   1.083   2.701
 5670WAT     H117252   6.025   1.006   2.709
 5670WAT     H217253   5.889   1.060   2.636
 5671WAT      O17254   8.690   8.319   6.436
 5671WAT     H117255   8.605   8.326   6.488
 5671WAT     H217256   8.765   8.295   6.498
 5672WAT      O17257   2.987   5.630   8.323
 5672WAT     H117258   3.070   5.632   8.268
 5672WAT     H217259   3.007   5.664   8.415
 5673WAT      O17260   8.486   0.438   0.293
 5673WAT     H117261   8.401   0.478   0.329
 5673WAT     H217262   8.486   0.339   0.311
 5674WAT      O17263   9.037   9.407   7.832
 5674WAT     H117264   9.101   9.434   7.761
 5674WAT     H217265   9.035   9.307   7.840
 5675WAT      O17266   3.711   1.309   8.879
 5675WAT     H117267   3.630   1.338   8.930
 5675WAT     H217268   3.745   1.222   8.915
 5676WAT      O17269   4.851   9.454   2.718
 5676WAT     H117270   4.933   9.492   2.676
 5676WAT     H217271   4.814   9.520   2.784
 5677WAT      O17272   7.501   8.328   9.033
 5677WAT     H117273   7.422   8.294   9.083
 5677WAT     H217274   7.509   8.280   8.945
 5678WAT      O17275   7.638   4.020   5.426
 5678WAT     H117276   7.610   3.924   5.432
 5678WAT     H217277   7.719   4.035   5.482
 5679WAT      O17278   6.611   2.583   0.881
 5679WAT     H117279   6.569   2.641   0.951
 5679WAT     H217280   6.588   2.488   0.898
 5680WAT      O17281   7.402   4.963   6.965
 5680WAT     H117282   7.433   4.943   6.872
 5680WAT     H217283   7.340   5.042   6.963
 5681WAT      O17284   4.700   1.284   0.905
 5681WAT     H117285   4.734   1.361   0.958
 5681WAT     H217286   4.641   1.227   0.962
 5682WAT      O17287   5.624   4.406   2.824
 5682WAT     H117288   5.550   4.370   2.882
 5682WAT     H217289   5.682   4.331   2.795
 5683WAT      O17290   7.345   4.221   6.110
 5683WAT     H117291   7.397   4.228   6.195
 5683WAT     H217292   7.342   4.311   6.066
 5684WAT      O17293   8.343   6.740   3.011
 5684WAT     H117294   8.259   6.766   2.963
 5684WAT     H217295   8.386   6.822   3.050
 5685WAT      O17296   9.600   3.093   5.480
 5685WAT     H117297   9.530   3.118   5.547
 5685WAT     H217298   9.556   3.046   5.403
 5686WAT      O17299   1.951   3.257   1.905
 5686WAT     H117300   1.968   3.170   1.857
 5686WAT     H217301   2.002   3.330   1.860
 5687WAT      O17302   1.509   9.406   4.590
 5687WAT     H117303   1.604   9.385   4.564
 5687WAT     H217304   1.450   9.331   4.561
 5688WAT      O17305   4.216   2.104   2.369
 5688WAT     H117306   4.227   2.166   2.291
 5688WAT     H217307   4.141   2.040   2.350
 5689WAT      O17308   0.463   6.109   0.177
 5689WAT     H117309   0.484   6.111   0.275
 5689WAT     H217310   0.475   6.201   0.139
 5690WAT      O17311   6.904   9.094   3.453
 5690WAT     H117312   6.812   9.098   3.491
 5690WAT     H217313   6.908   9.147   3.368
 5691WAT      O17314   1.612   3.324   4.268
 5691WAT     H117315   1.675   3.396   4.298
 5691WAT     H217316   1.534   3.322   4.330
 5692WAT      O17317   1.925   7.061   8.413
 5692WAT     H117318   2.008   7.024   8.456
 5692WAT     H217319   1.868   7.105   8.482
 5693WAT      O17320   9.038   0.954   0.858
 5693WAT     H117321   8.946   0.991   0.841
 5693WAT     H217322   9.034   0.854   0.858
 5694WAT      O17323   3.401   8.429   6.258
 5694WAT     H117324   3.415   8.341   6.304
 5694WAT     H217325   3.340   8.417   6.180
 5695WAT      O17326   6.753   4.439   6.348
 5695WAT     H117327   6.819   4.367   6.369
 5695WAT     H217328   6.766   4.469   6.254
 5696WAT      O17329   3.057   3.834   5.916
 5696WAT     H117330   3.071   3.857   5.820
 5696WAT     H217331   2.959   3.816   5.932
 5697WAT      O17332   3.604   1.334   8.119
 5697WAT     H117333   3.556   1.272   8.057
 5697WAT     H217334   3.652   1.404   8.065
 5698WAT      O17335   8.133   9.222   2.633
 5698WAT     H117336   8.141   9.322   2.637
 5698WAT     H217337   8.222   9.181   2.650
 5699WAT      O17338   5.043   1.956   5.654
 5699WAT     H117339   5.084   2.038   5.615
 5699WAT     H217340   5.044   1.883   5.585
 5700WAT      O17341   3.177   6.602   2.686
 5700WAT     H117342   3.254   6.553   2.726
 5700WAT     H217343   3.092   6.554   2.708
 5701WAT      O17344   0.388   8.598   0.855
 5701WAT     H117345   0.389   8.561   0.762
 5701WAT     H217346   0.390   8.698   0.851
 5702WAT      O17347   7.411   7.187   9.179
 5702WAT     H117348   7.473   7.263   9.158
 5702WAT     H217349   7.418   7.117   9.107
 5703WAT      O17350   3.183   4.602   0.343
 5703WAT     H117351   3.268   4.584   0.294
 5703WAT     H217352   3.199   4.672   0.413
 5704WAT      O17353   1.622   5.337   1.767
 5704WAT     H117354   1.637   5.398   1.844
 5704WAT     H217355   1.691   5.354   1.696
 5705WAT      O17356   9.171   3.849   1.675
 5705WAT     H117357   9.184   3.912   1.752
 5705WAT     H217358   9.128   3.765   1.707
 5706WAT      O17359   8.593   5.811   9.058
 5706WAT     H117360   8.620   5.832   8.964
 5706WAT     H217361   8.517   5.870   9.085
 5707WAT      O17362   8.777   1.810   8.917
 5707WAT     H117363   8.710   1.742   8.948
 5707WAT     H217364   8.809   1.862   8.996
 5708WAT      O17365   9.279   1.602   4.319
 5708WAT     H117366   9.274   1.504   4.336
 5708WAT     H217367   9.294   1.651   4.405
 5709WAT      O17368   7.091   8.432   3.114
 5709WAT     H117369   7.121   8.451   3.207
 5709WAT     H217370   7.146   8.359   3.075
 5710WAT      O17371   0.533   2.404   1.505
 5710WAT     H117372   0.439   2.407   1.470
 5710WAT     H217373   0.536   2.444   1.596
 5711WAT      O17374   5.092   4.291   1.379
 5711WAT     H117375   5.153   4.222   1.340
 5711WAT     H217376   5.061   4.261   1.469
 5712WAT      O17377   2.408   6.301   3.588
 5712WAT     H117378   2.335   6.311   3.521
 5712WAT     H217379   2.372   6.321   3.679
 5713WAT      O17380   0.294   3.086   9.252
 5713WAT     H117381   0.204   3.130   9.254
 5713WAT     H217382   0.353   3.128   9.321
 5714WAT      O17383   2.427   0.111   4.899
 5714WAT     H117384   2.412   0.148   4.807
 5714WAT     H217385   2.482   0.175   4.952
 5715WAT      O17386   1.433   7.827   3.941
 5715WAT     H117387   1.379   7.788   3.866
 5715WAT     H217388   1.435   7.926   3.932
 5716WAT      O17389   9.169   6.622   7.982
 5716WAT     H117390   9.254   6.575   7.961
 5716WAT     H217391   9.097   6.590   7.920
 5717WAT      O17392   6.676   0.676   4.712
 5717WAT     H117393   6.634   0.617   4.643
 5717WAT     H217394   6.608   0.698   4.782
 5718WAT      O17395   7.653   2.318   8.186
 5718WAT     H117396   7.602   2.402   8.205
 5718WAT     H217397   7.731   2.312   8.249
 5719WAT      O17398   0.795   6.061   9.579
 5719WAT     H117399   0.812   6.103   9.489
 5719WAT     H217400   0.775   6.133   9.646
 5720WAT      O17401   2.252   5.643   0.060
 5720WAT     H117402   2.240   5.743   0.065
 5720WAT     H217403   2.163   5.598   0.062
 5721WAT      O17404   1.611   3.026   5.122
 5721WAT     H117405   1.573   3.002   5.033
 5721WAT     H217406   1.574   3.114   5.151
 5722WAT      O17407   1.936   2.428   1.787
 5722WAT     H117408   1.990   2.359   1.834
 5722WAT     H217409   1.965   2.433   1.691
 5723WAT      O17410   7.660   7.121   7.370
 5723WAT     H117411   7.759   7.134   7.377
 5723WAT     H217412   7.617   7.208   7.346
 5724WAT      O17413   1.693   4.142   4.654
 5724WAT     H117414   1.728   4.071   4.714
 5724WAT     H217415   1.698   4.111   4.559
 5725WAT      O17416   6.433   2.099   3.444
 5725WAT     H117417   6.348   2.066   3.404
 5725WAT     H217418   6.464   2.036   3.515
 5726WAT      O17419   9.018   4.217   4.551
 5726WAT     H117420   8.993   4.120   4.560
 5726WAT     H217421   9.116   4.227   4.564
 5727WAT      O17422   8.483   0.630   1.482
 5727WAT     H117423   8.564   0.661   1.431
 5727WAT     H217424   8.512   0.593   1.570
 5728WAT      O17425   9.371   3.871   9.351
 5728WAT     H117426   9.390   3.778   9.384
 5728WAT     H217427   9.404   3.937   9.417
 5729WAT      O17428   2.899   2.580   3.324
 5729WAT     H117429   2.883   2.622   3.413
 5729WAT     H217430   2.951   2.495   3.336
 5730WAT      O17431   9.752   1.565   5.296
 5730WAT     H117432   9.828   1.522   5.248
 5730WAT     H217433   9.784   1.601   5.384
 5731WAT      O17434   8.155   2.378   6.226
 5731WAT     H117435   8.144   2.443   6.301
 5731WAT     H217436   8.233   2.405   6.169
 5732WAT      O17437   4.290   5.827   1.481
 5732WAT     H117438   4.258   5.922   1.487
 5732WAT     H217439   4.358   5.810   1.553
 5733WAT      O17440   8.345   5.006   6.748
 5733WAT     H117441   8.316   4.936   6.685
 5733WAT     H217442   8.300   4.993   6.837
 5734WAT      O17443   3.756   1.083   9.418
 5734WAT     H117444   3.830   1.149   9.431
 5734WAT     H217445   3.793   0.998   9.381
 5735WAT      O17446   5.718   1.896   6.259
 5735WAT     H117447   5.764   1.831   6.318
 5735WAT     H217448   5.621   1.875   6.254
 5736WAT      O17449   9.422   8.120   1.045
 5736WAT     H117450   9.419   8.020   1.051
 5736WAT     H217451   9.500   8.148   0.991
 5737WAT      O17452   9.466   5.665   8.355
 5737WAT     H117453   9.557   5.623   8.359
 5737WAT     H217454   9.426   5.648   8.265
 5738WAT      O17455   2.114   9.353   5.893
 5738WAT     H117456   2.016   9.360   5.875
 5738WAT     H217457   2.136   9.404   5.976
 5739WAT      O17458   7.368   1.221   2.542
 5739WAT     H117459   7.373   1.266   2.631
 5739WAT     H217460   7.379   1.289   2.469
 5740WAT      O17461   9.799   1.194   1.185
 5740WAT     H117462   9.844   1.245   1.112
 5740WAT     H217463   9.778   1.101   1.153
 5741WAT      O17464   3.295   7.684   1.658
 5741WAT     H117465   3.331   7.631   1.581
 5741WAT     H217466   3.278   7.778   1.627
 5742WAT      O17467   6.216   2.200   2.819
 5742WAT     H117468   6.125   2.225   2.852
 5742WAT     H217469   6.284   2.263   2.857
 5743WAT      O17470   2.961   6.387   6.022
 5743WAT     H117471   2.880   6.405   5.966
 5743WAT     H217472   2.933   6.349   6.111
 5744WAT      O17473   6.801   2.416   3.840
 5744WAT     H117474   6.857   2.499   3.838
 5744WAT     H217475   6.778   2.389   3.747
 5745WAT      O17476   4.564   8.626   8.968
 5745WAT     H117477   4.664   8.625   8.974
 5745WAT     H217478   4.525   8.582   9.049
 5746WAT      O17479   5.456   3.019   5.956
 5746WAT     H117480   5.477   3.007   5.859
 5746WAT     H217481   5.401   2.942   5.988
 5747WAT      O17482   2.782   4.204   3.817
 5747WAT     H117483   2.774   4.272   3.744
 5747WAT     H217484   2.870   4.212   3.862
 5748WAT      O17485   0.209   9.082   9.743
 5748WAT     H117486   0.284   9.074   9.677
 5748WAT     H217487   0.156   8.997   9.742
 5749WAT      O17488   4.252   7.671   5.130
 5749WAT     H117489   4.312   7.610   5.079
 5749WAT     H217490   4.304   7.715   5.204
 5750WAT      O17491   2.004   7.308   8.348
 5750WAT     H117492   1.982   7.213   8.372
 5750WAT     H217493   1.925   7.366   8.364
 5751WAT      O17494   9.159   2.768   4.397
 5751WAT     H117495   9.076   2.784   4.343
 5751WAT     H217496   9.239   2.790   4.342
 5752WAT      O17497   9.676   3.792   7.895
 5752WAT     H117498   9.735   3.787   7.976
 5752WAT     H217499   9.661   3.700   7.860
 5753WAT      O17500   3.853   2.675   8.598
 5753WAT     H117501   3.758   2.645   8.606
 5753WAT     H217502   3.872   2.701   8.503
 5754WAT      O17503   9.348   6.230   4.173
 5754WAT     H117504   9.314   6.323   4.158
 5754WAT     H217505   9.426   6.213   4.113
 5755WAT      O17506   6.430   7.619   6.728
 5755WAT     H117507   6.365   7.552   6.763
 5755WAT     H217508   6.383   7.705   6.709
 5756WAT      O17509   1.439   1.651   6.799
 5756WAT     H117510   1.366   1.590   6.771
 5756WAT     H217511   1.400   1.734   6.838
 5757WAT      O17512   9.740   5.077   3.900
 5757WAT     H117513   9.723   5.048   3.805
 5757WAT     H217514   9.836   5.061   3.923
 5758WAT      O17515   5.314   2.107   8.330
 5758WAT     H117516   5.353   2.199   8.334
 5758WAT     H217517   5.340   2.064   8.244
 5759WAT      O17518   7.843   2.879   0.293
 5759WAT     H117519   7.763   2.905   0.347
 5759WAT     H217520   7.839   2.923   0.203
 5760WAT      O17521   1.204   4.106   0.360
 5760WAT     H117522   1.189   4.192   0.312
 5760WAT     H217523   1.284   4.059   0.322
 5761WAT      O17524   0.697   8.603   8.764
 5761WAT     H117525   0.631   8.529   8.757
 5761WAT     H217526   0.754   8.589   8.845
 5762WAT      O17527   1.210   2.469   8.978
 5762WAT     H117528   1.177   2.377   8.960
 5762WAT     H217529   1.263   2.502   8.899
 5763WAT      O17530   4.577   8.350   6.223
 5763WAT     H117531   4.622   8.385   6.141
 5763WAT     H217532   4.516   8.275   6.198
 5764WAT      O17533   5.947   8.931   0.978
 5764WAT     H117534   5.917   8.987   0.901
 5764WAT     H217535   6.000   8.987   1.042
 5765WAT      O17536   5.486   0.328   0.389
 5765WAT     H117537   5.392   0.311   0.358
 5765WAT     H217538   5.525   0.402   0.335
 5766WAT      O17539   9.320   6.654   3.929
 5766WAT     H117540   9.248   6.706   3.884
 5766WAT     H217541   9.289   6.560   3.945
 5767WAT      O17542   8.815   7.471   6.848
 5767WAT     H117543   8.771   7.442   6.933
 5767WAT     H217544   8.795   7.405   6.776
 5768WAT      O17545   0.533   5.125   8.911
 5768WAT     H117546   0.471   5.048   8.897
 5768WAT     H217547   0.506   5.174   8.995
 5769WAT      O17548   6.097   8.891   4.703
 5769WAT     H117549   6.150   8.832   4.642
 5769WAT     H217550   6.065   8.971   4.652
 5770WAT      O17551   9.073   9.790   0.913
 5770WAT     H117552   9.105   9.840   0.994
 5770WAT     H217553   9.109   9.697   0.915
 5771WAT      O17554   7.456   8.270   7.804
 5771WAT     H117555   7.396   8.191   7.802
 5771WAT     H217556   7.478   8.292   7.899
 5772WAT      O17557   2.546   9.614   0.201
 5772WAT     H117558   2.559   9.676   0.125
 5772WAT     H217559   2.599   9.530   0.186
 5773WAT      O17560   0.143   0.445   8.440
 5773WAT     H117561   0.153   0.347   8.459
 5773WAT     H217562   0.213   0.474   8.375
 5774WAT      O17563   5.595   3.161   2.140
 5774WAT     H117564   5.554   3.070   2.151
 5774WAT     H217565   5.523   3.231   2.148
 5775WAT      O17566   2.884   5.699   2.223
 5775WAT     H117567   2.915   5.606   2.241
 5775WAT     H217568   2.820   5.699   2.147
 5776WAT      O17569   1.470   0.913   1.700
 5776WAT     H117570   1.465   0.975   1.622
 5776WAT     H217571   1.378   0.902   1.739
 5777WAT      O17572   5.753   4.900   5.537
 5777WAT     H117573   5.654   4.907   5.550
 5777WAT     H217574   5.783   4.972   5.476
 5778WAT      O17575   1.237   6.410   8.132
 5778WAT     H117576   1.195   6.499   8.114
 5778WAT     H217577   1.278   6.375   8.048
 5779WAT      O17578   2.250   6.970   7.559
 5779WAT     H117579   2.348   6.965   7.540
 5779WAT     H217580   2.221   6.886   7.604
 5780WAT      O17581   0.141   1.244   2.408
 5780WAT     H117582   0.061   1.216   2.355
 5780WAT     H217583   0.218   1.261   2.346
 5781WAT      O17584   7.910   0.636   5.301
 5781WAT     H117585   7.996   0.683   5.324
 5781WAT     H217586   7.894   0.643   5.202
 5782WAT      O17587   6.336   0.517   4.533
 5782WAT     H117588   6.297   0.433   4.495
 5782WAT     H217589   6.422   0.538   4.487
 5783WAT      O17590   6.696   1.363   3.056
 5783WAT     H117591   6.698   1.399   2.963
 5783WAT     H217592   6.602   1.336   3.079
 5784WAT      O17593   9.591   2.265   4.720
 5784WAT     H117594   9.498   2.299   4.733
 5784WAT     H217595   9.643   2.331   4.666
 5785WAT      O17596   9.474   1.321   3.782
 5785WAT     H117597   9.409   1.395   3.763
 5785WAT     H217598   9.425   1.234   3.787
 5786WAT      O17599   7.159   8.591   7.472
 5786WAT     H117600   7.241   8.536   7.455
 5786WAT     H217601   7.163   8.673   7.415
 5787WAT      O17602   7.985   4.916   8.545
 5787WAT     H117603   7.968   4.967   8.460
 5787WAT     H217604   8.082   4.893   8.551
 5788WAT      O17605   0.808   3.925   1.685
 5788WAT     H117606   0.889   3.982   1.694
 5788WAT     H217607   0.821   3.839   1.734
 5789WAT      O17608   9.389   1.773   4.800
 5789WAT     H117609   9.431   1.864   4.804
 5789WAT     H217610   9.353   1.758   4.708
 5790WAT      O17611   4.846   9.561   5.033
 5790WAT     H117612   4.787   9.642   5.026
 5790WAT     H217613   4.875   9.549   5.128
 5791WAT      O17614   9.235   9.820   1.364
 5791WAT     H117615   9.158   9.867   1.409
 5791WAT     H217616   9.243   9.727   1.401
 5792WAT      O17617   6.307   6.044   4.503
 5792WAT     H117618   6.247   6.026   4.581
 5792WAT     H217619   6.283   6.132   4.462
 5793WAT      O17620   8.958   5.259   7.231
 5793WAT     H117621   9.042   5.279   7.180
 5793WAT     H217622   8.892   5.215   7.169
 5794WAT      O17623   9.109   2.727   5.396
 5794WAT     H117624   9.009   2.733   5.408
 5794WAT     H217625   9.139   2.635   5.423
 5795WAT      O17626   3.333   3.470   9.531
 5795WAT     H117627   3.319   3.426   9.620
 5795WAT     H217628   3.378   3.559   9.545
 5796WAT      O17629   0.442   8.695   3.334
 5796WAT     H117630   0.491   8.760   3.276
 5796WAT     H217631   0.378   8.642   3.279
 5797WAT      O17632   9.680   0.360   1.590
 5797WAT     H117633   9.590   0.382   1.626
 5797WAT     H217634   9.679   0.269   1.549
 5798WAT      O17635   8.775   7.789   2.445
 5798WAT     H117636   8.844   7.717   2.444
 5798WAT     H217637   8.773   7.835   2.357
 5799WAT      O17638   1.441   0.575   0.180
 5799WAT     H117639   1.524   0.523   0.201
 5799WAT     H217640   1.428   0.577   0.081
 5800WAT      O17641   7.800   9.232   8.030
 5800WAT     H117642   7.831   9.303   8.093
 5800WAT     H217643   7.701   9.238   8.019
 5801WAT      O17644   0.635   3.782   5.345
 5801WAT     H117645   0.651   3.881   5.349
 5801WAT     H217646   0.601   3.758   5.254
 5802WAT      O17647   3.034   4.233   2.491
 5802WAT     H117648   2.966   4.306   2.496
 5802WAT     H217649   2.996   4.156   2.439
 5803WAT      O17650   6.477   9.586   7.152
 5803WAT     H117651   6.416   9.579   7.072
 5803WAT     H217652   6.538   9.664   7.141
 5804WAT      O17653   1.830   6.505   7.756
 5804WAT     H117654   1.852   6.528   7.661
 5804WAT     H217655   1.788   6.584   7.801
 5805WAT      O17656   8.939   5.791   7.143
 5805WAT     H117657   8.877   5.866   7.120
 5805WAT     H217658   8.982   5.757   7.060
 5806WAT      O17659   2.170   4.446   6.554
 5806WAT     H117660   2.094   4.411   6.498
 5806WAT     H217661   2.207   4.529   6.513
 5807WAT      O17662   4.508   4.431   6.221
 5807WAT     H117663   4.430   4.491   6.206
 5807WAT     H217664   4.592   4.479   6.197
 5808WAT      O17665   0.946   5.011   7.774
 5808WAT     H117666   0.890   4.959   7.709
 5808WAT     H217667   0.953   4.961   7.860
 5809WAT      O17668   0.879   8.803   5.108
 5809WAT     H117669   0.976   8.823   5.121
 5809WAT     H217670   0.826   8.885   5.124
 5810WAT      O17671   5.530   3.083   3.091
 5810WAT     H117672   5.515   3.012   3.161
 5810WAT     H217673   5.473   3.063   3.011
 5811WAT      O17674   4.958   9.027   6.336
 5811WAT     H117675   4.992   9.010   6.428
 5811WAT     H217676   5.007   8.970   6.270
 5812WAT      O17677   6.992   5.106   9.188
 5812WAT     H117678   7.048   5.057   9.121
 5812WAT     H217679   6.951   5.041   9.251
 5813WAT      O17680   6.959   0.203   4.881
 5813WAT     H117681   6.879   0.230   4.935
 5813WAT     H217682   6.990   0.113   4.910
 5814WAT      O17683   8.737   2.583   3.870
 5814WAT     H117684   8.773   2.588   3.777
 5814WAT     H217685   8.719   2.488   3.894
 5815WAT      O17686   0.131   6.072   6.567
 5815WAT     H117687   0.100   5.984   6.530
 5815WAT     H217688   0.052   6.132   6.580
 5816WAT      O17689   7.145   4.322   7.541
 5816WAT     H117690   7.120   4.265   7.619
 5816WAT     H217691   7.215   4.276   7.487
 5817WAT      O17692   8.104   7.091   0.373
 5817WAT     H117693   8.070   7.185   0.377
 5817WAT     H217694   8.126   7.060   0.466
 5818WAT      O17695   8.914   1.040   7.343
 5818WAT     H117696   8.909   1.128   7.390
 5818WAT     H217697   9.004   0.999   7.357
 5819WAT      O17698   8.952   9.454   2.271
 5819WAT     H117699   9.047   9.441   2.245
 5819WAT     H217700   8.942   9.541   2.320
 5820WAT      O17701   9.135   6.676   4.797
 5820WAT     H117702   9.058   6.727   4.759
 5820WAT     H217703   9.170   6.724   4.878
 5821WAT      O17704   1.424   0.343   1.503
 5821WAT     H117705   1.415   0.428   1.450
 5821WAT     H217706   1.437   0.366   1.599
 5822WAT      O17707   7.322   7.260   1.968
 5822WAT     H117708   7.328   7.206   1.885
 5822WAT     H217709   7.273   7.345   1.950
 5823WAT      O17710   9.770   0.837   2.393
 5823WAT     H117711   9.759   0.925   2.438
 5823WAT     H217712   9.689   0.818   2.337
 5824WAT      O17713   4.675   7.661   3.241
 5824WAT     H117714   4.764   7.674   3.198
 5824WAT     H217715   4.640   7.749   3.273
 5825WAT      O17716   7.697   4.803   1.273
 5825WAT     H117717   7.768   4.842   1.215
 5825WAT     H217718   7.731   4.794   1.367
 5826WAT      O17719   4.198   1.119   5.637
 5826WAT     H117720   4.118   1.155   5.684
 5826WAT     H217721   4.261   1.078   5.703
 5827WAT      O17722   1.553   7.437   2.757
 5827WAT     H117723   1.572   7.403   2.664
 5827WAT     H217724   1.491   7.374   2.803
 5828WAT      O17725   3.915   0.306   5.647
 5828WAT     H117726   3.893   0.340   5.739
 5828WAT     H217727   3.849   0.236   5.620
 5829WAT      O17728   3.289   2.166   4.238
 5829WAT     H117729   3.263   2.070   4.226
 5829WAT     H217730   3.347   2.174   4.320
 5830WAT      O17731   9.344   6.066   5.172
 5830WAT     H117732   9.332   5.996   5.243
 5830WAT     H217733   9.378   6.150   5.214
 5831WAT      O17734   6.767   3.576   0.678
 5831WAT     H117735   6.755   3.676   0.683
 5831WAT     H217736   6.798   3.542   0.767
 5832WAT      O17737   0.822   1.557   6.093
 5832WAT     H117738   0.840   1.535   6.189
 5832WAT     H217739   0.723   1.558   6.076
 5833WAT      O17740   1.529   1.701   0.364
 5833WAT     H117741   1.466   1.748   0.301
 5833WAT     H217742   1.567   1.766   0.429
 5834WAT      O17743   9.223   3.834   1.276
 5834WAT     H117744   9.183   3.903   1.336
 5834WAT     H217745   9.232   3.871   1.183
 5835WAT      O17746   3.469   3.169   5.166
 5835WAT     H117747   3.398   3.237   5.151
 5835WAT     H217748   3.559   3.212   5.156
 5836WAT      O17749   1.858   6.339   5.986
 5836WAT     H117750   1.785   6.377   6.043
 5836WAT     H217751   1.943   6.336   6.038
 5837WAT      O17752   9.128   2.163   3.371
 5837WAT     H117753   9.185   2.106   3.430
 5837WAT     H217754   9.044   2.115   3.349
 5838WAT      O17755   3.753   9.801   8.768
 5838WAT     H117756   3.795   9.721   8.810
 5838WAT     H217757   3.757   9.878   8.832
 5839WAT      O17758   7.968   3.451   4.378
 5839WAT     H117759   7.994   3.531   4.432
 5839WAT     H217760   7.872   3.430   4.393
 5840WAT      O17761   2.636   5.105   2.804
 5840WAT     H117762   2.557   5.066   2.852
 5840WAT     H217763   2.675   5.036   2.743
 5841WAT      O17764   3.952   9.033   7.163
 5841WAT     H117765   4.001   9.080   7.089
 5841WAT     H217766   3.887   9.096   7.206
 5842WAT      O17767   2.187   7.768   9.085
 5842WAT     H117768   2.100   7.794   9.128
 5842WAT     H217769   2.178   7.679   9.042
 5843WAT      O17770   3.568   6.076   4.992
 5843WAT     H117771   3.497   6.099   5.059
 5843WAT     H217772   3.658   6.088   5.034
 5844WAT      O17773   9.693   7.171   9.042
 5844WAT     H117774   9.628   7.239   9.008
 5844WAT     H217775   9.760   7.150   8.971
 5845WAT      O17776   5.784   4.330   0.092
 5845WAT     H117777   5.705   4.332   0.031
 5845WAT     H217778   5.837   4.247   0.076
 5846WAT      O17779   4.353   6.261   9.742
 5846WAT     H117780   4.297   6.259   9.825
 5846WAT     H217781   4.431   6.321   9.755
 5847WAT      O17782   2.771   8.578   0.919
 5847WAT     H117783   2.716   8.571   0.835
 5847WAT     H217784   2.715   8.550   0.997
 5848WAT      O17785   7.439   7.295   7.802
 5848WAT     H117786   7.397   7.240   7.729
 5848WAT     H217787   7.453   7.388   7.768
 5849WAT      O17788   2.122   1.584   4.653
 5849WAT     H117789   2.064   1.508   4.620
 5849WAT     H217790   2.218   1.555   4.652
 5850WAT      O17791   5.475   6.463   9.729
 5850WAT     H117792   5.469   6.364   9.746
 5850WAT     H217793   5.570   6.491   9.732
 5851WAT      O17794   9.070   6.491   8.622
 5851WAT     H117795   9.156   6.460   8.581
 5851WAT     H217796   9.037   6.422   8.685
 5852WAT      O17797   1.821   4.411   4.402
 5852WAT     H117798   1.744   4.456   4.447
 5852WAT     H217799   1.789   4.366   4.318
 5853WAT      O17800   9.046   9.633   3.215
 5853WAT     H117801   9.015   9.686   3.136
 5853WAT     H217802   8.969   9.619   3.278
 5854WAT      O17803   9.269   1.093   2.996
 5854WAT     H117804   9.307   1.171   2.946
 5854WAT     H217805   9.257   1.016   2.933
 5855WAT      O17806   0.589   3.941   0.786
 5855WAT     H117807   0.609   4.006   0.712
 5855WAT     H217808   0.526   3.871   0.752
 5856WAT      O17809   7.440   3.358   3.903
 5856WAT     H117810   7.510   3.344   3.833
 5856WAT     H217811   7.482   3.395   3.986
 5857WAT      O17812   6.533   1.428   8.250
 5857WAT     H117813   6.471   1.377   8.309
 5857WAT     H217814   6.512   1.409   8.154
 5858WAT      O17815   8.964   5.614   8.310
 5858WAT     H117816   9.022   5.552   8.257
 5858WAT     H217817   8.996   5.615   8.405
 5859WAT      O17818   4.695   5.625   4.256
 5859WAT     H117819   4.646   5.603   4.172
 5859WAT     H217820   4.752   5.547   4.283
 5860WAT      O17821   5.795   6.353   7.548
 5860WAT     H117822   5.843   6.309   7.624
 5860WAT     H217823   5.781   6.450   7.569
 5861WAT      O17824   3.842   1.869   7.724
 5861WAT     H117825   3.852   1.891   7.627
 5861WAT     H217826   3.894   1.786   7.745
 5862WAT      O17827   0.614   2.064   9.777
 5862WAT     H117828   0.705   2.089   9.810
 5862WAT     H217829   0.576   1.992   9.836
 5863WAT      O17830   8.798   8.289   8.749
 5863WAT     H117831   8.725   8.355   8.735
 5863WAT     H217832   8.823   8.247   8.662
 5864WAT      O17833   9.667   7.276   0.285
 5864WAT     H117834   9.732   7.243   0.353
 5864WAT     H217835   9.673   7.375   0.278
 5865WAT      O17836   9.883   8.601   1.058
 5865WAT     H117837   9.974   8.559   1.056
 5865WAT     H217838   9.883   8.684   1.002
 5866WAT      O17839   7.334   3.535   2.132
 5866WAT     H117840   7.323   3.635   2.137
 5866WAT     H217841   7.324   3.496   2.223
 5867WAT      O17842   5.734   3.623   4.039
 5867WAT     H117843   5.656   3.640   4.101
 5867WAT     H217844   5.710   3.549   3.977
 5868WAT      O17845   4.431   8.031   1.915
 5868WAT     H117846   4.443   7.932   1.927
 5868WAT     H217847   4.356   8.048   1.852
 5869WAT      O17848   3.074   8.231   5.799
 5869WAT     H117849   3.166   8.194   5.801
 5869WAT     H217850   3.063   8.298   5.872
 5870WAT      O17851   0.487   6.374   1.177
 5870WAT     H117852   0.534   6.288   1.156
 5870WAT     H217853   0.389   6.364   1.161
 5871WAT      O17854   4.152   5.582   9.492
 5871WAT     H117855   4.218   5.648   9.457
 5871WAT     H217856   4.200   5.501   9.526
 5872WAT      O17857   7.020   0.558   1.173
 5872WAT     H117858   7.043   0.520   1.263
 5872WAT     H217859   7.083   0.524   1.104
 5873WAT      O17860   1.738   8.891   5.941
 5873WAT     H117861   1.657   8.930   5.898
 5873WAT     H217862   1.724   8.887   6.040
 5874WAT      O17863   1.046   4.864   7.480
 5874WAT     H117864   0.966   4.834   7.428
 5874WAT     H217865   1.017   4.912   7.563
 5875WAT      O17866   4.236   9.241   6.998
 5875WAT     H117867   4.293   9.320   7.022
 5875WAT     H217868   4.140   9.263   7.015
 5876WAT      O17869   3.572   6.653   2.679
 5876WAT     H117870   3.635   6.692   2.611
 5876WAT     H217871   3.504   6.722   2.704
 5877WAT      O17872   7.964   3.956   6.446
 5877WAT     H117873   7.941   3.984   6.353
 5877WAT     H217874   7.884   3.965   6.505
 5878WAT      O17875   5.893   3.867   3.093
 5878WAT     H117876   5.960   3.937   3.118
 5878WAT     H217877   5.906   3.841   2.997
 5879WAT      O17878   2.365   9.009   7.047
 5879WAT     H117879   2.326   8.926   7.087
 5879WAT     H217880   2.332   9.019   6.953
 5880WAT      O17881   9.792   0.285   2.709
 5880WAT     H117882   9.786   0.237   2.796
 5880WAT     H217883   9.765   0.223   2.635
 5881WAT      O17884   3.625   9.694   5.866
 5881WAT     H117885   3.615   9.613   5.808
 5881WAT     H217886   3.634   9.665   5.961
 5882WAT      O17887   4.994   1.210   9.139
 5882WAT     H117888   5.057   1.246   9.070
 5882WAT     H217889   4.950   1.286   9.187
 5883WAT      O17890   0.922   2.297   9.146
 5883WAT     H117891   0.959   2.266   9.058
 5883WAT     H217892   0.830   2.261   9.158
 5884WAT      O17893   8.434   2.178   0.766
 5884WAT     H117894   8.389   2.106   0.713
 5884WAT     H217895   8.368   2.224   0.825
 5885WAT      O17896   3.180   0.924   5.070
 5885WAT     H117897   3.138   0.996   5.125
 5885WAT     H217898   3.170   0.836   5.116
 5886WAT      O17899   6.876   3.575   8.018
 5886WAT     H117900   6.849   3.648   8.080
 5886WAT     H217901   6.892   3.491   8.070
 5887WAT      O17902   1.231   2.575   3.568
 5887WAT     H117903   1.239   2.670   3.537
 5887WAT     H217904   1.210   2.516   3.490
 5888WAT      O17905   3.418   4.923   7.243
 5888WAT     H117906   3.403   4.832   7.281
 5888WAT     H217907   3.423   4.989   7.317
 5889WAT      O17908   7.537   6.874   5.721
 5889WAT     H117909   7.511   6.814   5.797
 5889WAT     H217910   7.531   6.969   5.750
 5890WAT      O17911   4.609   5.876   8.715
 5890WAT     H117912   4.554   5.833   8.786
 5890WAT     H217913   4.582   5.972   8.706
 5891WAT      O17914   2.151   6.154   9.024
 5891WAT     H117915   2.246   6.128   9.039
 5891WAT     H217916   2.126   6.227   9.088
 5892WAT      O17917   5.032   7.818   7.150
 5892WAT     H117918   5.084   7.754   7.093
 5892WAT     H217919   5.082   7.834   7.235
 5893WAT      O17920   3.591   1.513   2.402
 5893WAT     H117921   3.684   1.512   2.440
 5893WAT     H217922   3.538   1.587   2.444
 5894WAT      O17923   7.448   6.287   3.054
 5894WAT     H117924   7.392   6.207   3.073
 5894WAT     H217925   7.545   6.264   3.064
 5895WAT      O17926   4.485   5.892   2.878
 5895WAT     H117927   4.512   5.906   2.783
 5895WAT     H217928   4.566   5.869   2.932
 5896WAT      O17929   3.543   4.034   1.149
 5896WAT     H117930   3.476   4.041   1.223
 5896WAT     H217931   3.619   3.976   1.178
 5897WAT      O17932   1.595   3.874   5.609
 5897WAT     H117933   1.534   3.843   5.682
 5897WAT     H217934   1.687   3.886   5.645
 5898WAT      O17935   0.927   2.736   5.670
 5898WAT     H117936   0.843   2.710   5.622
 5898WAT     H217937   0.992   2.661   5.664
 5899WAT      O17938   4.710   0.203   0.449
 5899WAT     H117939   4.736   0.259   0.528
 5899WAT     H217940   4.788   0.149   0.419
 5900WAT      O17941   1.633   1.644   2.730
 5900WAT     H117942   1.624   1.617   2.826
 5900WAT     H217943   1.694   1.724   2.724
 5901WAT      O17944   6.368   5.366   3.672
 5901WAT     H117945   6.446   5.425   3.655
 5901WAT     H217946   6.378   5.282   3.619
 5902WAT      O17947   1.507   2.759   8.160
 5902WAT     H117948   1.409   2.777   8.148
 5902WAT     H217949   1.532   2.676   8.111
 5903WAT      O17950   8.479   1.773   4.127
 5903WAT     H117951   8.406   1.812   4.071
 5903WAT     H217952   8.567   1.788   4.081
 5904WAT      O17953   2.620   0.359   0.115
 5904WAT     H117954   2.674   0.441   0.134
 5904WAT     H217955   2.644   0.323   0.024
 5905WAT      O17956   0.809   3.093   5.326
 5905WAT     H117957   0.810   3.189   5.298
 5905WAT     H217958   0.878   3.078   5.397
 5906WAT      O17959   5.111   7.697   1.968
 5906WAT     H117960   5.049   7.676   1.892
 5906WAT     H217961   5.162   7.614   1.993
 5907WAT      O17962   5.698   8.021   6.460
 5907WAT     H117963   5.753   7.937   6.454
 5907WAT     H217964   5.719   8.068   6.545
 5908WAT      O17965   6.664   9.090   4.268
 5908WAT     H117966   6.594   9.103   4.198
 5908WAT     H217967   6.711   9.177   4.284
 5909WAT      O17968   6.182   9.625   2.547
 5909WAT     H117969   6.143   9.577   2.468
 5909WAT     H217970   6.107   9.661   2.603
 5910WAT      O17971   3.553   4.251   8.514
 5910WAT     H117972   3.536   4.273   8.418
 5910WAT     H217973   3.651   4.246   8.531
 5911WAT      O17974   6.323   1.902   4.298
 5911WAT     H117975   6.266   1.823   4.322
 5911WAT     H217976   6.387   1.875   4.226
 5912WAT      O17977   3.140   4.976   4.040
 5912WAT     H117978   3.167   4.945   4.131
 5912WAT     H217979   3.050   4.939   4.017
 5913WAT      O17980   5.884   0.083   0.673
 5913WAT     H117981   5.861   0.143   0.596
 5913WAT     H217982   5.848  -0.009   0.656
 5914WAT      O17983   4.055   6.365   1.661
 5914WAT     H117984   4.150   6.353   1.690
 5914WAT     H217985   4.000   6.396   1.739
 5915WAT      O17986   8.021   5.769   6.460
 5915WAT     H117987   7.937   5.765   6.406
 5915WAT     H217988   8.087   5.829   6.415
 5916WAT      O17989   0.465   1.804   5.246
 5916WAT     H117990   0.552   1.807   5.295
 5916WAT     H217991   0.398   1.861   5.293
 5917WAT      O17992   6.102   2.340   2.217
 5917WAT     H117993   6.110   2.255   2.166
 5917WAT     H217994   6.133   2.326   2.311
 5918WAT      O17995   0.752   9.225   1.518
 5918WAT     H117996   0.690   9.149   1.500
 5918WAT     H217997   0.766   9.277   1.433
 5919WAT      O17998   2.324   0.744   7.709
 5919WAT     H117999   2.408   0.783   7.671
 5919WAT     H218000   2.343   0.705   7.799
 5920WAT      O18001   5.653   1.408   0.037
 5920WAT     H118002   5.635   1.450  -0.052
 5920WAT     H218003   5.567   1.377   0.077
 5921WAT      O18004   7.166   2.262   7.385
 5921WAT     H118005   7.162   2.362   7.386
 5921WAT     H218006   7.155   2.227   7.478
 5922WAT      O18007   0.650   9.741   3.403
 5922WAT     H118008   0.723   9.765   3.340
 5922WAT     H218009   0.583   9.815   3.406
 5923WAT      O18010   9.708   5.182   7.329
 5923WAT     H118011   9.773   5.151   7.399
 5923WAT     H218012   9.680   5.105   7.273
 5924WAT      O18013   0.101   3.582   2.607
 5924WAT     H118014   0.140   3.653   2.666
 5924WAT     H218015   0.001   3.590   2.607
 5925WAT      O18016   8.110   2.902   9.809
 5925WAT     H118017   8.118   2.803   9.801
 5925WAT     H218018   8.193   2.939   9.850
 5926WAT      O18019   1.960   0.624   0.051
 5926WAT     H118020   1.873   0.618   0.003
 5926WAT     H218021   1.948   0.679   0.134
 5927WAT      O18022   1.326   6.616   0.447
 5927WAT     H118023   1.400   6.550   0.452
 5927WAT     H218024   1.335   6.682   0.522
 5928WAT      O18025   7.586   6.231   5.757
 5928WAT     H118026   7.547   6.140   5.738
 5928WAT     H218027   7.512   6.297   5.769
 5929WAT      O18028   6.496   5.584   4.600
 5929WAT     H118029   6.515   5.486   4.596
 5929WAT     H218030   6.490   5.621   4.507
 5930WAT      O18031   1.962   7.932   8.898
 5930WAT     H118032   1.916   7.905   8.983
 5930WAT     H218033   2.018   8.013   8.914
 5931WAT      O18034   7.960   6.905   4.827
 5931WAT     H118035   7.872   6.935   4.864
 5931WAT     H218036   7.953   6.894   4.728
 5932WAT      O18037   2.385   1.982   1.791
 5932WAT     H118038   2.374   1.952   1.886
 5932WAT     H218039   2.325   2.061   1.775
 5933WAT      O18040   5.430   4.372   3.035
 5933WAT     H118041   5.350   4.333   2.989
 5933WAT     H218042   5.466   4.305   3.101
 5934WAT      O18043   4.420   8.360   7.352
 5934WAT     H118044   4.324   8.385   7.362
 5934WAT     H218045   4.454   8.394   7.264
 5935WAT      O18046   3.166   0.562   7.345
 5935WAT     H118047   3.240   0.614   7.387
 5935WAT     H218048   3.199   0.471   7.321
 5936WAT      O18049   0.485   8.688   4.211
 5936WAT     H118050   0.405   8.709   4.267
 5936WAT     H218051   0.499   8.589   4.209
 5937WAT      O18052   3.736   9.557   8.393
 5937WAT     H118053   3.678   9.624   8.347
 5937WAT     H218054   3.681   9.503   8.456
 5938WAT      O18055   3.610   2.712   9.747
 5938WAT     H118056   3.536   2.645   9.740
 5938WAT     H218057   3.662   2.695   9.830
 5939WAT      O18058   9.196   0.829   5.717
 5939WAT     H118059   9.244   0.915   5.735
 5939WAT     H218060   9.229   0.758   5.779
 5940WAT      O18061   5.278   2.823   0.927
 5940WAT     H118062   5.366   2.783   0.899
 5940WAT     H218063   5.204   2.766   0.892
 5941WAT      O18064   9.223   5.395   3.365
 5941WAT     H118065   9.204   5.468   3.299
 5941WAT     H218066   9.152   5.395   3.435
 5942WAT      O18067   3.146   9.626   7.258
 5942WAT     H118068   3.238   9.621   7.297
 5942WAT     H218069   3.141   9.565   7.179
 5943WAT      O18070   7.405   7.286   6.042
 5943WAT     H118071   7.350   7.216   6.086
 5943WAT     H218072   7.346   7.360   6.009
 5944WAT      O18073   7.179   9.007   3.222
 5944WAT     H118074   7.246   9.003   3.297
 5944WAT     H218075   7.095   8.960   3.250
 5945WAT      O18076   0.548   8.006   3.052
 5945WAT     H118077   0.505   7.978   3.138
 5945WAT     H218078   0.554   7.927   2.991
 5946WAT      O18079   0.190   2.762   7.298
 5946WAT     H118080   0.267   2.716   7.341
 5946WAT     H218081   0.149   2.702   7.229
 5947WAT      O18082   2.049   5.587   8.805
 5947WAT     H118083   1.990   5.563   8.882
 5947WAT     H218084   2.048   5.514   8.737
 5948WAT      O18085   4.368   8.628   6.578
 5948WAT     H118086   4.362   8.535   6.541
 5948WAT     H218087   4.461   8.663   6.565
 5949WAT      O18088   4.427   5.312   9.022
 5949WAT     H118089   4.369   5.288   9.100
 5949WAT     H218090   4.403   5.253   8.944
 5950WAT      O18091   3.044   0.451   6.472
 5950WAT     H118092   2.981   0.385   6.431
 5950WAT     H218093   3.126   0.458   6.416
 5951WAT      O18094   2.698   1.257   6.134
 5951WAT     H118095   2.664   1.246   6.040
 5951WAT     H218096   2.794   1.230   6.138
 5952WAT      O18097   3.280   7.060   1.038
 5952WAT     H118098   3.214   6.987   1.054
 5952WAT     H218099   3.307   7.100   1.126
 5953WAT      O18100   8.602   9.620   6.692
 5953WAT     H118101   8.666   9.669   6.751
 5953WAT     H218102   8.635   9.621   6.598
 5954WAT      O18103   1.829   4.081   2.367
 5954WAT     H118104   1.815   4.127   2.280
 5954WAT     H218105   1.741   4.054   2.406
 5955WAT      O18106   4.779   4.909   3.403
 5955WAT     H118107   4.838   4.839   3.444
 5955WAT     H218108   4.723   4.951   3.474
 5956WAT      O18109   5.544   0.837   7.424
 5956WAT     H118110   5.494   0.923   7.411
 5956WAT     H218111   5.479   0.765   7.448
 5957WAT      O18112   0.935   4.123   0.473
 5957WAT     H118113   0.909   4.037   0.517
 5957WAT     H218114   1.027   4.114   0.434
 5958WAT      O18115   8.785   0.676   3.260
 5958WAT     H118116   8.774   0.705   3.165
 5958WAT     H218117   8.848   0.598   3.264
 5959WAT      O18118   5.418   5.908   9.062
 5959WAT     H118119   5.421   6.007   9.072
 5959WAT     H218120   5.353   5.870   9.128
 5960WAT      O18121   3.939   5.068   2.792
 5960WAT     H118122   3.968   5.006   2.719
 5960WAT     H218123   3.980   5.040   2.879
 5961WAT      O18124   2.108   7.150   6.485
 5961WAT     H118125   2.199   7.138   6.524
 5961WAT     H218126   2.108   7.229   6.423
 5962WAT      O18127   7.375   4.849   4.852
 5962WAT     H118128   7.303   4.798   4.899
 5962WAT     H218129   7.363   4.840   4.754
 5963WAT      O18130   2.234   2.198   7.392
 5963WAT     H118131   2.208   2.282   7.345
 5963WAT     H218132   2.303   2.219   7.462
 5964WAT      O18133   7.130   9.025   3.635
 5964WAT     H118134   7.047   9.063   3.593
 5964WAT     H218135   7.106   8.945   3.690
 5965WAT      O18136   9.734   4.287   7.893
 5965WAT     H118137   9.783   4.264   7.809
 5965WAT     H218138   9.639   4.257   7.885
 5966WAT      O18139   6.580   5.534   3.620
 5966WAT     H118140   6.610   5.617   3.666
 5966WAT     H218141   6.634   5.520   3.537
 5967WAT      O18142   6.013   3.608   3.592
 5967WAT     H118143   6.003   3.515   3.626
 5967WAT     H218144   6.094   3.651   3.632
 5968WAT      O18145   6.129   1.295   9.443
 5968WAT     H118146   6.202   1.313   9.510
 5968WAT     H218147   6.098   1.201   9.453
 5969WAT      O18148   0.034   7.184   1.690
 5969WAT     H118149   0.127   7.185   1.726
 5969WAT     H218150   0.035   7.155   1.594
 5970WAT      O18151   7.859   2.681   8.329
 5970WAT     H118152   7.841   2.678   8.231
 5970WAT     H218153   7.812   2.605   8.374
 5971WAT      O18154   9.172   0.523   3.954
 5971WAT     H118155   9.181   0.452   4.024
 5971WAT     H218156   9.262   0.543   3.915
 5972WAT      O18157   5.673   1.317   6.149
 5972WAT     H118158   5.680   1.368   6.064
 5972WAT     H218159   5.710   1.225   6.136
 5973WAT      O18160   3.373   3.970   1.359
 5973WAT     H118161   3.415   4.010   1.440
 5973WAT     H218162   3.276   3.992   1.357
 5974WAT      O18163   6.013   3.407   9.119
 5974WAT     H118164   5.951   3.358   9.059
 5974WAT     H218165   6.104   3.413   9.076
 5975WAT      O18166   4.602   4.318   2.721
 5975WAT     H118167   4.614   4.416   2.703
 5975WAT     H218168   4.518   4.304   2.773
 5976WAT      O18169   4.482   5.533   9.413
 5976WAT     H118170   4.418   5.464   9.380
 5976WAT     H218171   4.503   5.597   9.339
 5977WAT      O18172   0.409   3.870   9.323
 5977WAT     H118173   0.441   3.947   9.268
 5977WAT     H218174   0.442   3.880   9.417
 5978WAT      O18175   0.340   6.179   2.360
 5978WAT     H118176   0.352   6.091   2.406
 5978WAT     H218177   0.406   6.188   2.286
 5979WAT      O18178   7.405   7.640   5.181
 5979WAT     H118179   7.418   7.597   5.092
 5979WAT     H218180   7.351   7.580   5.240
 5980WAT      O18181   5.896   8.780   5.507
 5980WAT     H118182   5.890   8.685   5.537
 5980WAT     H218183   5.966   8.828   5.560
 5981WAT      O18184   5.741   1.533   3.672
 5981WAT     H118185   5.802   1.495   3.741
 5981WAT     H218186   5.659   1.477   3.665
 5982WAT      O18187   0.785   0.664   1.160
 5982WAT     H118188   0.748   0.734   1.221
 5982WAT     H218189   0.723   0.651   1.083
 5983WAT      O18190   8.941   9.279   3.435
 5983WAT     H118191   8.849   9.241   3.430
 5983WAT     H218192   9.001   9.216   3.485
 5984WAT      O18193   1.114   1.753   4.262
 5984WAT     H118194   1.182   1.812   4.218
 5984WAT     H218195   1.143   1.733   4.356
 5985WAT      O18196   6.163   9.139   9.644
 5985WAT     H118197   6.085   9.099   9.595
 5985WAT     H218198   6.153   9.238   9.647
 5986WAT      O18199   7.869   8.010   5.829
 5986WAT     H118200   7.787   8.067   5.834
 5986WAT     H218201   7.843   7.913   5.828
 5987WAT      O18202   2.167   5.988   7.686
 5987WAT     H118203   2.260   6.012   7.659
 5987WAT     H218204   2.117   5.951   7.607
 5988WAT      O18205   8.443   6.835   6.733
 5988WAT     H118206   8.480   6.921   6.768
 5988WAT     H218207   8.343   6.835   6.739
 5989WAT      O18208   2.000   8.480   3.694
 5989WAT     H118209   1.951   8.405   3.650
 5989WAT     H218210   2.079   8.443   3.743
 5990WAT      O18211   1.420   2.931   7.375
 5990WAT     H118212   1.415   2.856   7.309
 5990WAT     H218213   1.336   2.935   7.428
 5991WAT      O18214   0.562   2.682   8.669
 5991WAT     H118215   0.661   2.687   8.678
 5991WAT     H218216   0.521   2.763   8.712
 5992WAT      O18217   5.314   8.113   8.085
 5992WAT     H118218   5.250   8.072   8.020
 5992WAT     H218219   5.271   8.117   8.175
 5993WAT      O18220   7.381   7.235   6.855
 5993WAT     H118221   7.357   7.332   6.858
 5993WAT     H218222   7.315   7.187   6.797
 5994WAT      O18223   8.702   1.067   6.005
 5994WAT     H118224   8.698   1.004   5.927
 5994WAT     H218225   8.796   1.074   6.038
 5995WAT      O18226   3.359   8.738   4.470
 5995WAT     H118227   3.427   8.665   4.479
 5995WAT     H218228   3.269   8.703   4.495
 5996WAT      O18229   6.717   8.793   0.397
 5996WAT     H118230   6.700   8.889   0.374
 5996WAT     H218231   6.699   8.778   0.495
 5997WAT      O18232   6.857   6.705   7.550
 5997WAT     H118233   6.852   6.659   7.638
 5997WAT     H218234   6.929   6.775   7.552
 5998WAT      O18235   5.634   0.676   5.038
 5998WAT     H118236   5.675   0.602   5.091
 5998WAT     H218237   5.630   0.650   4.942
 5999WAT      O18238   8.810   6.726   6.828
 5999WAT     H118239   8.764   6.794   6.771
 5999WAT     H218240   8.899   6.703   6.788
 6000WAT      O18241   0.406   5.992   9.823
 6000WAT     H118242   0.377   6.005   9.917
 6000WAT     H218243   0.347   6.046   9.762
 6001WAT      O18244   0.142   3.850   4.982
 6001WAT     H118245   0.214   3.784   4.962
 6001WAT     H218246   0.093   3.872   4.898
 6002WAT      O18247   3.434   4.538   0.312
 6002WAT     H118248   3.469   4.479   0.385
 6002WAT     H218249   3.510   4.585   0.267
 6003WAT      O18250   9.274   4.643   4.289
 6003WAT     H118251   9.365   4.674   4.262
 6003WAT     H218252   9.244   4.571   4.227
 6004WAT      O18253   5.144   6.026   5.756
 6004WAT     H118254   5.122   6.100   5.694
 6004WAT     H218255   5.237   5.994   5.740
 6005WAT      O18256   7.756   4.534   4.870
 6005WAT     H118257   7.687   4.584   4.923
 6005WAT     H218258   7.806   4.597   4.812
 6006WAT      O18259   3.837   5.050   5.674
 6006WAT     H118260   3.885   4.993   5.608
 6006WAT     H218261   3.855   5.146   5.656
 6007WAT      O18262   6.861   1.329   8.712
 6007WAT     H118263   6.954   1.335   8.749
 6007WAT     H218264   6.847   1.238   8.672
 6008WAT      O18265   7.691   1.260   1.232
 6008WAT     H118266   7.605   1.312   1.230
 6008WAT     H218267   7.678   1.172   1.187
 6009WAT      O18268   5.294   3.478   5.176
 6009WAT     H118269   5.313   3.380   5.168
 6009WAT     H218270   5.313   3.524   5.089
 6010WAT      O18271   6.132   8.345   5.138
 6010WAT     H118272   6.056   8.380   5.192
 6010WAT     H218273   6.157   8.254   5.171
 6011WAT      O18274   2.409   1.657   5.757
 6011WAT     H118275   2.465   1.664   5.840
 6011WAT     H218276   2.461   1.609   5.686
 6012WAT      O18277   1.896   1.020   1.384
 6012WAT     H118278   1.873   1.090   1.451
 6012WAT     H218279   1.975   0.968   1.417
 6013WAT      O18280   1.683   7.287   0.059
 6013WAT     H118281   1.770   7.243   0.081
 6013WAT     H218282   1.609   7.222   0.071
 6014WAT      O18283   5.655   1.030   7.832
 6014WAT     H118284   5.658   0.968   7.754
 6014WAT     H218285   5.629   0.978   7.914
 6015WAT      O18286   8.799   8.299   0.862
 6015WAT     H118287   8.809   8.349   0.776
 6015WAT     H218288   8.884   8.305   0.914
 6016WAT      O18289   0.615   2.345   0.924
 6016WAT     H118290   0.609   2.255   0.967
 6016WAT     H218291   0.702   2.387   0.950
 6017WAT      O18292   5.314   0.336   8.881
 6017WAT     H118293   5.361   0.423   8.893
 6017WAT     H218294   5.380   0.261   8.889
 6018WAT      O18295   3.415   1.290   2.989
 6018WAT     H118296   3.478   1.234   2.936
 6018WAT     H218297   3.321   1.260   2.971
 6019WAT      O18298   9.761   6.066   1.518
 6019WAT     H118299   9.778   5.974   1.553
 6019WAT     H218300   9.712   6.119   1.587
 6020WAT      O18301   2.853   4.219   7.618
 6020WAT     H118302   2.854   4.319   7.620
 6020WAT     H218303   2.762   4.188   7.588
 6021WAT      O18304   6.985   4.691   8.180
 6021WAT     H118305   7.014   4.737   8.096
 6021WAT     H218306   6.885   4.689   8.184
 6022WAT      O18307   3.278   4.766   8.187
 6022WAT     H118308   3.324   4.701   8.248
 6022WAT     H218309   3.346   4.812   8.131
 6023WAT      O18310   8.045   7.296   7.613
 6023WAT     H118311   8.015   7.202   7.628
 6023WAT     H218312   8.143   7.303   7.631
 6024WAT      O18313   9.132   1.784   4.165
 6024WAT     H118314   9.197   1.724   4.212
 6024WAT     H218315   9.059   1.811   4.228
 6025WAT      O18316   1.206   6.529   0.881
 6025WAT     H118317   1.152   6.490   0.956
 6025WAT     H218318   1.265   6.601   0.916
 6026WAT      O18319   8.853   2.734   2.549
 6026WAT     H118320   8.899   2.812   2.506
 6026WAT     H218321   8.879   2.650   2.501
 6027WAT      O18322   9.074   6.223   5.363
 6027WAT     H118323   9.162   6.198   5.404
 6027WAT     H218324   9.048   6.153   5.297
 6028WAT      O18325   1.594   3.736   8.309
 6028WAT     H118326   1.653   3.807   8.272
 6028WAT     H218327   1.529   3.777   8.374
 6029WAT      O18328   1.429   2.479   5.219
 6029WAT     H118329   1.387   2.404   5.166
 6029WAT     H218330   1.382   2.565   5.197
 6030WAT      O18331   0.576   2.393   6.529
 6030WAT     H118332   0.609   2.305   6.495
 6030WAT     H218333   0.650   2.459   6.525
 6031WAT      O18334   2.177   5.270   6.628
 6031WAT     H118335   2.224   5.223   6.703
 6031WAT     H218336   2.161   5.206   6.554
 6032WAT      O18337   0.860   1.888   9.084
 6032WAT     H118338   0.895   1.851   9.170
 6032WAT     H218339   0.935   1.899   9.019
 6033WAT      O18340   9.302   1.184   3.237
 6033WAT     H118341   9.390   1.168   3.282
 6033WAT     H218342   9.304   1.146   3.145
 6034WAT      O18343   5.316   6.112   6.000
 6034WAT     H118344   5.319   6.012   6.006
 6034WAT     H218345   5.251   6.139   5.929
 6035WAT      O18346   7.980   0.472   6.241
 6035WAT     H118347   8.039   0.409   6.190
 6035WAT     H218348   8.033   0.553   6.267
 6036WAT      O18349   8.890   7.775   0.940
 6036WAT     H118350   8.979   7.810   0.968
 6036WAT     H218351   8.846   7.839   0.877
 6037WAT      O18352   5.916   5.268   2.873
 6037WAT     H118353   5.887   5.358   2.841
 6037WAT     H218354   5.861   5.243   2.953
 6038WAT      O18355   1.843   4.303   1.776
 6038WAT     H118356   1.790   4.229   1.734
 6038WAT     H218357   1.850   4.288   1.874
 6039WAT      O18358   8.639   0.322   8.582
 6039WAT     H118359   8.571   0.359   8.646
 6039WAT     H218360   8.614   0.228   8.559
 6040WAT      O18361   1.637   4.962   9.740
 6040WAT     H118362   1.577   4.917   9.674
 6040WAT     H218363   1.726   4.980   9.698
 6041WAT      O18364   2.069   0.419   7.396
 6041WAT     H118365   2.165   0.431   7.424
 6041WAT     H218366   2.058   0.449   7.301
 6042WAT      O18367   7.049   1.070   5.962
 6042WAT     H118368   7.080   1.156   6.004
 6042WAT     H218369   6.971   1.034   6.014
 6043WAT      O18370   4.240   2.474   3.299
 6043WAT     H118371   4.320   2.413   3.301
 6043WAT     H218372   4.269   2.565   3.270
 6044WAT      O18373   6.086   4.463   7.048
 6044WAT     H118374   6.027   4.389   7.081
 6044WAT     H218375   6.142   4.497   7.123
 6045WAT      O18376   1.295   4.440   5.080
 6045WAT     H118377   1.217   4.431   5.142
 6045WAT     H218378   1.334   4.532   5.088
 6046WAT      O18379   2.281   1.356   3.903
 6046WAT     H118380   2.303   1.453   3.895
 6046WAT     H218381   2.189   1.339   3.868
 6047WAT      O18382   0.054   3.693   7.047
 6047WAT     H118383  -0.046   3.686   7.039
 6047WAT     H218384   0.087   3.770   6.993
 6048WAT      O18385   4.924   2.398   8.970
 6048WAT     H118386   4.885   2.487   8.949
 6048WAT     H218387   5.023   2.400   8.955
 6049WAT      O18388   7.954   6.644   6.163
 6049WAT     H118389   7.993   6.665   6.074
 6049WAT     H218390   7.863   6.685   6.171
 6050WAT      O18391   6.778   1.332   0.665
 6050WAT     H118392   6.728   1.388   0.599
 6050WAT     H218393   6.868   1.310   0.628
 6051WAT      O18394   7.105   6.960   1.655
 6051WAT     H118395   7.189   7.005   1.684
 6051WAT     H218396   7.096   6.966   1.555
 6052WAT      O18397   8.758   7.023   3.319
 6052WAT     H118398   8.768   7.034   3.220
 6052WAT     H218399   8.709   6.937   3.338
 6053WAT      O18400   3.457   2.252   5.136
 6053WAT     H118401   3.410   2.262   5.048
 6053WAT     H218402   3.494   2.159   5.143
 6054WAT      O18403   0.721   5.113   0.720
 6054WAT     H118404   0.640   5.159   0.685
 6054WAT     H218405   0.787   5.099   0.646
 6055WAT      O18406   8.270   2.914   6.053
 6055WAT     H118407   8.180   2.873   6.035
 6055WAT     H218408   8.288   2.912   6.151
 6056WAT      O18409   9.774   4.417   3.281
 6056WAT     H118410   9.742   4.465   3.199
 6056WAT     H218411   9.766   4.319   3.267
 6057WAT      O18412   8.400   9.815   1.116
 6057WAT     H118413   8.499   9.829   1.112
 6057WAT     H218414   8.357   9.896   1.156
 6058WAT      O18415   4.319   1.519   6.502
 6058WAT     H118416   4.225   1.547   6.522
 6058WAT     H218417   4.364   1.590   6.448
 6059WAT      O18418   8.782   3.403   5.560
 6059WAT     H118419   8.831   3.390   5.474
 6059WAT     H218420   8.691   3.442   5.542
 6060WAT      O18421   5.705   5.305   7.675
 6060WAT     H118422   5.718   5.351   7.587
 6060WAT     H218423   5.792   5.301   7.724
 6061WAT      O18424   7.138   1.364   4.988
 6061WAT     H118425   7.078   1.285   5.001
 6061WAT     H218426   7.233   1.335   4.992
 6062WAT      O18427   2.156   6.951   5.332
 6062WAT     H118428   2.059   6.972   5.345
 6062WAT     H218429   2.164   6.876   5.266
 6063WAT      O18430   7.589   2.827   7.866
 6063WAT     H118431   7.585   2.918   7.825
 6063WAT     H218432   7.564   2.758   7.797
 6064WAT      O18433   0.949   6.787   4.798
 6064WAT     H118434   0.914   6.801   4.706
 6064WAT     H218435   1.049   6.784   4.796
 6065WAT      O18436   8.242   6.376   4.386
 6065WAT     H118437   8.252   6.387   4.287
 6065WAT     H218438   8.144   6.375   4.409
 6066WAT      O18439   6.346   9.317   0.238
 6066WAT     H118440   6.255   9.325   0.198
 6066WAT     H218441   6.367   9.401   0.289
 6067WAT      O18442   6.456   7.080   9.845
 6067WAT     H118443   6.459   7.025   9.761
 6067WAT     H218444   6.438   7.175   9.822
 6068WAT      O18445   2.492   6.976   7.443
 6068WAT     H118446   2.578   6.925   7.447
 6068WAT     H218447   2.505   7.058   7.387
 6069WAT      O18448   7.669   9.433   8.881
 6069WAT     H118449   7.616   9.504   8.927
 6069WAT     H218450   7.752   9.414   8.934
 6070WAT      O18451   4.438   4.794   3.396
 6070WAT     H118452   4.379   4.840   3.462
 6070WAT     H218453   4.439   4.845   3.310
 6071WAT      O18454   2.706   4.895   5.972
 6071WAT     H118455   2.760   4.812   5.988
 6071WAT     H218456   2.748   4.948   5.899
 6072WAT      O18457   0.864   3.296   0.198
 6072WAT     H118458   0.923   3.217   0.215
 6072WAT     H218459   0.805   3.278   0.120
 6073WAT      O18460   9.558   6.224   7.109
 6073WAT     H118461   9.604   6.226   7.020
 6073WAT     H218462   9.495   6.301   7.115
 6074WAT      O18463   5.569   1.419   4.792
 6074WAT     H118464   5.477   1.385   4.769
 6074WAT     H218465   5.614   1.450   4.709
 6075WAT      O18466   1.747   9.473   8.503
 6075WAT     H118467   1.652   9.441   8.498
 6075WAT     H218468   1.806   9.396   8.528
 6076WAT      O18469   4.453   9.774   5.295
 6076WAT     H118470   4.377   9.833   5.321
 6076WAT     H218471   4.477   9.716   5.373
 6077WAT      O18472   8.008   7.793   3.472
 6077WAT     H118473   8.003   7.704   3.425
 6077WAT     H218474   8.043   7.862   3.409
 6078WAT      O18475   2.327   2.052   4.820
 6078WAT     H118476   2.275   1.985   4.872
 6078WAT     H218477   2.360   2.011   4.735
 6079WAT      O18478   7.246   7.646   9.778
 6079WAT     H118479   7.323   7.702   9.750
 6079WAT     H218480   7.208   7.599   9.698
 6080WAT      O18481   0.372   9.153   5.814
 6080WAT     H118482   0.274   9.153   5.798
 6080WAT     H218483   0.402   9.062   5.842
 6081WAT      O18484   8.475   3.603   0.047
 6081WAT     H118485   8.481   3.640   0.140
 6081WAT     H218486   8.567   3.587   0.012
 6082WAT      O18487   7.198   7.932   9.477
 6082WAT     H118488   7.163   7.955   9.568
 6082WAT     H218489   7.196   8.013   9.419
 6083WAT      O18490   7.008   8.841   3.442
 6083WAT     H118491   7.069   8.807   3.514
 6083WAT     H218492   6.960   8.923   3.475
 6084WAT      O18493   5.270   7.593   4.646
 6084WAT     H118494   5.330   7.663   4.685
 6084WAT     H218495   5.175   7.617   4.662
 6085WAT      O18496   4.641   9.635   5.913
 6085WAT     H118497   4.696   9.718   5.909
 6085WAT     H218498   4.549   9.654   5.878
 6086WAT      O18499   2.189   0.045   7.508
 6086WAT     H118500   2.249   0.012   7.434
 6086WAT     H218501   2.244   0.066   7.588
 6087WAT      O18502   1.341   7.965   8.429
 6087WAT     H118503   1.409   8.037   8.416
 6087WAT     H218504   1.304   7.969   8.521
 6088WAT      O18505   7.165   1.578   8.875
 6088WAT     H118506   7.263   1.577   8.854
 6088WAT     H218507   7.126   1.666   8.847
 6089WAT      O18508   3.542   0.138   1.848
 6089WAT     H118509   3.579   0.175   1.933
 6089WAT     H218510   3.610   0.079   1.805
 6090WAT      O18511   2.358   5.776   4.103
 6090WAT     H118512   2.364   5.809   4.198
 6090WAT     H218513   2.406   5.841   4.043
 6091WAT      O18514   5.424   6.425   0.543
 6091WAT     H118515   5.509   6.372   0.542
 6091WAT     H218516   5.424   6.485   0.623
 6092WAT      O18517   9.649   8.392   8.257
 6092WAT     H118518   9.745   8.410   8.232
 6092WAT     H218519   9.589   8.423   8.183
 6093WAT      O18520   0.604   4.300   1.223
 6093WAT     H118521   0.619   4.202   1.237
 6093WAT     H218522   0.641   4.351   1.300
 6094WAT      O18523   6.930   9.439   9.125
 6094WAT     H118524   6.905   9.515   9.185
 6094WAT     H218525   7.028   9.442   9.105
 6095WAT      O18526   5.288   1.839   2.851
 6095WAT     H118527   5.380   1.810   2.825
 6095WAT     H218528   5.274   1.934   2.822
 6096WAT      O18529   9.564   6.810   8.846
 6096WAT     H118530   9.520   6.737   8.793
 6096WAT     H218531   9.496   6.879   8.871
 6097WAT      O18532   5.872   7.043   9.421
 6097WAT     H118533   5.808   7.002   9.356
 6097WAT     H218534   5.941   7.096   9.371
 6098WAT      O18535   8.435   3.564   7.118
 6098WAT     H118536   8.417   3.615   7.034
 6098WAT     H218537   8.391   3.474   7.113
 6099WAT      O18538   2.907   2.730   7.308
 6099WAT     H118539   2.891   2.633   7.289
 6099WAT     H218540   2.975   2.766   7.245
 6100WAT      O18541   6.809   8.185   3.758
 6100WAT     H118542   6.776   8.235   3.677
 6100WAT     H218543   6.831   8.250   3.831
 6101WAT      O18544   0.149   7.064   8.576
 6101WAT     H118545   0.132   6.990   8.641
 6101WAT     H218546   0.240   7.055   8.537
 6102WAT      O18547   5.873   0.201   0.913
 6102WAT     H118548   5.862   0.159   0.823
 6102WAT     H218549   5.877   0.129   0.983
 6103WAT      O18550   3.209   7.050   7.894
 6103WAT     H118551   3.178   7.004   7.976
 6103WAT     H218552   3.263   6.987   7.838
 6104WAT      O18553   6.358   9.614   3.012
 6104WAT     H118554   6.375   9.541   3.078
 6104WAT     H218555   6.276   9.665   3.038
 6105WAT      O18556   3.444   7.343   8.400
 6105WAT     H118557   3.389   7.289   8.464
 6105WAT     H218558   3.393   7.424   8.372
 6106WAT      O18559   7.798   3.689   9.626
 6106WAT     H118560   7.883   3.637   9.636
 6106WAT     H218561   7.731   3.656   9.692
 6107WAT      O18562   3.740   8.218   0.080
 6107WAT     H118563   3.711   8.241   0.173
 6107WAT     H218564   3.660   8.196   0.024
 6108WAT      O18565   2.089   4.372   8.419
 6108WAT     H118566   2.028   4.452   8.420
 6108WAT     H218567   2.106   4.343   8.513
 6109WAT      O18568   4.556   3.403   8.555
 6109WAT     H118569   4.502   3.341   8.611
 6109WAT     H218570   4.508   3.422   8.470
 6110WAT      O18571   3.088   0.511   8.960
 6110WAT     H118572   3.051   0.420   8.941
 6110WAT     H218573   3.083   0.566   8.876
 6111WAT      O18574   2.948   8.678   3.660
 6111WAT     H118575   3.036   8.705   3.699
 6111WAT     H218576   2.908   8.605   3.716
 6112WAT      O18577   3.826   7.504   7.536
 6112WAT     H118578   3.873   7.497   7.624
 6112WAT     H218579   3.893   7.501   7.462
 6113WAT      O18580   7.832   6.100   2.369
 6113WAT     H118581   7.777   6.105   2.452
 6113WAT     H218582   7.786   6.149   2.295
 6114WAT      O18583   2.902   3.215   6.270
 6114WAT     H118584   2.822   3.264   6.305
 6114WAT     H218585   2.984   3.271   6.282
 6115WAT      O18586   7.097   0.093   6.686
 6115WAT     H118587   7.093   0.183   6.643
 6115WAT     H218588   7.093   0.022   6.616
 6116WAT      O18589   4.195   7.140   6.530
 6116WAT     H118590   4.229   7.204   6.599
 6116WAT     H218591   4.271   7.087   6.493
 6117WAT      O18592   1.581   4.330   8.350
 6117WAT     H118593   1.668   4.346   8.302
 6117WAT     H218594   1.525   4.413   8.346
 6118WAT      O18595   5.886   5.461   2.571
 6118WAT     H118596   5.949   5.530   2.534
 6118WAT     H218597   5.844   5.496   2.655
 6119WAT      O18598   3.423   6.994   1.621
 6119WAT     H118599   3.462   7.035   1.704
 6119WAT     H218600   3.393   6.901   1.641
 6120WAT      O18601   5.238   1.215   7.293
 6120WAT     H118602   5.218   1.267   7.375
 6120WAT     H218603   5.156   1.209   7.235
 6121WAT      O18604   4.334   2.319   4.705
 6121WAT     H118605   4.259   2.350   4.647
 6121WAT     H218606   4.407   2.388   4.705
 6122WAT      O18607   8.361   2.813   5.380
 6122WAT     H118608   8.445   2.785   5.427
 6122WAT     H218609   8.288   2.748   5.401
 6123WAT      O18610   3.271   8.464   1.345
 6123WAT     H118611   3.337   8.535   1.320
 6123WAT     H218612   3.285   8.438   1.441
 6124WAT      O18613   7.262   1.538   1.658
 6124WAT     H118614   7.183   1.552   1.599
 6124WAT     H218615   7.332   1.607   1.637
 6125WAT      O18616   7.504   2.566   8.147
 6125WAT     H118617   7.436   2.566   8.074
 6125WAT     H218618   7.571   2.639   8.131
 6126WAT      O18619   3.705   2.961   4.612
 6126WAT     H118620   3.605   2.954   4.614
 6126WAT     H218621   3.739   2.972   4.705
 6127WAT      O18622   4.593   0.356   8.125
 6127WAT     H118623   4.631   0.267   8.148
 6127WAT     H218624   4.665   0.426   8.130
 6128WAT      O18625   5.299   1.086   1.211
 6128WAT     H118626   5.324   1.165   1.267
 6128WAT     H218627   5.377   1.058   1.155
 6129WAT      O18628   0.516   8.490   1.200
 6129WAT     H118629   0.559   8.576   1.228
 6129WAT     H218630   0.551   8.463   1.111
 6130WAT      O18631   4.910   6.044   2.073
 6130WAT     H118632   4.910   6.000   2.162
 6130WAT     H218633   4.934   5.977   2.002
 6131WAT      O18634   5.946   1.706   2.434
 6131WAT     H118635   5.848   1.725   2.427
 6131WAT     H218636   5.975   1.650   2.356
 6132WAT      O18637   9.468   8.766   6.166
 6132WAT     H118638   9.470   8.672   6.131
 6132WAT     H218639   9.389   8.814   6.127
 6133WAT      O18640   3.564   6.603   5.880
 6133WAT     H118641   3.626   6.557   5.943
 6133WAT     H218642   3.591   6.699   5.872
 6134WAT      O18643   1.730   7.525   6.458
 6134WAT     H118644   1.679   7.581   6.524
 6134WAT     H218645   1.710   7.429   6.475
 6135WAT      O18646   0.008   5.392   2.717
 6135WAT     H118647   0.029   5.390   2.619
 6135WAT     H218648  -0.051   5.470   2.738
 6136WAT      O18649   4.757   2.207   7.396
 6136WAT     H118650   4.731   2.240   7.486
 6136WAT     H218651   4.784   2.111   7.402
 6137WAT      O18652   9.328   1.075   2.356
 6137WAT     H118653   9.233   1.050   2.372
 6137WAT     H218654   9.361   1.031   2.273
 6138WAT      O18655   6.308   3.065   0.179
 6138WAT     H118656   6.394   3.013   0.177
 6138WAT     H218657   6.248   3.032   0.107
 6139WAT      O18658   3.389   7.959   0.018
 6139WAT     H118659   3.308   7.932  -0.034
 6139WAT     H218660   3.415   8.052  -0.007
 6140WAT      O18661   3.198   8.702   3.779
 6140WAT     H118662   3.282   8.749   3.752
 6140WAT     H218663   3.161   8.745   3.861
 6141WAT      O18664   8.713   5.001   1.822
 6141WAT     H118665   8.785   5.048   1.770
 6141WAT     H218666   8.710   4.905   1.794
 6142WAT      O18667   0.834   2.031   2.606
 6142WAT     H118668   0.757   2.089   2.635
 6142WAT     H218669   0.906   2.088   2.568
 6143WAT      O18670   5.117   9.270   9.286
 6143WAT     H118671   5.020   9.294   9.295
 6143WAT     H218672   5.173   9.339   9.331
 6144WAT      O18673   1.872   6.930   9.617
 6144WAT     H118674   1.809   6.986   9.563
 6144WAT     H218675   1.823   6.852   9.655
 6145WAT      O18676   2.884   5.041   5.425
 6145WAT     H118677   2.943   5.120   5.404
 6145WAT     H218678   2.923   4.959   5.383
 6146WAT      O18679   1.691   1.497   0.304
 6146WAT     H118680   1.639   1.580   0.324
 6146WAT     H218681   1.713   1.450   0.389
 6147WAT      O18682   4.604   9.751   4.330
 6147WAT     H118683   4.643   9.668   4.290
 6147WAT     H218684   4.511   9.763   4.296
 6148WAT      O18685   7.269   0.284   2.581
 6148WAT     H118686   7.292   0.381   2.575
 6148WAT     H218687   7.314   0.235   2.507
 6149WAT      O18688   6.692   4.092   5.330
 6149WAT     H118689   6.641   4.024   5.385
 6149WAT     H218690   6.773   4.121   5.381
 6150WAT      O18691   7.152   0.716   6.271
 6150WAT     H118692   7.143   0.640   6.207
 6150WAT     H218693   7.237   0.766   6.252
 6151WAT      O18694   3.736   0.884   4.129
 6151WAT     H118695   3.784   0.877   4.217
 6151WAT     H218696   3.641   0.911   4.145
 6152WAT      O18697   0.540   8.654   6.632
 6152WAT     H118698   0.627   8.624   6.671
 6152WAT     H218699   0.484   8.696   6.704
 6153WAT      O18700   7.223   2.560   2.242
 6153WAT     H118701   7.169   2.564   2.158
 6153WAT     H218702   7.218   2.467   2.280
 6154WAT      O18703   8.332   2.288   5.697
 6154WAT     H118704   8.286   2.281   5.608
 6154WAT     H218705   8.292   2.221   5.760
 6155WAT      O18706   1.663   2.397   9.747
 6155WAT     H118707   1.600   2.470   9.720
 6155WAT     H218708   1.708   2.420   9.833
 6156WAT      O18709   3.493   4.584   2.574
 6156WAT     H118710   3.462   4.585   2.669
 6156WAT     H218711   3.471   4.672   2.531
 6157WAT      O18712   7.271   6.716   4.866
 6157WAT     H118713   7.243   6.643   4.803
 6157WAT     H218714   7.220   6.800   4.844
 6158WAT      O18715   7.595   7.964   5.646
 6158WAT     H118716   7.675   7.935   5.593
 6158WAT     H218717   7.562   8.052   5.611
 6159WAT      O18718   1.206   2.027   8.285
 6159WAT     H118719   1.192   2.126   8.291
 6159WAT     H218720   1.158   1.982   8.359
 6160WAT      O18721   7.138   2.282   4.731
 6160WAT     H118722   7.106   2.262   4.824
 6160WAT     H218723   7.238   2.274   4.728
 6161WAT      O18724   8.648   3.679   7.787
 6161WAT     H118725   8.733   3.703   7.740
 6161WAT     H218726   8.576   3.662   7.719
 6162WAT      O18727   4.471   3.270   2.825
 6162WAT     H118728   4.405   3.332   2.866
 6162WAT     H218729   4.459   3.178   2.863
 6163WAT      O18730   1.296   5.491   2.236
 6163WAT     H118731   1.300   5.503   2.137
 6163WAT     H218732   1.287   5.393   2.257
 6164WAT      O18733   8.660   0.034   2.968
 6164WAT     H118734   8.648  -0.045   3.028
 6164WAT     H218735   8.723   0.011   2.894
 6165WAT      O18736   0.177   9.593   1.507
 6165WAT     H118737   0.154   9.540   1.588
 6165WAT     H218738   0.220   9.679   1.534
 6166WAT      O18739   5.556   1.834   5.101
 6166WAT     H118740   5.528   1.880   5.016
 6166WAT     H218741   5.567   1.736   5.084
 6167WAT      O18742   7.829   3.050   9.142
 6167WAT     H118743   7.809   3.146   9.126
 6167WAT     H218744   7.773   2.994   9.081
 6168WAT      O18745   5.526   1.815   9.532
 6168WAT     H118746   5.542   1.912   9.514
 6168WAT     H218747   5.453   1.805   9.600
 6169WAT      O18748   9.540   2.677   6.441
 6169WAT     H118749   9.446   2.705   6.422
 6169WAT     H218750   9.604   2.740   6.395
 6170WAT      O18751   9.775   4.230   1.023
 6170WAT     H118752   9.749   4.176   1.104
 6170WAT     H218753   9.716   4.204   0.946
 6171WAT      O18754   0.488   3.147   2.675
 6171WAT     H118755   0.474   3.056   2.637
 6171WAT     H218756   0.567   3.146   2.736
 6172WAT      O18757   1.387   2.269   7.290
 6172WAT     H118758   1.300   2.245   7.246
 6172WAT     H218759   1.369   2.319   7.374
 6173WAT      O18760   4.602   8.335   2.655
 6173WAT     H118761   4.588   8.333   2.754
 6173WAT     H218762   4.513   8.338   2.609
 6174WAT      O18763   7.957   8.554   7.714
 6174WAT     H118764   8.041   8.508   7.745
 6174WAT     H218765   7.969   8.583   7.619
 6175WAT      O18766   2.302   8.484   7.974
 6175WAT     H118767   2.254   8.531   7.900
 6175WAT     H218768   2.391   8.528   7.989
 6176WAT      O18769   3.450   3.708   3.432
 6176WAT     H118770   3.378   3.758   3.479
 6176WAT     H218771   3.462   3.744   3.340
 6177WAT      O18772   6.125   5.369   0.582
 6177WAT     H118773   6.063   5.293   0.602
 6177WAT     H218774   6.154   5.412   0.668
 6178WAT      O18775   3.105   8.175   8.810
 6178WAT     H118776   3.071   8.214   8.895
 6178WAT     H218777   3.200   8.145   8.823
 6179WAT      O18778   4.455   1.501   0.525
 6179WAT     H118779   4.394   1.579   0.512
 6179WAT     H218780   4.413   1.436   0.588
 6180WAT      O18781   8.957   4.223   4.039
 6180WAT     H118782   8.864   4.261   4.038
 6180WAT     H218783   8.997   4.236   4.129
 6181WAT      O18784   1.032   6.378   3.594
 6181WAT     H118785   0.993   6.286   3.589
 6181WAT     H218786   1.018   6.425   3.507
 6182WAT      O18787   8.874   7.029   8.267
 6182WAT     H118788   8.830   7.098   8.209
 6182WAT     H218789   8.935   7.074   8.332
 6183WAT      O18790   9.714   6.016   6.507
 6183WAT     H118791   9.762   5.940   6.462
 6183WAT     H218792   9.656   5.980   6.579
 6184WAT      O18793   2.713   2.916   8.100
 6184WAT     H118794   2.756   2.847   8.042
 6184WAT     H218795   2.740   2.902   8.195
 6185WAT      O18796   3.069   3.233   5.292
 6185WAT     H118797   3.023   3.263   5.208
 6185WAT     H218798   3.028   3.148   5.323
 6186WAT      O18799   5.069   4.990   8.707
 6186WAT     H118800   5.059   4.893   8.727
 6186WAT     H218801   4.981   5.035   8.717
 6187WAT      O18802   7.765   9.687   5.945
 6187WAT     H118803   7.700   9.613   5.960
 6187WAT     H218804   7.744   9.762   6.008
 6188WAT      O18805   9.276   3.940   1.912
 6188WAT     H118806   9.300   4.014   1.975
 6188WAT     H218807   9.303   3.852   1.952
 6189WAT      O18808   8.163   7.876   2.252
 6189WAT     H118809   8.203   7.898   2.163
 6189WAT     H218810   8.221   7.808   2.298
 6190WAT      O18811   7.275   3.173   4.048
 6190WAT     H118812   7.333   3.168   4.129
 6190WAT     H218813   7.308   3.244   3.986
 6191WAT      O18814   3.632   7.790   0.049
 6191WAT     H118815   3.556   7.847   0.017
 6191WAT     H218816   3.601   7.695   0.058
 6192WAT      O18817   3.174   4.559   5.674
 6192WAT     H118818   3.209   4.482   5.620
 6192WAT     H218819   3.190   4.644   5.624
 6193WAT      O18820   6.947   9.448   6.389
 6193WAT     H118821   6.989   9.491   6.310
 6193WAT     H218822   7.018   9.408   6.447
 6194WAT      O18823   3.272   5.073   9.008
 6194WAT     H118824   3.281   5.146   9.076
 6194WAT     H218825   3.358   5.022   9.002
 6195WAT      O18826   8.784   0.522   6.239
 6195WAT     H118827   8.831   0.589   6.296
 6195WAT     H218828   8.794   0.431   6.278
 6196WAT      O18829   1.159   3.514   7.570
 6196WAT     H118830   1.181   3.541   7.664
 6196WAT     H218831   1.107   3.429   7.572
 6197WAT      O18832   1.539   7.655   8.377
 6197WAT     H118833   1.442   7.679   8.371
 6197WAT     H218834   1.592   7.716   8.319
 6198WAT      O18835   1.971   9.085   7.049
 6198WAT     H118836   1.966   9.109   7.146
 6198WAT     H218837   2.026   9.152   7.001
 6199WAT      O18838   7.437   2.582   6.855
 6199WAT     H118839   7.388   2.534   6.781
 6199WAT     H218840   7.391   2.564   6.942
 6200WAT      O18841   6.595   6.117   2.700
 6200WAT     H118842   6.689   6.108   2.732
 6200WAT     H218843   6.536   6.145   2.775
 6201WAT      O18844   4.914   8.284   7.029
 6201WAT     H118845   4.820   8.285   7.063
 6201WAT     H218846   4.965   8.360   7.070
 6202WAT      O18847   5.890   8.417   4.154
 6202WAT     H118848   5.827   8.488   4.185
 6202WAT     H218849   5.929   8.444   4.066
 6203WAT      O18850   7.719   7.974   4.774
 6203WAT     H118851   7.725   8.016   4.683
 6203WAT     H218852   7.751   7.880   4.770
 6204WAT      O18853   4.076   9.387   8.646
 6204WAT     H118854   4.158   9.397   8.704
 6204WAT     H218855   4.099   9.412   8.552
 6205WAT      O18856   9.767   1.125   5.436
 6205WAT     H118857   9.829   1.077   5.374
 6205WAT     H218858   9.694   1.168   5.383
 6206WAT      O18859   3.623   5.568   7.956
 6206WAT     H118860   3.692   5.566   7.884
 6206WAT     H218861   3.622   5.479   8.003
 6207WAT      O18862   0.175   7.411   3.432
 6207WAT     H118863   0.219   7.419   3.343
 6207WAT     H218864   0.093   7.470   3.433
 6208WAT      O18865   2.317   3.502   9.543
 6208WAT     H118866   2.343   3.530   9.450
 6208WAT     H218867   2.305   3.584   9.600
 6209WAT      O18868   3.241   0.676   4.745
 6209WAT     H118869   3.171   0.744   4.767
 6209WAT     H218870   3.313   0.679   4.813
 6210WAT      O18871   7.455   4.931   2.838
 6210WAT     H118872   7.472   4.893   2.929
 6210WAT     H218873   7.519   4.890   2.772
 6211WAT      O18874   4.392   0.127   0.134
 6211WAT     H118875   4.374   0.213   0.087
 6211WAT     H218876   4.490   0.109   0.136
 6212WAT      O18877   0.551   6.138   7.141
 6212WAT     H118878   0.597   6.216   7.184
 6212WAT     H218879   0.481   6.172   7.078
 6213WAT      O18880   5.331   5.937   8.517
 6213WAT     H118881   5.260   6.005   8.537
 6213WAT     H218882   5.304   5.849   8.556
 6214WAT      O18883   9.484   0.737   4.713
 6214WAT     H118884   9.498   0.826   4.756
 6214WAT     H218885   9.387   0.725   4.692
 6215WAT      O18886   5.150   6.563   8.433
 6215WAT     H118887   5.208   6.554   8.513
 6215WAT     H218888   5.112   6.656   8.430
 6216WAT      O18889   7.403   5.532   3.609
 6216WAT     H118890   7.408   5.611   3.548
 6216WAT     H218891   7.358   5.559   3.694
 6217WAT      O18892   0.288   3.976   1.799
 6217WAT     H118893   0.339   3.914   1.858
 6217WAT     H218894   0.305   4.071   1.825
 6218WAT      O18895   3.711   4.802   8.408
 6218WAT     H118896   3.738   4.777   8.315
 6218WAT     H218897   3.785   4.852   8.452
 6219WAT      O18898   5.597   8.643   8.897
 6219WAT     H118899   5.593   8.670   8.801
 6219WAT     H218900   5.680   8.591   8.914
 6220WAT      O18901   1.380   1.947   4.469
 6220WAT     H118902   1.470   1.989   4.482
 6220WAT     H218903   1.310   2.019   4.462
 6221WAT      O18904   3.404   6.541   6.105
 6221WAT     H118905   3.464   6.573   6.032
 6221WAT     H218906   3.309   6.566   6.083
 6222WAT      O18907   5.946   3.534   5.447
 6222WAT     H118908   5.891   3.498   5.522
 6222WAT     H218909   5.903   3.510   5.360
 6223WAT      O18910   4.184   5.630   5.236
 6223WAT     H118911   4.227   5.699   5.294
 6223WAT     H218912   4.243   5.549   5.232
 6224WAT      O18913   9.550   9.561   1.722
 6224WAT     H118914   9.638   9.578   1.766
 6224WAT     H218915   9.496   9.645   1.720
 6225WAT      O18916   8.371   1.536   7.509
 6225WAT     H118917   8.418   1.507   7.592
 6225WAT     H218918   8.285   1.580   7.534
 6226WAT      O18919   4.388   2.619   0.655
 6226WAT     H118920   4.441   2.660   0.581
 6226WAT     H218921   4.337   2.690   0.703
 6227WAT      O18922   3.613   0.112   7.752
 6227WAT     H118923   3.531   0.142   7.702
 6227WAT     H218924   3.685   0.181   7.742
 6228WAT      O18925   6.009   1.535   3.197
 6228WAT     H118926   5.938   1.555   3.264
 6228WAT     H218927   5.973   1.475   3.126
 6229WAT      O18928   2.528   4.026   0.665
 6229WAT     H118929   2.610   4.082   0.654
 6229WAT     H218930   2.554   3.929   0.666
 6230WAT      O18931   5.949   5.980   1.728
 6230WAT     H118932   5.952   6.069   1.774
 6230WAT     H218933   5.889   5.986   1.648
 6231WAT      O18934   1.791   8.108   1.439
 6231WAT     H118935   1.834   8.055   1.512
 6231WAT     H218936   1.763   8.197   1.475
 6232WAT      O18937   1.357   9.333   5.786
 6232WAT     H118938   1.369   9.376   5.697
 6232WAT     H218939   1.406   9.246   5.788
 6233WAT      O18940   7.335   4.195   2.623
 6233WAT     H118941   7.402   4.244   2.680
 6233WAT     H218942   7.245   4.199   2.666
 6234WAT      O18943   3.633   2.988   9.082
 6234WAT     H118944   3.699   3.062   9.087
 6234WAT     H218945   3.668   2.916   9.021
 6235WAT      O18946   8.731   4.501   6.587
 6235WAT     H118947   8.712   4.404   6.599
 6235WAT     H218948   8.649   4.554   6.610
 6236WAT      O18949   0.223   6.631   1.697
 6236WAT     H118950   0.216   6.554   1.760
 6236WAT     H218951   0.270   6.707   1.743
 6237WAT      O18952   4.250   6.636   0.140
 6237WAT     H118953   4.240   6.733   0.162
 6237WAT     H218954   4.164   6.602   0.101
 6238WAT      O18955   0.018   4.148   8.536
 6238WAT     H118956  -0.009   4.147   8.440
 6238WAT     H218957   0.116   4.129   8.544
 6239WAT      O18958   1.249   9.218   9.103
 6239WAT     H118959   1.337   9.206   9.148
 6239WAT     H218960   1.262   9.269   9.018
 6240WAT      O18961   0.875   0.048   3.671
 6240WAT     H118962   0.872   0.032   3.769
 6240WAT     H218963   0.787   0.021   3.631
 6241WAT      O18964   8.164   1.001   2.128
 6241WAT     H118965   8.090   0.945   2.164
 6241WAT     H218966   8.195   0.963   2.041
 6242WAT      O18967   5.051   8.042   9.822
 6242WAT     H118968   5.133   8.095   9.840
 6242WAT     H218969   5.025   7.991   9.904
 6243WAT      O18970   6.226   7.097   3.856
 6243WAT     H118971   6.253   7.193   3.851
 6243WAT     H218972   6.213   7.070   3.952
 6244WAT      O18973   1.260   1.253   8.880
 6244WAT     H118974   1.347   1.249   8.832
 6244WAT     H218975   1.243   1.165   8.926
 6245WAT      O18976   5.696   1.542   1.379
 6245WAT     H118977   5.674   1.445   1.383
 6245WAT     H218978   5.612   1.595   1.365
 6246WAT      O18979   2.345   7.063   4.697
 6246WAT     H118980   2.422   7.003   4.677
 6246WAT     H218981   2.371   7.130   4.766
 6247WAT      O18982   3.077   2.545   8.256
 6247WAT     H118983   2.986   2.501   8.257
 6247WAT     H218984   3.145   2.480   8.290
 6248WAT      O18985   2.593   8.789   5.144
 6248WAT     H118986   2.666   8.734   5.183
 6248WAT     H218987   2.570   8.754   5.053
 6249WAT      O18988   8.466   2.911   1.471
 6249WAT     H118989   8.528   2.970   1.418
 6249WAT     H218990   8.372   2.924   1.440
 6250WAT      O18991   2.555   3.643   9.841
 6250WAT     H118992   2.505   3.606   9.919
 6250WAT     H218993   2.645   3.676   9.871
 6251WAT      O18994   3.776   3.944   1.836
 6251WAT     H118995   3.850   3.932   1.902
 6251WAT     H218996   3.814   3.973   1.748
 6252WAT      O18997   8.115   9.640   5.915
 6252WAT     H118998   8.053   9.655   5.838
 6252WAT     H218999   8.153   9.727   5.945
 6253WAT      O19000   3.803   2.673   4.564
 6253WAT     H119001   3.748   2.756   4.562
 6253WAT     H219002   3.892   2.692   4.521
 6254WAT      O19003   4.576   6.587   1.889
 6254WAT     H119004   4.538   6.556   1.976
 6254WAT     H219005   4.623   6.512   1.843
 6255WAT      O19006   7.016   5.193   1.061
 6255WAT     H119007   6.987   5.282   1.025
 6255WAT     H219008   7.115   5.184   1.050
 6256WAT      O19009   5.480   6.111   9.818
 6256WAT     H119010   5.438   6.096   9.728
 6256WAT     H219011   5.419   6.168   9.874
 6257WAT      O19012   6.057   3.809   5.741
 6257WAT     H119013   6.110   3.857   5.812
 6257WAT     H219014   5.969   3.780   5.779
 6258WAT      O19015   6.009   4.767   7.721
 6258WAT     H119016   5.923   4.763   7.771
 6258WAT     H219017   6.065   4.842   7.756
 6259WAT      O19018   7.858   3.744   1.685
 6259WAT     H119019   7.915   3.711   1.610
 6259WAT     H219020   7.875   3.688   1.767
 6260WAT      O19021   7.675   2.819   6.040
 6260WAT     H119022   7.646   2.915   6.044
 6260WAT     H219023   7.745   2.808   5.970
 6261WAT      O19024   0.684   4.718   5.239
 6261WAT     H119025   0.749   4.784   5.275
 6261WAT     H219026   0.597   4.764   5.217
 6262WAT      O19027   3.890   9.551   8.767
 6262WAT     H119028   3.933   9.474   8.720
 6262WAT     H219029   3.791   9.540   8.765
 6263WAT      O19030   3.523   5.378   8.747
 6263WAT     H119031   3.595   5.389   8.678
 6263WAT     H219032   3.434   5.398   8.706
 6264WAT      O19033   9.632   6.452   1.247
 6264WAT     H119034   9.533   6.441   1.255
 6264WAT     H219035   9.661   6.533   1.298
 6265WAT      O19036   6.600   4.688   5.821
 6265WAT     H119037   6.535   4.737   5.763
 6265WAT     H219038   6.555   4.607   5.860
 6266WAT      O19039   8.725   9.833   0.263
 6266WAT     H119040   8.743   9.828   0.165
 6266WAT     H219041   8.804   9.799   0.313
 6267WAT      O19042   5.474   1.904   5.965
 6267WAT     H119043   5.428   1.941   6.047
 6267WAT     H219044   5.572   1.897   5.982
 6268WAT      O19045   7.236   6.118   7.444
 6268WAT     H119046   7.163   6.100   7.378
 6268WAT     H219047   7.322   6.080   7.409
 6269WAT      O19048   7.981   7.499   2.029
 6269WAT     H119049   8.005   7.571   1.963
 6269WAT     H219050   8.055   7.432   2.033
 6270WAT      O19051   9.551   6.302   8.715
 6270WAT     H119052   9.646   6.272   8.706
 6270WAT     H219053   9.493   6.252   8.650
 6271WAT      O19054   3.108   4.719   4.649
 6271WAT     H119055   3.055   4.635   4.656
 6271WAT     H219056   3.168   4.715   4.569
 6272WAT      O19057   9.682   9.054   3.341
 6272WAT     H119058   9.617   9.129   3.329
 6272WAT     H219059   9.639   8.968   3.314
 6273WAT      O19060   2.078   0.589   9.671
 6273WAT     H119061   2.178   0.589   9.676
 6273WAT     H219062   2.041   0.574   9.763
 6274WAT      O19063   0.075   5.664   3.587
 6274WAT     H119064   0.035   5.728   3.652
 6274WAT     H219065   0.088   5.710   3.499
 6275WAT      O19066   6.051   3.261   4.198
 6275WAT     H119067   6.149   3.277   4.187
 6275WAT     H219068   6.026   3.274   4.294
 6276WAT      O19069   0.260   3.772   2.463
 6276WAT     H119070   0.247   3.761   2.562
 6276WAT     H219071   0.229   3.689   2.416
 6277WAT      O19072   0.825   2.419   1.763
 6277WAT     H119073   0.830   2.358   1.684
 6277WAT     H219074   0.886   2.386   1.834
 6278WAT      O19075   7.832   6.691   8.959
 6278WAT     H119076   7.832   6.689   8.859
 6278WAT     H219077   7.741   6.667   8.993
 6279WAT      O19078   4.835   0.837   3.702
 6279WAT     H119079   4.843   0.917   3.762
 6279WAT     H219080   4.739   0.808   3.698
 6280WAT      O19081   4.217   5.846   2.557
 6280WAT     H119082   4.282   5.799   2.497
 6280WAT     H219083   4.220   5.804   2.648
 6281WAT      O19084   6.766   1.349   4.552
 6281WAT     H119085   6.701   1.297   4.607
 6281WAT     H219086   6.853   1.299   4.548
 6282WAT      O19087   6.400   0.398   7.470
 6282WAT     H119088   6.327   0.429   7.532
 6282WAT     H219089   6.461   0.336   7.518
 6283WAT      O19090   3.033   9.321   5.263
 6283WAT     H119091   3.076   9.234   5.242
 6283WAT     H219092   3.098   9.380   5.310
 6284WAT      O19093   6.051   6.253   0.660
 6284WAT     H119094   6.063   6.287   0.566
 6284WAT     H219095   6.103   6.311   0.723
 6285WAT      O19096   6.458   6.925   6.866
 6285WAT     H119097   6.428   6.973   6.783
 6285WAT     H219098   6.546   6.963   6.895
 6286WAT      O19099   1.496   5.949   7.959
 6286WAT     H119100   1.515   5.919   7.865
 6286WAT     H219101   1.580   5.986   7.999
 6287WAT      O19102   8.012   7.529   5.056
 6287WAT     H119103   7.965   7.458   5.003
 6287WAT     H219104   8.095   7.557   5.008
 6288WAT      O19105   0.382   2.732   8.435
 6288WAT     H119106   0.370   2.642   8.394
 6288WAT     H219107   0.447   2.726   8.511
 6289WAT      O19108   8.271   4.154   1.350
 6289WAT     H119109   8.345   4.172   1.415
 6289WAT     H219110   8.224   4.069   1.374
 6290WAT      O19111   9.400   9.751   5.437
 6290WAT     H119112   9.498   9.770   5.428
 6290WAT     H219113   9.383   9.654   5.423
 6291WAT      O19114   4.442   4.777   2.564
 6291WAT     H119115   4.375   4.704   2.551
 6291WAT     H219116   4.454   4.827   2.479
 6292WAT      O19117   9.320   5.574   5.877
 6292WAT     H119118   9.347   5.510   5.950
 6292WAT     H219119   9.248   5.634   5.911
 6293WAT      O19120   1.889   1.751   4.460
 6293WAT     H119121   1.798   1.782   4.487
 6293WAT     H219122   1.939   1.719   4.541
 6294WAT      O19123   4.087   0.533   8.954
 6294WAT     H119124   4.182   0.509   8.936
 6294WAT     H219125   4.040   0.549   8.867
 6295WAT      O19126   7.087   7.454   8.721
 6295WAT     H119127   7.086   7.392   8.799
 6295WAT     H219128   6.996   7.455   8.679
 6296WAT      O19129   5.298   9.097   2.022
 6296WAT     H119130   5.372   9.031   2.033
 6296WAT     H219131   5.300   9.162   2.097
 6297WAT      O19132   5.164   9.581   0.295
 6297WAT     H119133   5.241   9.518   0.287
 6297WAT     H219134   5.078   9.531   0.284
 6298WAT      O19135   2.605   1.266   4.547
 6298WAT     H119136   2.609   1.296   4.642
 6298WAT     H219137   2.668   1.189   4.534
 6299WAT      O19138   7.409   9.115   5.493
 6299WAT     H119139   7.333   9.052   5.477
 6299WAT     H219140   7.403   9.152   5.586
 6300WAT      O19141   6.183   9.828   9.251
 6300WAT     H119142   6.097   9.805   9.206
 6300WAT     H219143   6.244   9.748   9.249
 6301WAT      O19144   1.150   1.950   1.598
 6301WAT     H119145   1.206   2.028   1.625
 6301WAT     H219146   1.208   1.878   1.562
 6302WAT      O19147   6.348   3.516   5.580
 6302WAT     H119148   6.292   3.598   5.587
 6302WAT     H219149   6.432   3.529   5.634
 6303WAT      O19150   8.801   9.491   8.062
 6303WAT     H119151   8.763   9.491   7.970
 6303WAT     H219152   8.824   9.397   8.089
 6304WAT      O19153   0.899   4.936   4.484
 6304WAT     H119154   0.964   4.989   4.431
 6304WAT     H219155   0.881   4.849   4.437
 6305WAT      O19156   9.272   0.744   3.199
 6305WAT     H119157   9.362   0.760   3.240
 6305WAT     H219158   9.201   0.772   3.263
 6306WAT      O19159   6.449   2.138   9.140
 6306WAT     H119160   6.358   2.117   9.175
 6306WAT     H219161   6.498   2.194   9.207
 6307WAT      O19162   0.261   8.515   4.468
 6307WAT     H119163   0.275   8.608   4.434
 6307WAT     H219164   0.221   8.459   4.395
 6308WAT      O19165   1.873   9.035   0.689
 6308WAT     H119166   1.860   9.065   0.784
 6308WAT     H219167   1.944   8.965   0.685
 6309WAT      O19168   3.619   3.856   6.417
 6309WAT     H119169   3.521   3.858   6.397
 6309WAT     H219170   3.639   3.916   6.494
 6310WAT      O19171   2.918   8.152   8.103
 6310WAT     H119172   2.846   8.177   8.168
 6310WAT     H219173   2.975   8.233   8.085
 6311WAT      O19174   6.038   7.202   0.145
 6311WAT     H119175   5.981   7.138   0.198
 6311WAT     H219176   5.988   7.287   0.131
 6312WAT      O19177   2.830   5.526   4.756
 6312WAT     H119178   2.740   5.489   4.778
 6312WAT     H219179   2.881   5.458   4.702
 6313WAT      O19180   4.640   7.510   0.854
 6313WAT     H119181   4.603   7.533   0.944
 6313WAT     H219182   4.580   7.443   0.809
 6314WAT      O19183   6.612   0.045   8.771
 6314WAT     H119184   6.635   0.005   8.859
 6314WAT     H219185   6.559   0.128   8.784
 6315WAT      O19186   2.959   6.922   7.622
 6315WAT     H119187   2.972   6.823   7.625
 6315WAT     H219188   3.018   6.961   7.551
 6316WAT      O19189   7.795   7.848   6.907
 6316WAT     H119190   7.895   7.841   6.908
 6316WAT     H219191   7.767   7.915   6.838
 6317WAT      O19192   6.666   9.399   3.742
 6317WAT     H119193   6.691   9.485   3.699
 6317WAT     H219194   6.722   9.385   3.824
 6318WAT      O19195   7.234   0.399   8.157
 6318WAT     H119196   7.154   0.428   8.104
 6318WAT     H219197   7.317   0.428   8.110
 6319WAT      O19198   0.756   1.980   1.929
 6319WAT     H119199   0.840   1.973   1.982
 6319WAT     H219200   0.775   2.022   1.841
 6320WAT      O19201   8.571   9.680   0.742
 6320WAT     H119202   8.625   9.740   0.802
 6320WAT     H219203   8.585   9.706   0.647
 6321WAT      O19204   5.283   3.039   8.326
 6321WAT     H119205   5.248   2.974   8.258
 6321WAT     H219206   5.238   3.023   8.413
 6322WAT      O19207   7.871   2.602   1.605
 6322WAT     H119208   7.825   2.652   1.531
 6322WAT     H219209   7.956   2.649   1.629
 6323WAT      O19210   1.078   0.058   9.338
 6323WAT     H119211   1.082   0.045   9.437
 6323WAT     H219212   1.160   0.106   9.307
 6324WAT      O19213   0.668   7.249   2.942
 6324WAT     H119214   0.611   7.250   3.024
 6324WAT     H219215   0.685   7.154   2.915
 6325WAT      O19216   9.525   3.293   9.546
 6325WAT     H119217   9.499   3.378   9.501
 6325WAT     H219218   9.451   3.227   9.539
 6326WAT      O19219   6.275   8.042   5.651
 6326WAT     H119220   6.258   8.005   5.559
 6326WAT     H219221   6.368   8.022   5.679
 6327WAT      O19222   8.240   8.958   2.306
 6327WAT     H119223   8.251   8.897   2.384
 6327WAT     H219224   8.180   9.034   2.331
 6328WAT      O19225   6.138   1.445   6.831
 6328WAT     H119226   6.226   1.490   6.818
 6328WAT     H219227   6.127   1.419   6.927
 6329WAT      O19228   3.787   9.494   4.285
 6329WAT     H119229   3.858   9.555   4.251
 6329WAT     H219230   3.814   9.459   4.375
 6330WAT      O19231   8.290   6.221   5.691
 6330WAT     H119232   8.276   6.190   5.597
 6330WAT     H219233   8.226   6.173   5.751
 6331WAT      O19234   2.473   8.931   1.969
 6331WAT     H119235   2.568   8.923   1.999
 6331WAT     H219236   2.418   8.858   2.010
 6332WAT      O19237   5.485   2.642   6.931
 6332WAT     H119238   5.447   2.560   6.887
 6332WAT     H219239   5.423   2.673   7.002
 6333WAT      O19240   5.799   7.440   6.490
 6333WAT     H119241   5.806   7.481   6.399
 6333WAT     H219242   5.828   7.507   6.559
 6334WAT      O19243   8.570   3.247   1.523
 6334WAT     H119244   8.600   3.327   1.471
 6334WAT     H219245   8.584   3.165   1.468
 6335WAT      O19246   9.128   4.010   3.503
 6335WAT     H119247   9.112   4.108   3.514
 6335WAT     H219248   9.139   3.968   3.593
 6336WAT      O19249   5.547   1.231   9.624
 6336WAT     H119250   5.566   1.202   9.530
 6336WAT     H219251   5.459   1.193   9.653
 6337WAT      O19252   3.810   3.816   2.546
 6337WAT     H119253   3.812   3.910   2.513
 6337WAT     H219254   3.718   3.778   2.536
 6338WAT      O19255   3.037   6.026   3.115
 6338WAT     H119256   2.975   5.950   3.135
 6338WAT     H219257   3.105   6.034   3.188
 6339WAT      O19258   4.118   3.794   6.981
 6339WAT     H119259   4.099   3.771   6.885
 6339WAT     H219260   4.064   3.873   7.008
 6340WAT      O19261   0.303   4.700   7.451
 6340WAT     H119262   0.400   4.678   7.461
 6340WAT     H219263   0.267   4.734   7.539
 6341WAT      O19264   8.573   7.647   2.578
 6341WAT     H119265   8.642   7.686   2.519
 6341WAT     H219266   8.616   7.590   2.648
 6342WAT      O19267   0.126   9.467   5.568
 6342WAT     H119268   0.113   9.472   5.469
 6342WAT     H219269   0.099   9.554   5.610
 6343WAT      O19270   2.883   6.069   1.999
 6343WAT     H119271   2.840   6.129   2.066
 6343WAT     H219272   2.945   6.005   2.046
 6344WAT      O19273   3.017   1.062   2.690
 6344WAT     H119274   3.076   1.132   2.650
 6344WAT     H219275   3.070   0.979   2.707
 6345WAT      O19276   0.738   1.047   4.136
 6345WAT     H119277   0.676   0.977   4.100
 6345WAT     H219278   0.825   1.005   4.160
 6346WAT      O19279   4.722   5.369   2.652
 6346WAT     H119280   4.699   5.283   2.606
 6346WAT     H219281   4.637   5.415   2.678
 6347WAT      O19282   9.626   1.524   4.412
 6347WAT     H119283   9.587   1.454   4.471
 6347WAT     H219284   9.717   1.549   4.444
 6348WAT      O19285   3.832   3.666   6.394
 6348WAT     H119286   3.760   3.736   6.390
 6348WAT     H219287   3.919   3.710   6.416
 6349WAT      O19288   3.872   4.130   8.182
 6349WAT     H119289   3.969   4.143   8.159
 6349WAT     H219290   3.828   4.218   8.193
 6350WAT      O19291   0.988   5.046   4.068
 6350WAT     H119292   0.906   5.076   4.116
 6350WAT     H219293   0.989   5.083   3.975
 6351WAT      O19294   6.738   7.794   7.349
 6351WAT     H119295   6.833   7.815   7.325
 6351WAT     H219296   6.707   7.859   7.419
 6352WAT      O19297   5.162   1.359   6.843
 6352WAT     H119298   5.123   1.370   6.752
 6352WAT     H219299   5.144   1.442   6.897
 6353WAT      O19300   2.443   2.927   5.342
 6353WAT     H119301   2.468   2.912   5.247
 6353WAT     H219302   2.345   2.908   5.355
 6354WAT      O19303   7.665   3.279   3.720
 6354WAT     H119304   7.613   3.211   3.668
 6354WAT     H219305   7.733   3.322   3.661
 6355WAT      O19306   7.684   5.979   7.711
 6355WAT     H119307   7.719   6.010   7.799
 6355WAT     H219308   7.595   6.022   7.693
 6356WAT      O19309   5.427   7.297   2.134
 6356WAT     H119310   5.523   7.320   2.120
 6356WAT     H219311   5.373   7.381   2.138
 6357WAT      O19312   1.547   0.358   4.414
 6357WAT     H119313   1.615   0.431   4.420
 6357WAT     H219314   1.590   0.270   4.436
 6358WAT      O19315   0.448   2.933   3.225
 6358WAT     H119316   0.514   2.884   3.282
 6358WAT     H219317   0.448   3.030   3.250
 6359WAT      O19318   2.600   9.515   8.523
 6359WAT     H119319   2.565   9.424   8.499
 6359WAT     H219320   2.536   9.559   8.585
 6360WAT      O19321   4.292   0.218   5.824
 6360WAT     H119322   4.266   0.286   5.756
 6360WAT     H219323   4.214   0.158   5.843
 6361WAT      O19324   3.479   5.687   7.467
 6361WAT     H119325   3.465   5.608   7.526
 6361WAT     H219326   3.577   5.710   7.463
 6362WAT      O19327   5.583   3.189   8.876
 6362WAT     H119328   5.579   3.135   8.960
 6362WAT     H219329   5.572   3.286   8.898
 6363WAT      O19330   2.821   3.837   7.708
 6363WAT     H119331   2.841   3.921   7.757
 6363WAT     H219332   2.759   3.780   7.762
 6364WAT      O19333   1.985   1.188   8.007
 6364WAT     H119334   2.018   1.280   7.987
 6364WAT     H219335   2.053   1.138   8.061
 6365WAT      O19336   5.372   0.488   6.851
 6365WAT     H119337   5.454   0.435   6.829
 6365WAT     H219338   5.320   0.505   6.768
 6366WAT      O19339   6.836   3.895   6.966
 6366WAT     H119340   6.894   3.968   7.002
 6366WAT     H219341   6.836   3.898   6.866
 6367WAT      O19342   1.765   6.233   4.651
 6367WAT     H119343   1.670   6.207   4.637
 6367WAT     H219344   1.793   6.211   4.744
 6368WAT      O19345   6.770   5.886   5.673
 6368WAT     H119346   6.698   5.886   5.603
 6368WAT     H219347   6.854   5.924   5.635
 6369WAT      O19348   0.685   6.715   2.712
 6369WAT     H119349   0.780   6.732   2.686
 6369WAT     H219350   0.660   6.621   2.690
 6370WAT      O19351   9.282   6.023   9.540
 6370WAT     H119352   9.314   6.004   9.447
 6370WAT     H219353   9.287   6.122   9.557
 6371WAT      O19354   2.961   5.478   1.717
 6371WAT     H119355   2.938   5.509   1.625
 6371WAT     H219356   2.935   5.547   1.784
 6372WAT      O19357   9.803   3.095   3.283
 6372WAT     H119358   9.817   3.098   3.382
 6372WAT     H219359   9.881   3.050   3.240
 6373WAT      O19360   0.984   3.625   7.002
 6373WAT     H119361   0.922   3.553   6.969
 6373WAT     H219362   0.939   3.678   7.073
 6374WAT      O19363   6.570   3.406   0.364
 6374WAT     H119364   6.618   3.474   0.310
 6374WAT     H219365   6.581   3.315   0.322
 6375WAT      O19366   9.709   8.154   4.439
 6375WAT     H119367   9.686   8.125   4.532
 6375WAT     H219368   9.632   8.134   4.378
 6376WAT      O19369   3.888   4.316   5.849
 6376WAT     H119370   3.868   4.234   5.796
 6376WAT     H219371   3.847   4.396   5.804
 6377WAT      O19372   3.792   4.902   4.919
 6377WAT     H119373   3.742   4.989   4.920
 6377WAT     H219374   3.848   4.896   4.836
 6378WAT      O19375   5.237   2.367   1.533
 6378WAT     H119376   5.257   2.416   1.618
 6378WAT     H219377   5.206   2.432   1.464
 6379WAT      O19378   2.209   6.170   0.433
 6379WAT     H119379   2.218   6.173   0.532
 6379WAT     H219380   2.228   6.260   0.394
 6380WAT      O19381   0.065   0.683   6.157
 6380WAT     H119382   0.038   0.601   6.208
 6380WAT     H219383   0.041   0.672   6.060
 6381WAT      O19384   8.021   5.212   3.879
 6381WAT     H119385   7.969   5.241   3.959
 6381WAT     H219386   8.063   5.292   3.836
 6382WAT      O19387   2.475   4.964   2.958
 6382WAT     H119388   2.383   5.000   2.942
 6382WAT     H219389   2.470   4.867   2.980
 6383WAT      O19390   6.551   0.853   8.989
 6383WAT     H119391   6.645   0.833   8.961
 6383WAT     H219392   6.488   0.823   8.917
 6384WAT      O19393   5.404   0.658   8.589
 6384WAT     H119394   5.308   0.662   8.562
 6384WAT     H219395   5.452   0.593   8.530
 6385WAT      O19396   7.105   8.318   4.707
 6385WAT     H119397   7.132   8.322   4.804
 6385WAT     H219398   7.184   8.342   4.650
 6386WAT      O19399   7.355   9.080   6.100
 6386WAT     H119400   7.284   9.013   6.120
 6386WAT     H219401   7.367   9.088   6.001
 6387WAT      O19402   2.340   0.241   6.289
 6387WAT     H119403   2.341   0.188   6.374
 6387WAT     H219404   2.402   0.320   6.298
 6388WAT      O19405   2.247   6.038   2.815
 6388WAT     H119406   2.177   5.971   2.840
 6388WAT     H219407   2.225   6.127   2.856
 6389WAT      O19408   1.670   4.502   6.093
 6389WAT     H119409   1.698   4.437   6.023
 6389WAT     H219410   1.749   4.524   6.151
 6390WAT      O19411   9.740   2.997   1.633
 6390WAT     H119412   9.712   2.902   1.646
 6390WAT     H219413   9.659   3.054   1.618
 6391WAT      O19414   4.115   3.247   7.519
 6391WAT     H119415   4.085   3.331   7.564
 6391WAT     H219416   4.183   3.201   7.575
 6392WAT      O19417   4.081   6.034   7.834
 6392WAT     H119418   4.034   6.116   7.866
 6392WAT     H219419   4.016   5.959   7.823
 6393WAT      O19420   9.811   8.506   0.793
 6393WAT     H119421   9.865   8.436   0.746
 6393WAT     H219422   9.829   8.502   0.891
 6394WAT      O19423   9.169   0.938   9.078
 6394WAT     H119424   9.106   0.960   9.152
 6394WAT     H219425   9.263   0.944   9.111
 6395WAT      O19426   5.121   8.259   5.976
 6395WAT     H119427   5.114   8.194   5.900
 6395WAT     H219428   5.175   8.219   6.049
 6396WAT      O19429   7.205   1.776   0.875
 6396WAT     H119430   7.146   1.748   0.799
 6396WAT     H219431   7.295   1.801   0.839
 6397WAT      O19432   7.051   3.859   8.491
 6397WAT     H119433   7.021   3.779   8.543
 6397WAT     H219434   6.979   3.885   8.427
 6398WAT      O19435   5.465   7.228   1.128
 6398WAT     H119436   5.445   7.253   1.223
 6398WAT     H219437   5.491   7.132   1.123
 6399WAT      O19438   1.954   7.222   4.905
 6399WAT     H119439   1.883   7.187   4.844
 6399WAT     H219440   2.007   7.146   4.942
 6400WAT      O19441   9.383   9.299   8.799
 6400WAT     H119442   9.334   9.323   8.715
 6400WAT     H219443   9.445   9.222   8.781
 6401WAT      O19444   5.842   4.937   0.023
 6401WAT     H119445   5.939   4.928   0.044
 6401WAT     H219446   5.792   4.964   0.105
 6402WAT      O19447   3.889   2.683   1.802
 6402WAT     H119448   3.841   2.598   1.826
 6402WAT     H219449   3.828   2.761   1.814
 6403WAT      O19450   8.035   8.784   6.072
 6403WAT     H119451   8.120   8.834   6.086
 6403WAT     H219452   7.988   8.820   5.992
 6404WAT      O19453   9.246   7.184   9.536
 6404WAT     H119454   9.299   7.141   9.462
 6404WAT     H219455   9.220   7.276   9.509
 6405WAT      O19456   3.560   8.916   6.212
 6405WAT     H119457   3.507   8.978   6.270
 6405WAT     H219458   3.519   8.911   6.121
 6406WAT      O19459   6.535   6.087   7.042
 6406WAT     H119460   6.483   6.156   7.092
 6406WAT     H219461   6.521   6.099   6.944
 6407WAT      O19462   7.555   4.736   8.024
 6407WAT     H119463   7.591   4.769   7.937
 6407WAT     H219464   7.596   4.647   8.045
 6408WAT      O19465   5.759   3.138   5.535
 6408WAT     H119466   5.847   3.181   5.555
 6408WAT     H219467   5.762   3.095   5.445
 6409WAT      O19468   0.270   5.144   5.727
 6409WAT     H119469   0.278   5.185   5.636
 6409WAT     H219470   0.226   5.209   5.789
 6410WAT      O19471   3.896   1.558   2.436
 6410WAT     H119472   3.990   1.533   2.461
 6410WAT     H219473   3.855   1.610   2.511
 6411WAT      O19474   2.407   1.133   1.204
 6411WAT     H119475   2.505   1.115   1.200
 6411WAT     H219476   2.374   1.122   1.298
 6412WAT      O19477   1.878   3.916   5.080
 6412WAT     H119478   1.845   3.944   5.170
 6412WAT     H219479   1.978   3.922   5.078
 6413WAT      O19480   6.234   9.785   2.185
 6413WAT     H119481   6.304   9.785   2.256
 6413WAT     H219482   6.260   9.722   2.112
 6414WAT      O19483   6.401   9.407   6.718
 6414WAT     H119484   6.391   9.429   6.815
 6414WAT     H219485   6.311   9.391   6.678
 6415WAT      O19486   5.110   0.330   0.660
 6415WAT     H119487   5.194   0.283   0.687
 6415WAT     H219488   5.130   0.396   0.588
 6416WAT      O19489   5.269   1.649   4.613
 6416WAT     H119490   5.328   1.695   4.679
 6416WAT     H219491   5.322   1.622   4.533
 6417WAT      O19492   6.818   5.526   5.784
 6417WAT     H119493   6.846   5.478   5.866
 6417WAT     H219494   6.724   5.560   5.795
 6418WAT      O19495   7.774   0.970   9.230
 6418WAT     H119496   7.748   0.873   9.235
 6418WAT     H219497   7.843   0.990   9.300
 6419WAT      O19498   6.662   1.503   6.815
 6419WAT     H119499   6.751   1.549   6.806
 6419WAT     H219500   6.670   1.410   6.778
 6420WAT      O19501   0.250   2.674   0.409
 6420WAT     H119502   0.197   2.612   0.466
 6420WAT     H219503   0.335   2.700   0.455
 6421WAT      O19504   0.923   6.269   5.307
 6421WAT     H119505   0.961   6.292   5.217
 6421WAT     H219506   0.863   6.190   5.298
 6422WAT      O19507   0.364   4.454   0.438
 6422WAT     H119508   0.458   4.430   0.414
 6422WAT     H219509   0.353   4.450   0.537
 6423WAT      O19510   8.384   0.053   6.392
 6423WAT     H119511   8.461   0.113   6.411
 6423WAT     H219512   8.403   0.001   6.309
 6424WAT      O19513   6.181   5.645   1.125
 6424WAT     H119514   6.202   5.563   1.177
 6424WAT     H219515   6.199   5.726   1.181
 6425WAT      O19516   3.188   2.256   1.984
 6425WAT     H119517   3.180   2.293   1.891
 6425WAT     H219518   3.139   2.168   1.989
 6426WAT      O19519   0.732   5.779   6.116
 6426WAT     H119520   0.716   5.778   6.017
 6426WAT     H219521   0.656   5.826   6.161
 6427WAT      O19522   6.959   8.113   4.502
 6427WAT     H119523   7.002   8.150   4.585
 6427WAT     H219524   6.888   8.176   4.470
 6428WAT      O19525   5.657   3.546   6.041
 6428WAT     H119526   5.624   3.622   5.985
 6428WAT     H219527   5.698   3.582   6.125
 6429WAT      O19528   5.794   2.474   3.309
 6429WAT     H119529   5.876   2.514   3.351
 6429WAT     H219530   5.743   2.422   3.378
 6430WAT      O19531   0.575   7.573   7.362
 6430WAT     H119532   0.484   7.605   7.338
 6430WAT     H219533   0.624   7.644   7.413
 6431WAT      O19534   0.150   0.574   2.017
 6431WAT     H119535   0.168   0.553   2.113
 6431WAT     H219536   0.055   0.605   2.007
 6432WAT      O19537   3.846   2.286   4.467
 6432WAT     H119538   3.797   2.199   4.468
 6432WAT     H219539   3.834   2.331   4.556
 6433WAT      O19540   5.029   6.418   4.393
 6433WAT     H119541   5.123   6.388   4.409
 6433WAT     H219542   5.000   6.479   4.467
 6434WAT      O19543   8.107   4.243   9.804
 6434WAT     H119544   8.159   4.306   9.746
 6434WAT     H219545   8.010   4.248   9.780
 6435WAT      O19546   0.812   8.490   2.550
 6435WAT     H119547   0.833   8.563   2.485
 6435WAT     H219548   0.754   8.526   2.623
 6436WAT      O19549   9.149   2.926   3.905
 6436WAT     H119550   9.130   2.985   3.827
 6436WAT     H219551   9.108   2.836   3.891
 6437WAT      O19552   3.847   8.675   6.883
 6437WAT     H119553   3.803   8.687   6.794
 6437WAT     H219554   3.831   8.582   6.917
 6438WAT      O19555   1.394   3.989   7.046
 6438WAT     H119556   1.409   3.901   6.999
 6438WAT     H219557   1.307   3.986   7.094
 6439WAT      O19558   7.480   4.933   7.421
 6439WAT     H119559   7.424   4.867   7.472
 6439WAT     H219560   7.429   5.019   7.411
 6440WAT      O19561   7.165   3.230   2.779
 6440WAT     H119562   7.104   3.173   2.726
 6440WAT     H219563   7.140   3.225   2.876
 6441WAT      O19564   1.322   9.623   7.626
 6441WAT     H119565   1.392   9.647   7.559
 6441WAT     H219566   1.253   9.565   7.584
 6442WAT      O19567   0.009   7.972   1.627
 6442WAT     H119568  -0.046   7.963   1.544
 6442WAT     H219569  -0.044   7.941   1.706
 6443WAT      O19570   3.105   0.335   1.101
 6443WAT     H119571   3.172   0.266   1.074
 6443WAT     H219572   3.113   0.351   1.200
 6444WAT      O19573   6.377   3.129   8.070
 6444WAT     H119574   6.294   3.076   8.052
 6444WAT     H219575   6.385   3.146   8.168
 6445WAT      O19576   2.886   6.768   9.661
 6445WAT     H119577   2.966   6.707   9.661
 6445WAT     H219578   2.828   6.747   9.739
 6446WAT      O19579   6.029   2.008   8.079
 6446WAT     H119580   6.098   2.018   8.151
 6446WAT     H219581   6.061   2.052   7.996
 6447WAT      O19582   6.724   8.918   8.735
 6447WAT     H119583   6.739   8.898   8.638
 6447WAT     H219584   6.763   9.007   8.757
 6448WAT      O19585   7.168   9.807   8.523
 6448WAT     H119586   7.141   9.846   8.611
 6448WAT     H219587   7.162   9.878   8.452
 6449WAT      O19588   0.415   3.796   6.684
 6449WAT     H119589   0.360   3.716   6.708
 6449WAT     H219590   0.510   3.769   6.672
 6450WAT      O19591   4.327   3.754   0.679
 6450WAT     H119592   4.272   3.837   0.668
 6450WAT     H219593   4.320   3.698   0.596
 6451WAT      O19594   5.858   9.120   2.285
 6451WAT     H119595   5.896   9.158   2.369
 6451WAT     H219596   5.908   9.036   2.261
 6452WAT      O19597   6.712   1.187   1.113
 6452WAT     H119598   6.738   1.201   1.209
 6452WAT     H219599   6.781   1.229   1.054
 6453WAT      O19600   9.876   9.263   1.455
 6453WAT     H119601   9.863   9.340   1.518
 6453WAT     H219602   9.864   9.295   1.361
 6454WAT      O19603   9.161   6.200   8.913
 6454WAT     H119604   9.198   6.186   9.005
 6454WAT     H219605   9.176   6.117   8.859
 6455WAT      O19606   2.418   3.085   4.534
 6455WAT     H119607   2.477   3.041   4.467
 6455WAT     H219608   2.462   3.167   4.569
 6456WAT      O19609   9.743   2.505   3.085
 6456WAT     H119610   9.695   2.430   3.129
 6456WAT     H219611   9.749   2.583   3.148
 6457WAT      O19612   2.793   8.611   2.483
 6457WAT     H119613   2.822   8.706   2.495
 6457WAT     H219614   2.853   8.551   2.536
 6458WAT      O19615   6.560   3.046   7.592
 6458WAT     H119616   6.530   3.104   7.516
 6458WAT     H219617   6.597   2.961   7.555
 6459WAT      O19618   4.441   7.343   0.781
 6459WAT     H119619   4.434   7.308   0.687
 6459WAT     H219620   4.367   7.408   0.798
 6460WAT      O19621   5.975   7.184   1.952
 6460WAT     H119622   6.034   7.241   1.895
 6460WAT     H219623   6.018   7.172   2.041
 6461WAT      O19624   1.090   3.102   1.722
 6461WAT     H119625   1.087   3.108   1.822
 6461WAT     H219626   1.140   3.181   1.686
 6462WAT      O19627   0.276   5.296   2.350
 6462WAT     H119628   0.246   5.240   2.273
 6462WAT     H219629   0.197   5.340   2.392
 6463WAT      O19630   8.198   8.209   3.520
 6463WAT     H119631   8.254   8.256   3.588
 6463WAT     H219632   8.152   8.131   3.563
 6464WAT      O19633   6.516   0.873   6.830
 6464WAT     H119634   6.463   0.956   6.849
 6464WAT     H219635   6.524   0.819   6.914
 6465WAT      O19636   9.645   6.987   3.511
 6465WAT     H119637   9.586   7.068   3.517
 6465WAT     H219638   9.670   6.957   3.603
 6466WAT      O19639   0.799   2.116   8.051
 6466WAT     H119640   0.851   2.161   7.978
 6466WAT     H219641   0.773   2.183   8.120
 6467WAT      O19642   4.944   4.175   7.029
 6467WAT     H119643   4.997   4.090   7.035
 6467WAT     H219644   4.933   4.201   6.933
 6468WAT      O19645   2.422   9.597   0.586
 6468WAT     H119646   2.356   9.652   0.638
 6468WAT     H219647   2.509   9.647   0.580
 6469WAT      O19648   1.301   3.209   5.734
 6469WAT     H119649   1.286   3.307   5.737
 6469WAT     H219650   1.348   3.180   5.818
 6470WAT      O19651   5.091   6.711   7.993
 6470WAT     H119652   5.155   6.646   7.954
 6470WAT     H219653   4.998   6.673   7.989
 6471WAT      O19654   5.047   4.074   2.524
 6471WAT     H119655   5.028   4.158   2.576
 6471WAT     H219656   5.050   3.996   2.587
 6472WAT      O19657   3.906   9.522   6.150
 6472WAT     H119658   3.927   9.431   6.187
 6472WAT     H219659   3.853   9.513   6.066
 6473WAT      O19660   8.547   8.200   8.933
 6473WAT     H119661   8.586   8.112   8.906
 6473WAT     H219662   8.598   8.274   8.890
 6474WAT      O19663   1.694   7.686   1.368
 6474WAT     H119664   1.742   7.635   1.439
 6474WAT     H219665   1.760   7.739   1.315
 6475WAT      O19666   4.328   3.982   4.260
 6475WAT     H119667   4.401   3.999   4.193
 6475WAT     H219668   4.369   3.950   4.346
 6476WAT      O19669   8.381   6.856   7.132
 6476WAT     H119670   8.296   6.878   7.085
 6476WAT     H219671   8.424   6.778   7.088
 6477WAT      O19672   4.644   5.084   2.657
 6477WAT     H119673   4.608   5.086   2.564
 6477WAT     H219674   4.659   4.989   2.685
 6478WAT      O19675   8.205   9.227   9.556
 6478WAT     H119676   8.110   9.261   9.556
 6478WAT     H219677   8.216   9.160   9.629
 6479WAT      O19678   7.196   8.838   4.167
 6479WAT     H119679   7.232   8.746   4.183
 6479WAT     H219680   7.251   8.904   4.218
 6480WAT      O19681   5.630   6.553   1.304
 6480WAT     H119682   5.672   6.493   1.372
 6480WAT     H219683   5.541   6.584   1.338
 6481WAT      O19684   1.915   1.637   0.283
 6481WAT     H119685   1.831   1.584   0.277
 6481WAT     H219686   1.987   1.591   0.231
 6482WAT      O19687   6.792   0.274   5.833
 6482WAT     H119688   6.871   0.312   5.784
 6482WAT     H219689   6.794   0.305   5.928
 6483WAT      O19690   7.348   8.292   0.939
 6483WAT     H119691   7.417   8.302   1.011
 6483WAT     H219692   7.310   8.381   0.917
 6484WAT      O19693   2.717   5.756   0.988
 6484WAT     H119694   2.687   5.799   0.902
 6484WAT     H219695   2.762   5.670   0.968
 6485WAT      O19696   7.875   3.731   8.314
 6485WAT     H119697   7.887   3.679   8.230
 6485WAT     H219698   7.792   3.787   8.308
 6486WAT      O19699   7.448   9.021   8.837
 6486WAT     H119700   7.436   9.030   8.738
 6486WAT     H219701   7.397   8.942   8.870
 6487WAT      O19702   2.008   2.904   7.124
 6487WAT     H119703   1.990   2.851   7.041
 6487WAT     H219704   2.074   2.856   7.181
 6488WAT      O19705   4.139   1.386   7.094
 6488WAT     H119706   4.101   1.302   7.134
 6488WAT     H219707   4.237   1.390   7.113
 6489WAT      O19708   1.369   1.030   0.845
 6489WAT     H119709   1.379   0.996   0.938
 6489WAT     H219710   1.298   0.977   0.798
 6490WAT      O19711   6.398   4.526   2.498
 6490WAT     H119712   6.380   4.599   2.564
 6490WAT     H219713   6.337   4.536   2.420
 6491WAT      O19714   3.679   6.421   0.349
 6491WAT     H119715   3.626   6.392   0.428
 6491WAT     H219716   3.655   6.516   0.326
 6492WAT      O19717   2.690   4.939   2.390
 6492WAT     H119718   2.782   4.949   2.352
 6492WAT     H219719   2.635   4.882   2.328
 6493WAT      O19720   0.536   6.739   8.886
 6493WAT     H119721   0.529   6.646   8.921
 6493WAT     H219722   0.614   6.785   8.928
 6494WAT      O19723   2.521   1.458   2.331
 6494WAT     H119724   2.451   1.405   2.379
 6494WAT     H219725   2.545   1.411   2.246
 6495WAT      O19726   4.468   9.515   7.764
 6495WAT     H119727   4.401   9.442   7.755
 6495WAT     H219728   4.430   9.601   7.729
 6496WAT      O19729   8.854   1.721   3.277
 6496WAT     H119730   8.893   1.670   3.200
 6496WAT     H219731   8.841   1.658   3.354
 6497WAT      O19732   4.330   1.525   1.085
 6497WAT     H119733   4.267   1.532   1.008
 6497WAT     H219734   4.422   1.549   1.056
 6498WAT      O19735   6.555   7.761   8.374
 6498WAT     H119736   6.544   7.756   8.275
 6498WAT     H219737   6.526   7.675   8.415
 6499WAT      O19738   9.141   1.203   0.282
 6499WAT     H119739   9.131   1.150   0.198
 6499WAT     H219740   9.110   1.297   0.266
 6500WAT      O19741   2.191   3.459   8.132
 6500WAT     H119742   2.136   3.458   8.049
 6500WAT     H219743   2.246   3.375   8.136
 6501WAT      O19744   3.263   2.833   4.431
 6501WAT     H119745   3.326   2.900   4.469
 6501WAT     H219746   3.304   2.792   4.349
 6502WAT      O19747   6.426   4.644   9.703
 6502WAT     H119748   6.524   4.648   9.682
 6502WAT     H219749   6.406   4.709   9.776
 6503WAT      O19750   7.037   1.945   7.376
 6503WAT     H119751   7.042   1.857   7.424
 6503WAT     H219752   7.115   1.954   7.315
 6504WAT      O19753   7.667   2.649   2.712
 6504WAT     H119754   7.575   2.656   2.672
 6504WAT     H219755   7.708   2.740   2.717
 6505WAT      O19756   5.964   6.022   0.034
 6505WAT     H119757   5.983   5.940   0.089
 6505WAT     H219758   5.883   6.005  -0.022
 6506WAT      O19759   5.010   9.152   7.484
 6506WAT     H119760   5.099   9.189   7.458
 6506WAT     H219761   5.009   9.133   7.582
 6507WAT      O19762   1.832   3.445   4.826
 6507WAT     H119763   1.906   3.400   4.874
 6507WAT     H219764   1.799   3.523   4.879
 6508WAT      O19765   5.140   4.752   5.339
 6508WAT     H119766   5.066   4.687   5.320
 6508WAT     H219767   5.102   4.844   5.343
 6509WAT      O19768   2.483   9.242   8.392
 6509WAT     H119769   2.503   9.148   8.418
 6509WAT     H219770   2.384   9.257   8.394
 6510WAT      O19771   3.398   6.270   5.943
 6510WAT     H119772   3.307   6.233   5.929
 6510WAT     H219773   3.391   6.360   5.988
 6511WAT      O19774   8.295   1.047   7.110
 6511WAT     H119775   8.310   1.032   7.208
 6511WAT     H219776   8.197   1.040   7.091
 6512WAT      O19777   0.730   3.569   4.840
 6512WAT     H119778   0.810   3.508   4.843
 6512WAT     H219779   0.682   3.555   4.754
 6513WAT      O19780   2.785   9.161   2.936
 6513WAT     H119781   2.729   9.078   2.936
 6513WAT     H219782   2.728   9.240   2.918
 6514WAT      O19783   2.916   7.134   2.155
 6514WAT     H119784   2.956   7.200   2.218
 6514WAT     H219785   2.816   7.137   2.163
 6515WAT      O19786   3.029   1.921   2.319
 6515WAT     H119787   3.041   1.992   2.389
 6515WAT     H219788   2.934   1.890   2.319
 6516WAT      O19789   6.501   8.098   6.834
 6516WAT     H119790   6.546   8.078   6.747
 6516WAT     H219791   6.410   8.059   6.835
 6517WAT      O19792   6.792   7.593   0.838
 6517WAT     H119793   6.753   7.649   0.911
 6517WAT     H219794   6.723   7.527   0.807
 6518WAT      O19795   7.191   7.704   5.555
 6518WAT     H119796   7.117   7.673   5.496
 6518WAT     H219797   7.241   7.778   5.511
 6519WAT      O19798   0.831   4.348   2.462
 6519WAT     H119799   0.862   4.406   2.387
 6519WAT     H219800   0.844   4.252   2.438
 6520WAT      O19801   2.473   0.288   3.309
 6520WAT     H119802   2.459   0.247   3.219
 6520WAT     H219803   2.421   0.238   3.377
 6521WAT      O19804   5.049   7.178   3.272
 6521WAT     H119805   5.124   7.223   3.225
 6521WAT     H219806   5.041   7.214   3.365
 6522WAT      O19807   5.895   9.478   7.546
 6522WAT     H119808   5.903   9.575   7.523
 6522WAT     H219809   5.807   9.462   7.591
 6523WAT      O19810   9.626   3.472   8.947
 6523WAT     H119811   9.595   3.543   9.010
 6523WAT     H219812   9.723   3.455   8.962
 6524WAT      O19813   3.199   0.271   8.715
 6524WAT     H119814   3.134   0.286   8.789
 6524WAT     H219815   3.288   0.244   8.753
 6525WAT      O19816   2.332   5.709   0.440
 6525WAT     H119817   2.280   5.790   0.413
 6525WAT     H219818   2.303   5.679   0.531
 6526WAT      O19819   6.376   3.722   7.672
 6526WAT     H119820   6.372   3.731   7.771
 6526WAT     H219821   6.369   3.813   7.630
 6527WAT      O19822   7.508   5.460   4.690
 6527WAT     H119823   7.465   5.494   4.774
 6527WAT     H219824   7.564   5.380   4.711
 6528WAT      O19825   1.300   2.157   9.281
 6528WAT     H119826   1.272   2.099   9.205
 6528WAT     H219827   1.225   2.220   9.303
 6529WAT      O19828   9.007   6.892   0.076
 6529WAT     H119829   8.908   6.908   0.070
 6529WAT     H219830   9.030   6.864   0.170
 6530WAT      O19831   4.961   0.298   4.572
 6530WAT     H119832   5.046   0.254   4.546
 6530WAT     H219833   4.902   0.233   4.621
 6531WAT      O19834   9.554   9.104   1.678
 6531WAT     H119835   9.611   9.128   1.757
 6531WAT     H219836   9.613   9.081   1.600
 6532WAT      O19837   6.738   2.283   7.542
 6532WAT     H119838   6.739   2.350   7.616
 6532WAT     H219839   6.829   2.242   7.534
 6533WAT      O19840   7.930   1.567   8.381
 6533WAT     H119841   8.001   1.499   8.399
 6533WAT     H219842   7.904   1.564   8.285
 6534WAT      O19843   0.347   1.541   7.030
 6534WAT     H119844   0.416   1.469   7.036
 6534WAT     H219845   0.262   1.508   7.072
 6535WAT      O19846   1.925   0.539   4.694
 6535WAT     H119847   1.931   0.639   4.697
 6535WAT     H219848   1.940   0.502   4.785
 6536WAT      O19849   1.900   2.620   6.369
 6536WAT     H119850   1.958   2.701   6.378
 6536WAT     H219851   1.809   2.640   6.406
 6537WAT      O19852   2.540   6.829   7.825
 6537WAT     H119853   2.466   6.871   7.877
 6537WAT     H219854   2.618   6.891   7.821
 6538WAT      O19855   5.364   6.469   6.291
 6538WAT     H119856   5.399   6.404   6.223
 6538WAT     H219857   5.304   6.535   6.247
 6539WAT      O19858   2.567   8.855   0.386
 6539WAT     H119859   2.497   8.866   0.315
 6539WAT     H219860   2.630   8.932   0.381
 6540WAT      O19861   0.615   0.025   5.966
 6540WAT     H119862   0.570   0.113   5.954
 6540WAT     H219863   0.691   0.017   5.902
 6541WAT      O19864   7.564   0.987   4.838
 6541WAT     H119865   7.610   0.950   4.918
 6541WAT     H219866   7.627   0.987   4.760
 6542WAT      O19867   9.055   6.862   1.504
 6542WAT     H119868   9.139   6.883   1.453
 6542WAT     H219869   9.019   6.774   1.473
 6543WAT      O19870   0.455   9.141   0.997
 6543WAT     H119871   0.525   9.158   1.067
 6543WAT     H219872   0.388   9.216   0.999
 6544WAT      O19873   0.344   7.792   2.249
 6544WAT     H119874   0.444   7.800   2.243
 6544WAT     H219875   0.309   7.758   2.161
 6545WAT      O19876   8.982   6.635   2.060
 6545WAT     H119877   8.999   6.733   2.069
 6545WAT     H219878   8.979   6.611   1.963
 6546WAT      O19879   1.200   5.581   7.429
 6546WAT     H119880   1.263   5.602   7.504
 6546WAT     H219881   1.118   5.637   7.437
 6547WAT      O19882   5.505   1.916   1.476
 6547WAT     H119883   5.547   1.950   1.561
 6547WAT     H219884   5.408   1.939   1.476
 6548WAT      O19885   5.364   9.168   4.490
 6548WAT     H119886   5.462   9.161   4.509
 6548WAT     H219887   5.317   9.087   4.524
 6549WAT      O19888   5.567   9.088   4.820
 6549WAT     H119889   5.513   9.154   4.872
 6549WAT     H219890   5.598   9.015   4.881
 6550WAT      O19891   6.876   1.670   6.894
 6550WAT     H119892   6.848   1.743   6.832
 6550WAT     H219893   6.953   1.621   6.855
 6551WAT      O19894   1.289   2.913   3.859
 6551WAT     H119895   1.344   2.937   3.778
 6551WAT     H219896   1.298   2.815   3.878
 6552WAT      O19897   2.272   7.967   5.420
 6552WAT     H119898   2.229   8.053   5.449
 6552WAT     H219899   2.238   7.892   5.477
 6553WAT      O19900   0.515   3.443   2.127
 6553WAT     H119901   0.611   3.418   2.133
 6553WAT     H219902   0.491   3.500   2.206
 6554WAT      O19903   0.303   1.258   6.792
 6554WAT     H119904   0.296   1.357   6.782
 6554WAT     H219905   0.374   1.223   6.731
 6555WAT      O19906   1.741   6.622   9.483
 6555WAT     H119907   1.770   6.658   9.572
 6555WAT     H219908   1.705   6.530   9.495
 6556WAT      O19909   3.740   9.233   2.435
 6556WAT     H119910   3.822   9.177   2.452
 6556WAT     H219911   3.711   9.220   2.340
 6557WAT      O19912   3.945   1.185   1.049
 6557WAT     H119913   3.953   1.276   1.089
 6557WAT     H219914   3.852   1.152   1.058
 6558WAT      O19915   3.366   2.139   8.106
 6558WAT     H119916   3.447   2.183   8.145
 6558WAT     H219917   3.313   2.095   8.178
 6559WAT      O19918   4.187   2.195   6.477
 6559WAT     H119919   4.163   2.290   6.496
 6559WAT     H219920   4.254   2.163   6.545
 6560WAT      O19921   0.657   7.974   6.921
 6560WAT     H119922   0.585   7.928   6.974
 6560WAT     H219923   0.615   8.028   6.849
 6561WAT      O19924   8.874   1.774   4.276
 6561WAT     H119925   8.880   1.675   4.265
 6561WAT     H219926   8.859   1.795   4.373
 6562WAT      O19927   6.072   1.734   6.789
 6562WAT     H119928   6.083   1.708   6.693
 6562WAT     H219929   6.079   1.653   6.847
 6563WAT      O19930   1.803   1.376   0.509
 6563WAT     H119931   1.832   1.293   0.463
 6563WAT     H219932   1.880   1.418   0.556
 6564WAT      O19933   4.682   2.538   9.194
 6564WAT     H119934   4.681   2.611   9.262
 6564WAT     H219935   4.748   2.468   9.221
 6565WAT      O19936   9.338   1.778   5.447
 6565WAT     H119937   9.432   1.778   5.415
 6565WAT     H219938   9.332   1.729   5.534
 6566WAT      O19939   1.510   9.687   5.924
 6566WAT     H119940   1.497   9.783   5.899
 6566WAT     H219941   1.520   9.632   5.842
 6567WAT      O19942   7.007   7.410   9.735
 6567WAT     H119943   6.963   7.484   9.786
 6567WAT     H219944   7.042   7.446   9.648
 6568WAT      O19945   8.214   8.630   7.018
 6568WAT     H119946   8.256   8.540   7.025
 6568WAT     H219947   8.282   8.696   6.986
 6569WAT      O19948   0.850   1.953   0.831
 6569WAT     H119949   0.801   2.036   0.806
 6569WAT     H219950   0.807   1.912   0.912
 6570WAT      O19951   6.517   3.269   5.646
 6570WAT     H119952   6.417   3.273   5.652
 6570WAT     H219953   6.551   3.359   5.616
 6571WAT      O19954   4.328   1.442   1.509
 6571WAT     H119955   4.240   1.478   1.478
 6571WAT     H219956   4.401   1.484   1.455
 6572WAT      O19957   9.286   8.371   6.334
 6572WAT     H119958   9.283   8.469   6.352
 6572WAT     H219959   9.381   8.343   6.316
 6573WAT      O19960   1.593   4.414   0.847
 6573WAT     H119961   1.631   4.396   0.938
 6573WAT     H219962   1.575   4.512   0.838
 6574WAT      O19963   9.535   1.538   9.460
 6574WAT     H119964   9.585   1.571   9.540
 6574WAT     H219965   9.559   1.442   9.443
 6575WAT      O19966   7.586   1.400   3.679
 6575WAT     H119967   7.662   1.365   3.625
 6575WAT     H219968   7.573   1.498   3.659
 6576WAT      O19969   8.284   6.895   7.392
 6576WAT     H119970   8.229   6.831   7.447
 6576WAT     H219971   8.312   6.851   7.307
 6577WAT      O19972   9.727   3.750   2.271
 6577WAT     H119973   9.674   3.667   2.253
 6577WAT     H219974   9.680   3.828   2.230
 6578WAT      O19975   2.197   4.542   1.750
 6578WAT     H119976   2.154   4.560   1.662
 6578WAT     H219977   2.153   4.596   1.821
 6579WAT      O19978   2.441   6.696   6.266
 6579WAT     H119979   2.438   6.796   6.262
 6579WAT     H219980   2.480   6.660   6.181
 6580WAT      O19981   9.073   1.031   9.292
 6580WAT     H119982   9.002   0.964   9.311
 6580WAT     H219983   9.036   1.123   9.302
 6581WAT      O19984   0.277   3.863   3.784
 6581WAT     H119985   0.327   3.848   3.698
 6581WAT     H219986   0.188   3.904   3.763
 6582WAT      O19987   7.273   6.200   4.669
 6582WAT     H119988   7.334   6.122   4.677
 6582WAT     H219989   7.325   6.285   4.682
 6583WAT      O19990   9.147   9.717   3.914
 6583WAT     H119991   9.178   9.741   4.005
 6583WAT     H219992   9.221   9.730   3.848
 6584WAT      O19993   6.906   1.336   7.264
 6584WAT     H119994   6.941   1.243   7.277
 6584WAT     H219995   6.971   1.401   7.304
 6585WAT      O19996   7.427   9.800   5.995
 6585WAT     H119997   7.441   9.849   5.909
 6585WAT     H219998   7.489   9.836   6.065
 6586WAT      O19999   8.682   2.064   4.583
 6586WAT     H120000   8.606   2.022   4.634
 6586WAT     H220001   8.650   2.149   4.541
 6587WAT      O20002   3.662   8.516   6.194
 6587WAT     H120003   3.675   8.560   6.106
 6587WAT     H220004   3.565   8.493   6.206
 6588WAT      O20005   8.959   0.652   4.103
 6588WAT     H120006   9.036   0.606   4.058
 6588WAT     H220007   8.897   0.584   4.141
 6589WAT      O20008   3.182   5.130   2.965
 6589WAT     H120009   3.174   5.079   3.050
 6589WAT     H220010   3.219   5.070   2.894
 6590WAT      O20011   4.117   0.411   2.083
 6590WAT     H120012   4.076   0.501   2.093
 6590WAT     H220013   4.054   0.341   2.117
 6591WAT      O20014   1.997   2.349   8.070
 6591WAT     H120015   1.923   2.308   8.016
 6591WAT     H220016   1.971   2.351   8.166
 6592WAT      O20017   6.448   4.618   2.916
 6592WAT     H120018   6.471   4.702   2.964
 6592WAT     H220019   6.407   4.641   2.827
 6593WAT      O20020   4.984   3.694   1.772
 6593WAT     H120021   5.044   3.628   1.819
 6593WAT     H220022   5.037   3.742   1.702
 6594WAT      O20023   1.401   3.994   1.001
 6594WAT     H120024   1.366   4.007   1.093
 6594WAT     H220025   1.328   3.959   0.942
 6595WAT      O20026   9.477   2.128   4.148
 6595WAT     H120027   9.516   2.116   4.239
 6595WAT     H220028   9.392   2.180   4.155
 6596WAT      O20029   8.984   5.374   8.693
 6596WAT     H120030   8.892   5.375   8.654
 6596WAT     H220031   8.985   5.314   8.773
 6597WAT      O20032   3.351   7.368   2.958
 6597WAT     H120033   3.420   7.424   2.912
 6597WAT     H220034   3.394   7.319   3.033
 6598WAT      O20035   0.598   1.745   9.218
 6598WAT     H120036   0.513   1.704   9.251
 6598WAT     H220037   0.629   1.696   9.137
 6599WAT      O20038   9.466   1.451   7.287
 6599WAT     H120039   9.512   1.530   7.328
 6599WAT     H220040   9.455   1.379   7.356
 6600WAT      O20041   4.640   9.752   3.984
 6600WAT     H120042   4.583   9.833   3.968
 6600WAT     H220043   4.736   9.776   3.978
 6601WAT      O20044   4.315   0.277   7.765
 6601WAT     H120045   4.374   0.197   7.776
 6601WAT     H220046   4.220   0.250   7.781
 6602WAT      O20047   5.810   2.348   2.184
 6602WAT     H120048   5.769   2.339   2.274
 6602WAT     H220049   5.910   2.345   2.192
 6603WAT      O20050   0.095   3.693   9.290
 6603WAT     H120051   0.006   3.671   9.331
 6603WAT     H220052   0.131   3.777   9.331
 6604WAT      O20053   4.726   3.437   6.374
 6604WAT     H120054   4.808   3.380   6.360
 6604WAT     H220055   4.706   3.487   6.289
 6605WAT      O20056   9.796   1.546   8.452
 6605WAT     H120057   9.768   1.567   8.546
 6605WAT     H220058   9.725   1.577   8.389
 6606WAT      O20059   1.933   1.189   3.410
 6606WAT     H120060   2.027   1.169   3.383
 6606WAT     H220061   1.871   1.159   3.338
 6607WAT      O20062   1.416   0.706   6.098
 6607WAT     H120063   1.395   0.739   6.006
 6607WAT     H220064   1.494   0.756   6.134
 6608WAT      O20065   4.063   8.683   7.322
 6608WAT     H120066   3.971   8.690   7.360
 6608WAT     H220067   4.067   8.730   7.234
 6609WAT      O20068   7.342   3.599   9.404
 6609WAT     H120069   7.304   3.623   9.314
 6609WAT     H220070   7.324   3.503   9.423
 6610WAT      O20071   7.138   0.702   0.605
 6610WAT     H120072   7.103   0.659   0.689
 6610WAT     H220073   7.238   0.708   0.611
 6611WAT      O20074   6.463   5.425   8.445
 6611WAT     H120075   6.367   5.440   8.424
 6611WAT     H220076   6.521   5.478   8.382
 6612WAT      O20077   9.855   0.256   3.642
 6612WAT     H120078   9.834   0.185   3.574
 6612WAT     H220079   9.912   0.217   3.714
 6613WAT      O20080   1.435   3.871   2.838
 6613WAT     H120081   1.485   3.903   2.919
 6613WAT     H220082   1.498   3.824   2.776
 6614WAT      O20083   1.229   7.009   9.577
 6614WAT     H120084   1.178   6.939   9.526
 6614WAT     H220085   1.176   7.094   9.578
 6615WAT      O20086   3.076   8.639   7.171
 6615WAT     H120087   3.065   8.540   7.158
 6615WAT     H220088   3.115   8.679   7.089
 6616WAT      O20089   8.694   3.096   5.435
 6616WAT     H120090   8.693   3.081   5.336
 6616WAT     H220091   8.705   3.194   5.454
 6617WAT      O20092   6.781   2.670   2.078
 6617WAT     H120093   6.863   2.681   2.135
 6617WAT     H220094   6.716   2.743   2.098
 6618WAT      O20095   9.325   0.429   7.869
 6618WAT     H120096   9.255   0.481   7.820
 6618WAT     H220097   9.296   0.334   7.880
 6619WAT      O20098   5.419   9.272   1.306
 6619WAT     H120099   5.397   9.204   1.376
 6619WAT     H220100   5.438   9.225   1.220
 6620WAT      O20101   5.130   1.546   9.392
 6620WAT     H120102   5.043   1.497   9.397
 6620WAT     H220103   5.204   1.480   9.378
 6621WAT      O20104   7.309   5.996   9.368
 6621WAT     H120105   7.307   6.089   9.406
 6621WAT     H220106   7.226   5.948   9.395
 6622WAT      O20107   5.665   7.586   9.025
 6622WAT     H120108   5.691   7.683   9.026
 6622WAT     H220109   5.706   7.541   8.945
 6623WAT      O20110   6.997   3.705   5.400
 6623WAT     H120111   6.983   3.642   5.325
 6623WAT     H220112   6.972   3.661   5.486
 6624WAT      O20113   8.160   7.001   3.669
 6624WAT     H120114   8.206   7.034   3.752
 6624WAT     H220115   8.209   7.035   3.589
 6625WAT      O20116   2.192   3.464   2.689
 6625WAT     H120117   2.137   3.406   2.749
 6625WAT     H220118   2.254   3.520   2.744
 6626WAT      O20119   8.380   4.927   8.828
 6626WAT     H120120   8.339   5.017   8.811
 6626WAT     H220121   8.339   4.859   8.768
 6627WAT      O20122   3.840   8.611   9.348
 6627WAT     H120123   3.846   8.575   9.441
 6627WAT     H220124   3.931   8.611   9.306
 6628WAT      O20125   3.916   5.721   5.678
 6628WAT     H120126   3.941   5.766   5.764
 6628WAT     H220127   3.998   5.686   5.634
 6629WAT      O20128   8.271   1.645   2.625
 6629WAT     H120129   8.247   1.691   2.540
 6629WAT     H220130   8.332   1.703   2.679
 6630WAT      O20131   0.568   7.988   4.350
 6630WAT     H120132   0.553   7.956   4.443
 6630WAT     H220133   0.499   8.057   4.326
 6631WAT      O20134   9.745   4.716   7.845
 6631WAT     H120135   9.768   4.800   7.893
 6631WAT     H220136   9.827   4.662   7.829
 6632WAT      O20137   9.189   5.868   7.219
 6632WAT     H120138   9.207   5.857   7.316
 6632WAT     H220139   9.098   5.834   7.197
 6633WAT      O20140   0.840   3.493   1.549
 6633WAT     H120141   0.923   3.461   1.503
 6633WAT     H220142   0.777   3.531   1.481
 6634WAT      O20143   6.586   3.228   9.697
 6634WAT     H120144   6.491   3.243   9.724
 6634WAT     H220145   6.645   3.296   9.740
 6635WAT      O20146   6.426   0.664   4.035
 6635WAT     H120147   6.376   0.613   4.105
 6635WAT     H220148   6.367   0.734   3.996
 6636WAT      O20149   8.900   0.074   2.785
 6636WAT     H120150   8.918   0.071   2.687
 6636WAT     H220151   8.897   0.169   2.815
 6637WAT      O20152   2.301   5.108   9.366
 6637WAT     H120153   2.308   5.128   9.268
 6637WAT     H220154   2.246   5.025   9.379
 6638WAT      O20155   9.062   7.590   8.336
 6638WAT     H120156   8.974   7.606   8.292
 6638WAT     H220157   9.124   7.545   8.272
 6639WAT      O20158   5.838   7.744   2.383
 6639WAT     H120159   5.798   7.824   2.338
 6639WAT     H220160   5.910   7.705   2.325
 6640WAT      O20161   3.088   7.874   2.426
 6640WAT     H120162   3.087   7.843   2.521
 6640WAT     H220163   3.156   7.822   2.375
 6641WAT      O20164   5.485   5.052   6.621
 6641WAT     H120165   5.581   5.037   6.594
 6641WAT     H220166   5.480   5.128   6.685
 6642WAT      O20167   9.494   8.181   3.658
 6642WAT     H120168   9.552   8.172   3.739
 6642WAT     H220169   9.551   8.182   3.576
 6643WAT      O20170   6.080   2.441   9.000
 6643WAT     H120171   6.119   2.367   8.945
 6643WAT     H220172   6.111   2.432   9.095
 6644WAT      O20173   9.425   2.736   3.661
 6644WAT     H120174   9.453   2.674   3.735
 6644WAT     H220175   9.504   2.760   3.605
 6645WAT      O20176   3.455   3.754   5.590
 6645WAT     H120177   3.552   3.769   5.612
 6645WAT     H220178   3.429   3.813   5.513
 6646WAT      O20179   2.040   3.729   9.016
 6646WAT     H120180   2.097   3.648   9.002
 6646WAT     H220181   1.951   3.716   8.972
 6647WAT      O20182   3.106   7.894   0.509
 6647WAT     H120183   3.115   7.834   0.588
 6647WAT     H220184   3.139   7.847   0.427
 6648WAT      O20185   9.138   7.556   9.210
 6648WAT     H120186   9.166   7.646   9.242
 6648WAT     H220187   9.038   7.551   9.208
 6649WAT      O20188   5.714   1.316   2.580
 6649WAT     H120189   5.799   1.328   2.529
 6649WAT     H220190   5.721   1.363   2.668
 6650WAT      O20191   4.728   6.950   0.522
 6650WAT     H120192   4.702   6.938   0.426
 6650WAT     H220193   4.823   6.922   0.534
 6651WAT      O20194   8.514   7.401   6.045
 6651WAT     H120195   8.569   7.324   6.077
 6651WAT     H220196   8.513   7.402   5.945
 6652WAT      O20197   1.411   7.515   3.952
 6652WAT     H120198   1.326   7.519   3.899
 6652WAT     H220199   1.430   7.606   3.990
 6653WAT      O20200   0.748   8.402   6.349
 6653WAT     H120201   0.787   8.344   6.420
 6653WAT     H220202   0.659   8.437   6.380
 6654WAT      O20203   1.621   7.536   5.231
 6654WAT     H120204   1.643   7.442   5.208
 6654WAT     H220205   1.661   7.597   5.163
 6655WAT      O20206   7.393   8.911   8.554
 6655WAT     H120207   7.317   8.846   8.560
 6655WAT     H220208   7.479   8.862   8.567
 6656WAT      O20209   9.348   1.141   4.917
 6656WAT     H120210   9.256   1.119   4.884
 6656WAT     H220211   9.359   1.106   5.010
 6657WAT      O20212   6.145   8.576   1.584
 6657WAT     H120213   6.097   8.638   1.522
 6657WAT     H220214   6.242   8.571   1.557
 6658WAT      O20215   7.888   0.442   2.240
 6658WAT     H120216   7.837   0.484   2.316
 6658WAT     H220217   7.957   0.380   2.277
 6659WAT      O20218   9.732   6.000   8.776
 6659WAT     H120219   9.817   5.970   8.818
 6659WAT     H220220   9.664   6.016   8.847
 6660WAT      O20221   7.231   5.909   5.842
 6660WAT     H120222   7.148   5.863   5.875
 6660WAT     H220223   7.245   5.885   5.745
 6661WAT      O20224   7.929   7.915   0.552
 6661WAT     H120225   7.946   7.822   0.521
 6661WAT     H220226   7.923   7.917   0.651
 6662WAT      O20227   2.153   5.983   5.834
 6662WAT     H120228   2.109   5.899   5.801
 6662WAT     H220229   2.122   6.061   5.780
 6663WAT      O20230   0.642   9.492   8.989
 6663WAT     H120231   0.695   9.509   8.906
 6663WAT     H220232   0.625   9.394   8.998
 6664WAT      O20233   7.694   0.235   5.211
 6664WAT     H120234   7.632   0.295   5.160
 6664WAT     H220235   7.753   0.186   5.147
 6665WAT      O20236   7.604   3.470   3.197
 6665WAT     H120237   7.542   3.471   3.275
 6665WAT     H220238   7.578   3.397   3.134
 6666WAT      O20239   8.876   1.523   3.091
 6666WAT     H120240   8.827   1.436   3.096
 6666WAT     H220241   8.934   1.523   3.010
 6667WAT      O20242   3.022   7.342   5.616
 6667WAT     H120243   2.995   7.434   5.589
 6667WAT     H220244   3.111   7.320   5.577
 6668WAT      O20245   1.240   1.133   5.162
 6668WAT     H120246   1.323   1.083   5.187
 6668WAT     H220247   1.258   1.189   5.082
 6669WAT      O20248   8.055   0.315   0.202
 6669WAT     H120249   7.997   0.291   0.280
 6669WAT     H220250   8.119   0.241   0.184
 6670WAT      O20251   4.476   8.512   4.796
 6670WAT     H120252   4.482   8.586   4.729
 6670WAT     H220253   4.388   8.466   4.788
 6671WAT      O20254   3.091   1.616   4.601
 6671WAT     H120255   3.094   1.542   4.534
 6671WAT     H220256   3.169   1.608   4.663
 6672WAT      O20257   9.560   2.555   3.884
 6672WAT     H120258   9.578   2.478   3.946
 6672WAT     H220259   9.557   2.640   3.937
 6673WAT      O20260   3.389   3.183   6.886
 6673WAT     H120261   3.330   3.109   6.919
 6673WAT     H220262   3.337   3.269   6.886
 6674WAT      O20263   9.892   7.076   6.065
 6674WAT     H120264   9.820   7.037   6.009
 6674WAT     H220265   9.857   7.096   6.156
 6675WAT      O20266   3.023   9.409   7.432
 6675WAT     H120267   3.080   9.486   7.403
 6675WAT     H220268   3.064   9.367   7.513
 6676WAT      O20269   8.099   7.678   5.306
 6676WAT     H120270   8.066   7.686   5.212
 6676WAT     H220271   8.053   7.747   5.362
 6677WAT      O20272   9.476   7.706   5.010
 6677WAT     H120273   9.517   7.780   5.063
 6677WAT     H220274   9.529   7.692   4.926
 6678WAT      O20275   6.306   8.243   0.439
 6678WAT     H120276   6.388   8.199   0.402
 6678WAT     H220277   6.225   8.191   0.412
 6679WAT      O20278   5.786   8.824   9.432
 6679WAT     H120279   5.830   8.736   9.418
 6679WAT     H220280   5.696   8.823   9.389
 6680WAT      O20281   7.267   4.720   3.783
 6680WAT     H120282   7.261   4.623   3.805
 6680WAT     H220283   7.363   4.748   3.781
 6681WAT      O20284   6.432   8.182   5.962
 6681WAT     H120285   6.405   8.105   6.021
 6681WAT     H220286   6.490   8.149   5.888
 6682WAT      O20287   6.503   8.222   3.433
 6682WAT     H120288   6.480   8.264   3.345
 6682WAT     H220289   6.457   8.133   3.440
 6683WAT      O20290   2.353   9.190   7.276
 6683WAT     H120291   2.358   9.132   7.195
 6683WAT     H220292   2.308   9.140   7.350
 6684WAT      O20293   4.175   7.617   2.997
 6684WAT     H120294   4.206   7.705   2.961
 6684WAT     H220295   4.216   7.543   2.943
 6685WAT      O20296   1.594   2.159   2.903
 6685WAT     H120297   1.494   2.158   2.902
 6685WAT     H220298   1.627   2.132   2.993
 6686WAT      O20299   1.482   2.977   9.434
 6686WAT     H120300   1.574   2.997   9.399
 6686WAT     H220301   1.442   3.060   9.472
 6687WAT      O20302   3.793   8.104   7.303
 6687WAT     H120303   3.736   8.069   7.228
 6687WAT     H220304   3.783   8.045   7.383
 6688WAT      O20305   6.757   4.312   5.988
 6688WAT     H120306   6.678   4.258   6.017
 6688WAT     H220307   6.770   4.302   5.890
 6689WAT      O20308   1.782   4.013   9.224
 6689WAT     H120309   1.712   4.081   9.203
 6689WAT     H220310   1.800   4.013   9.322
 6690WAT      O20311   3.463   7.688   0.810
 6690WAT     H120312   3.434   7.597   0.840
 6690WAT     H220313   3.383   7.744   0.792
 6691WAT      O20314   3.569   6.580   2.355
 6691WAT     H120315   3.586   6.577   2.256
 6691WAT     H220316   3.646   6.624   2.401
 6692WAT      O20317   4.127   1.333   8.323
 6692WAT     H120318   4.036   1.315   8.360
 6692WAT     H220319   4.132   1.429   8.295
 6693WAT      O20320   5.829   4.195   1.375
 6693WAT     H120321   5.858   4.099   1.378
 6693WAT     H220322   5.820   4.224   1.280
 6694WAT      O20323   3.004   9.549   9.284
 6694WAT     H120324   3.072   9.483   9.251
 6694WAT     H220325   2.977   9.524   9.377
 6695WAT      O20326   2.900   5.810   3.148
 6695WAT     H120327   2.889   5.792   3.245
 6695WAT     H220328   2.866   5.732   3.095
 6696WAT      O20329   8.427   4.644   0.981
 6696WAT     H120330   8.495   4.638   0.908
 6696WAT     H220331   8.352   4.702   0.952
 6697WAT      O20332   1.101   8.696   7.913
 6697WAT     H120333   1.114   8.793   7.932
 6697WAT     H220334   1.052   8.685   7.826
 6698WAT      O20335   8.859   1.163   5.534
 6698WAT     H120336   8.930   1.093   5.536
 6698WAT     H220337   8.771   1.122   5.560
 6699WAT      O20338   2.984   0.898   4.789
 6699WAT     H120339   2.962   0.979   4.843
 6699WAT     H220340   2.999   0.925   4.694
 6700WAT      O20341   5.758   6.769   4.373
 6700WAT     H120342   5.698   6.841   4.338
 6700WAT     H220343   5.704   6.707   4.431
 6701WAT      O20344   0.846   5.068   0.465
 6701WAT     H120345   0.800   5.024   0.387
 6701WAT     H220346   0.943   5.046   0.464
 6702WAT      O20347   4.684   2.415   5.628
 6702WAT     H120348   4.741   2.333   5.634
 6702WAT     H220349   4.725   2.488   5.683
 6703WAT      O20350   6.029   1.344   4.465
 6703WAT     H120351   6.003   1.441   4.472
 6703WAT     H220352   5.946   1.289   4.454
 6704WAT      O20353   6.695   7.344   9.300
 6704WAT     H120354   6.649   7.428   9.329
 6704WAT     H220355   6.637   7.265   9.321
 6705WAT      O20356   0.129   5.185   3.426
 6705WAT     H120357   0.074   5.264   3.454
 6705WAT     H220358   0.136   5.183   3.326
 6706WAT      O20359   6.480   9.103   5.612
 6706WAT     H120360   6.538   9.097   5.694
 6706WAT     H220361   6.494   9.021   5.556
 6707WAT      O20362   7.209   8.994   5.366
 6707WAT     H120363   7.115   9.026   5.364
 6707WAT     H220364   7.213   8.901   5.328
 6708WAT      O20365   5.666   9.386   2.031
 6708WAT     H120366   5.716   9.337   2.102
 6708WAT     H220367   5.610   9.321   1.978
 6709WAT      O20368   4.975   5.927   4.121
 6709WAT     H120369   5.041   5.978   4.178
 6709WAT     H220370   4.885   5.930   4.164
 6710WAT      O20371   7.037   1.626   3.259
 6710WAT     H120372   6.947   1.589   3.237
 6710WAT     H220373   7.107   1.560   3.233
 6711WAT      O20374   4.599   7.013   0.274
 6711WAT     H120375   4.529   7.049   0.212
 6711WAT     H220376   4.628   6.923   0.242
 6712WAT      O20377   5.159   6.824   4.352
 6712WAT     H120378   5.191   6.919   4.357
 6712WAT     H220379   5.163   6.783   4.443
 6713WAT      O20380   4.387   3.323   4.776
 6713WAT     H120381   4.352   3.417   4.782
 6713WAT     H220382   4.328   3.263   4.831
 6714WAT      O20383   2.206   5.254   3.403
 6714WAT     H120384   2.301   5.245   3.432
 6714WAT     H220385   2.180   5.175   3.348
 6715WAT      O20386   0.345   8.510   1.634
 6715WAT     H120387   0.264   8.464   1.671
 6715WAT     H220388   0.341   8.607   1.657
 6716WAT      O20389   3.217   8.770   2.786
 6716WAT     H120390   3.164   8.701   2.735
 6716WAT     H220391   3.155   8.824   2.843
 6717WAT      O20392   6.473   2.012   3.732
 6717WAT     H120393   6.573   2.015   3.729
 6717WAT     H220394   6.437   2.101   3.757
 6718WAT      O20395   0.118   4.851   0.319
 6718WAT     H120396   0.135   4.753   0.329
 6718WAT     H220397   0.175   4.888   0.245
 6719WAT      O20398   9.335   2.783   8.522
 6719WAT     H120399   9.298   2.858   8.466
 6719WAT     H220400   9.435   2.788   8.522
 6720WAT      O20401   2.278   4.684   2.750
 6720WAT     H120402   2.322   4.651   2.833
 6720WAT     H220403   2.182   4.657   2.750
 6721WAT      O20404   7.650   8.890   1.062
 6721WAT     H120405   7.698   8.808   1.095
 6721WAT     H220406   7.717   8.959   1.035
 6722WAT      O20407   1.613   5.493   6.559
 6722WAT     H120408   1.659   5.467   6.644
 6722WAT     H220409   1.679   5.492   6.484
 6723WAT      O20410   7.243   7.055   4.111
 6723WAT     H120411   7.146   7.042   4.130
 6723WAT     H220412   7.272   7.145   4.142
 6724WAT      O20413   9.664   2.744   3.499
 6724WAT     H120414   9.688   2.661   3.549
 6724WAT     H220415   9.735   2.813   3.512
 6725WAT      O20416   3.318   3.801   7.820
 6725WAT     H120417   3.333   3.710   7.859
 6725WAT     H220418   3.321   3.870   7.893
 6726WAT      O20419   1.535   8.035   6.194
 6726WAT     H120420   1.538   8.036   6.095
 6726WAT     H220421   1.621   8.070   6.231
 6727WAT      O20422   6.083   5.705   9.205
 6727WAT     H120423   6.181   5.706   9.188
 6727WAT     H220424   6.065   5.662   9.294
 6728WAT      O20425   8.203   4.786   0.585
 6728WAT     H120426   8.138   4.860   0.569
 6728WAT     H220427   8.258   4.772   0.503
 6729WAT      O20428   1.488   8.783   3.031
 6729WAT     H120429   1.493   8.836   3.116
 6729WAT     H220430   1.454   8.841   2.957
 6730WAT      O20431   9.042   7.776   4.833
 6730WAT     H120432   9.074   7.684   4.856
 6730WAT     H220433   8.959   7.796   4.885
 6731WAT      O20434   8.578   8.917   2.720
 6731WAT     H120435   8.630   8.873   2.793
 6731WAT     H220436   8.585   8.861   2.636
 6732WAT      O20437   6.680   4.688   9.662
 6732WAT     H120438   6.770   4.658   9.631
 6732WAT     H220439   6.687   4.779   9.702
 6733WAT      O20440   8.208   0.315   6.530
 6733WAT     H120441   8.187   0.236   6.471
 6733WAT     H220442   8.291   0.359   6.498
 6734WAT      O20443   5.048   3.971   5.361
 6734WAT     H120444   5.142   3.970   5.393
 6734WAT     H220445   4.992   3.915   5.423
 6735WAT      O20446   9.187   4.660   7.975
 6735WAT     H120447   9.205   4.699   8.065
 6735WAT     H220448   9.274   4.637   7.931
 6736WAT      O20449   6.064   9.014   2.560
 6736WAT     H120450   6.018   9.102   2.561
 6736WAT     H220451   5.998   8.941   2.579
 6737WAT      O20452   1.073   3.362   3.435
 6737WAT     H120453   1.069   3.461   3.442
 6737WAT     H220454   0.995   3.322   3.482
 6738WAT      O20455   4.773   6.873   8.146
 6738WAT     H120456   4.787   6.810   8.223
 6738WAT     H220457   4.676   6.894   8.137
 6739WAT      O20458   7.007   5.009   2.354
 6739WAT     H120459   7.051   5.053   2.275
 6739WAT     H220460   7.076   4.978   2.418
 6740WAT      O20461   4.719   0.545   1.947
 6740WAT     H120462   4.773   0.599   2.011
 6740WAT     H220463   4.743   0.448   1.957
 6741WAT      O20464   9.008   8.024   6.133
 6741WAT     H120465   9.082   7.959   6.114
 6741WAT     H220466   8.928   7.975   6.165
 6742WAT      O20467   4.369   4.491   8.055
 6742WAT     H120468   4.406   4.521   8.143
 6742WAT     H220469   4.282   4.536   8.039
 6743WAT      O20470   1.594   9.674   8.811
 6743WAT     H120471   1.501   9.689   8.846
 6743WAT     H220472   1.644   9.760   8.811
 6744WAT      O20473   4.651   0.301   0.178
 6744WAT     H120474   4.674   0.214   0.133
 6744WAT     H220475   4.690   0.302   0.270
 6745WAT      O20476   6.508   5.360   1.594
 6745WAT     H120477   6.480   5.319   1.508
 6745WAT     H220478   6.429   5.403   1.638
 6746WAT      O20479   2.780   7.843   0.947
 6746WAT     H120480   2.834   7.799   1.019
 6746WAT     H220481   2.841   7.892   0.885
 6747WAT      O20482   2.200   4.696   7.435
 6747WAT     H120483   2.172   4.644   7.354
 6747WAT     H220484   2.272   4.647   7.484
 6748WAT      O20485   4.492   0.114   9.425
 6748WAT     H120486   4.418   0.046   9.424
 6748WAT     H220487   4.578   0.069   9.449
 6749WAT      O20488   5.877   0.340   7.090
 6749WAT     H120489   5.848   0.435   7.083
 6749WAT     H220490   5.819   0.292   7.156
 6750WAT      O20491   4.582   9.772   2.315
 6750WAT     H120492   4.608   9.679   2.291
 6750WAT     H220493   4.497   9.771   2.367
 6751WAT      O20494   4.199   7.739   9.064
 6751WAT     H120495   4.254   7.714   8.984
 6751WAT     H220496   4.136   7.812   9.040
 6752WAT      O20497   1.222   1.983   5.468
 6752WAT     H120498   1.177   1.966   5.380
 6752WAT     H220499   1.229   1.897   5.519
 6753WAT      O20500   3.515   3.339   6.404
 6753WAT     H120501   3.452   3.416   6.417
 6753WAT     H220502   3.608   3.367   6.428
 6754WAT      O20503   2.485   2.480   1.449
 6754WAT     H120504   2.417   2.484   1.522
 6754WAT     H220505   2.533   2.392   1.452
 6755WAT      O20506   7.846   8.655   1.749
 6755WAT     H120507   7.750   8.631   1.757
 6755WAT     H220508   7.897   8.578   1.712
 6756WAT      O20509   3.319   4.058   2.693
 6756WAT     H120510   3.405   4.025   2.732
 6756WAT     H220511   3.339   4.131   2.627
 6757WAT      O20512   0.759   3.267   6.304
 6757WAT     H120513   0.752   3.184   6.359
 6757WAT     H220514   0.678   3.276   6.246
 6758WAT      O20515   9.860   1.522   7.320
 6758WAT     H120516   9.907   1.516   7.408
 6758WAT     H220517   9.870   1.614   7.283
 6759WAT      O20518   9.427   5.183   1.434
 6759WAT     H120519   9.442   5.144   1.525
 6759WAT     H220520   9.501   5.155   1.374
 6760WAT      O20521   7.060   7.781   2.590
 6760WAT     H120522   7.135   7.742   2.536
 6760WAT     H220523   7.066   7.746   2.684
 6761WAT      O20524   1.486   2.450   1.986
 6761WAT     H120525   1.501   2.424   2.081
 6761WAT     H220526   1.566   2.498   1.951
 6762WAT      O20527   2.644   5.784   1.460
 6762WAT     H120528   2.739   5.756   1.460
 6762WAT     H220529   2.612   5.795   1.555
 6763WAT      O20530   5.262   8.724   6.201
 6763WAT     H120531   5.351   8.758   6.168
 6763WAT     H220532   5.271   8.627   6.224
 6764WAT      O20533   3.219   2.837   5.766
 6764WAT     H120534   3.197   2.745   5.799
 6764WAT     H220535   3.163   2.904   5.815
 6765WAT      O20536   1.917   8.941   3.556
 6765WAT     H120537   1.921   8.888   3.471
 6765WAT     H220538   1.832   8.992   3.560
 6766WAT      O20539   2.392   0.952   1.798
 6766WAT     H120540   2.297   0.952   1.766
 6766WAT     H220541   2.427   0.858   1.793
 6767WAT      O20542   3.099   5.930   5.829
 6767WAT     H120543   3.119   5.841   5.869
 6767WAT     H220544   3.010   5.927   5.784
 6768WAT      O20545   4.550   3.572   3.029
 6768WAT     H120546   4.627   3.635   3.044
 6768WAT     H220547   4.527   3.571   2.931
 6769WAT      O20548   6.821   1.660   7.431
 6769WAT     H120549   6.821   1.654   7.332
 6769WAT     H220550   6.902   1.711   7.462
 6770WAT      O20551   7.292   8.259   3.025
 6770WAT     H120552   7.328   8.167   3.042
 6770WAT     H220553   7.300   8.281   2.928
 6771WAT      O20554   7.715   4.277   4.762
 6771WAT     H120555   7.739   4.362   4.810
 6771WAT     H220556   7.798   4.225   4.744
 6772WAT      O20557   3.734   6.019   1.290
 6772WAT     H120558   3.664   6.090   1.300
 6772WAT     H220559   3.690   5.932   1.264
 6773WAT      O20560   9.110   1.744   8.108
 6773WAT     H120561   9.171   1.737   8.187
 6773WAT     H220562   9.138   1.678   8.038
 6774WAT      O20563   3.000   1.020   5.545
 6774WAT     H120564   3.037   0.956   5.613
 6774WAT     H220565   2.901   1.027   5.558
 6775WAT      O20566   2.615   7.647   0.334
 6775WAT     H120567   2.607   7.695   0.421
 6775WAT     H220568   2.703   7.668   0.292
 6776WAT      O20569   4.542   3.135   9.411
 6776WAT     H120570   4.584   3.069   9.474
 6776WAT     H220571   4.546   3.100   9.318
 6777WAT      O20572   2.609   6.166   1.111
 6777WAT     H120573   2.608   6.128   1.203
 6777WAT     H220574   2.516   6.188   1.082
 6778WAT      O20575   8.644   1.015   5.632
 6778WAT     H120576   8.608   1.105   5.652
 6778WAT     H220577   8.625   0.953   5.708
 6779WAT      O20578   5.162   4.794   1.125
 6779WAT     H120579   5.120   4.705   1.139
 6779WAT     H220580   5.231   4.811   1.195
 6780WAT      O20581   1.684   9.222   4.178
 6780WAT     H120582   1.738   9.169   4.243
 6780WAT     H220583   1.739   9.241   4.097
 6781WAT      O20584   8.711   5.360   2.869
 6781WAT     H120585   8.618   5.321   2.874
 6781WAT     H220586   8.742   5.357   2.774
 6782WAT      O20587   7.930   6.510   0.594
 6782WAT     H120588   7.878   6.565   0.528
 6782WAT     H220589   7.954   6.422   0.552
 6783WAT      O20590   9.793   9.763   1.151
 6783WAT     H120591   9.770   9.851   1.109
 6783WAT     H220592   9.796   9.692   1.082
 6784WAT      O20593   3.020   8.625   6.291
 6784WAT     H120594   2.941   8.637   6.352
 6784WAT     H220595   3.100   8.600   6.346
 6785WAT      O20596   4.595   0.069   1.178
 6785WAT     H120597   4.518   0.133   1.172
 6785WAT     H220598   4.679   0.116   1.150
 6786WAT      O20599   0.480   5.114   2.361
 6786WAT     H120600   0.396   5.169   2.366
 6786WAT     H220601   0.559   5.174   2.347
 6787WAT      O20602   7.842   4.911   4.122
 6787WAT     H120603   7.876   4.988   4.177
 6787WAT     H220604   7.758   4.876   4.162
 6788WAT      O20605   8.061   5.606   4.924
 6788WAT     H120606   8.103   5.650   4.844
 6788WAT     H220607   8.111   5.523   4.946
 6789WAT      O20608   8.493   0.723   4.074
 6789WAT     H120609   8.556   0.779   4.126
 6789WAT     H220610   8.523   0.718   3.978
 6790WAT      O20611   1.501   7.200   9.041
 6790WAT     H120612   1.445   7.192   8.959
 6790WAT     H220613   1.596   7.175   9.018
 6791WAT      O20614   7.612   6.130   9.872
 6791WAT     H120615   7.570   6.174   9.952
 6791WAT     H220616   7.605   6.031   9.881
 6792WAT      O20617   3.097   7.405   2.996
 6792WAT     H120618   3.043   7.396   2.912
 6792WAT     H220619   3.192   7.382   2.978
 6793WAT      O20620   5.801   0.073   6.150
 6793WAT     H120621   5.773   0.007   6.219
 6793WAT     H220622   5.721   0.123   6.118
 6794WAT      O20623   6.589   1.114   7.092
 6794WAT     H120624   6.612   1.184   7.159
 6794WAT     H220625   6.542   1.038   7.138
 6795WAT      O20626   2.195   2.820   8.384
 6795WAT     H120627   2.127   2.891   8.367
 6795WAT     H220628   2.172   2.770   8.468
 6796WAT      O20629   3.613   5.433   4.005
 6796WAT     H120630   3.670   5.370   3.953
 6796WAT     H220631   3.613   5.406   4.102
 6797WAT      O20632   9.825   6.375   6.020
 6797WAT     H120633   9.921   6.358   6.045
 6797WAT     H220634   9.765   6.334   6.088
 6798WAT      O20635   4.429   2.467   9.252
 6798WAT     H120636   4.510   2.508   9.209
 6798WAT     H220637   4.410   2.513   9.338
 6799WAT      O20638   6.053   5.097   0.503
 6799WAT     H120639   6.042   5.154   0.421
 6799WAT     H220640   5.963   5.072   0.539
 6800WAT      O20641   4.664   4.965   1.290
 6800WAT     H120642   4.725   4.971   1.370
 6800WAT     H220643   4.698   4.894   1.228
 6801WAT      O20644   6.809   9.021   3.107
 6801WAT     H120645   6.864   9.077   3.168
 6801WAT     H220646   6.848   8.929   3.101
 6802WAT      O20647   3.067   6.356   5.462
 6802WAT     H120648   3.132   6.339   5.388
 6802WAT     H220649   3.073   6.452   5.489
 6803WAT      O20650   7.182   0.571   1.592
 6803WAT     H120651   7.233   0.643   1.545
 6803WAT     H220652   7.106   0.612   1.643
 6804WAT      O20653   1.450   9.204   9.826
 6804WAT     H120654   1.501   9.290   9.816
 6804WAT     H220655   1.390   9.210   9.905
 6805WAT      O20656   0.347   0.745   0.691
 6805WAT     H120657   0.370   0.715   0.783
 6805WAT     H220658   0.306   0.670   0.640
 6806WAT      O20659   2.631   5.207   4.968
 6806WAT     H120660   2.637   5.183   5.065
 6806WAT     H220661   2.710   5.170   4.919
 6807WAT      O20662   9.103   2.748   5.908
 6807WAT     H120663   9.192   2.795   5.911
 6807WAT     H220664   9.080   2.715   6.000
 6808WAT      O20665   3.317   1.965   7.891
 6808WAT     H120666   3.334   2.031   7.964
 6808WAT     H220667   3.382   1.980   7.817
 6809WAT      O20668   8.295   5.512   2.916
 6809WAT     H120669   8.259   5.500   3.009
 6809WAT     H220670   8.370   5.448   2.901
 6810WAT      O20671   3.058   1.892   9.286
 6810WAT     H120672   2.986   1.920   9.349
 6810WAT     H220673   3.138   1.950   9.298
 6811WAT      O20674   0.225   1.175   5.408
 6811WAT     H120675   0.312   1.210   5.373
 6811WAT     H220676   0.174   1.251   5.449
 6812WAT      O20677   7.732   0.914   0.418
 6812WAT     H120678   7.810   0.904   0.356
 6812WAT     H220679   7.678   0.829   0.417
 6813WAT      O20680   5.846   2.758   8.223
 6813WAT     H120681   5.895   2.730   8.140
 6813WAT     H220682   5.887   2.714   8.302
 6814WAT      O20683   3.013   0.338   8.407
 6814WAT     H120684   3.110   0.352   8.388
 6814WAT     H220685   2.982   0.255   8.361
 6815WAT      O20686   9.794   7.168   0.881
 6815WAT     H120687   9.846   7.245   0.845
 6815WAT     H220688   9.857   7.098   0.916
 6816WAT      O20689   9.205   4.454   8.252
 6816WAT     H120690   9.211   4.523   8.324
 6816WAT     H220691   9.121   4.468   8.200
 6817WAT      O20692   6.852   2.113   2.772
 6817WAT     H120693   6.806   2.200   2.752
 6817WAT     H220694   6.942   2.132   2.811
 6818WAT      O20695   0.875   2.046   8.655
 6818WAT     H120696   0.929   2.097   8.721
 6818WAT     H220697   0.829   1.970   8.701
 6819WAT      O20698   2.831   7.135   8.034
 6819WAT     H120699   2.896   7.211   8.033
 6819WAT     H220700   2.749   7.163   8.084
 6820WAT      O20701   9.728   9.267   1.849
 6820WAT     H120702   9.676   9.329   1.908
 6820WAT     H220703   9.804   9.318   1.807
 6821WAT      O20704   2.346   0.484   3.889
 6821WAT     H120705   2.272   0.465   3.953
 6821WAT     H220706   2.317   0.555   3.825
 6822WAT      O20707   4.219   3.654   7.403
 6822WAT     H120708   4.217   3.753   7.417
 6822WAT     H220709   4.243   3.634   7.308
 6823WAT      O20710   0.898   4.044   4.054
 6823WAT     H120711   0.857   4.125   4.011
 6823WAT     H220712   0.934   3.984   3.983
 6824WAT      O20713   2.329   0.254   4.301
 6824WAT     H120714   2.259   0.321   4.276
 6824WAT     H220715   2.420   0.293   4.284
 6825WAT      O20716   9.203   2.573   8.415
 6825WAT     H120717   9.258   2.645   8.458
 6825WAT     H220718   9.110   2.576   8.450
 6826WAT      O20719   7.163   5.860   3.153
 6826WAT     H120720   7.148   5.764   3.131
 6826WAT     H220721   7.123   5.880   3.242
 6827WAT      O20722   5.722   4.315   8.180
 6827WAT     H120723   5.670   4.315   8.266
 6827WAT     H220724   5.796   4.248   8.186
 6828WAT      O20725   7.803   8.266   5.479
 6828WAT     H120726   7.704   8.274   5.474
 6828WAT     H220727   7.828   8.173   5.507
 6829WAT      O20728   8.683   5.909   3.291
 6829WAT     H120729   8.780   5.907   3.314
 6829WAT     H220730   8.668   5.976   3.219
 6830WAT      O20731   0.462   3.964   6.974
 6830WAT     H120732   0.461   4.004   7.066
 6830WAT     H220733   0.463   3.865   6.981
 6831WAT      O20734   0.585   6.687   9.715
 6831WAT     H120735   0.612   6.711   9.808
 6831WAT     H220736   0.608   6.591   9.697
 6832WAT      O20737   9.401   5.166   2.400
 6832WAT     H120738   9.386   5.102   2.325
 6832WAT     H220739   9.477   5.135   2.457
 6833WAT      O20740   3.638   7.988   4.059
 6833WAT     H120741   3.569   7.917   4.074
 6833WAT     H220742   3.595   8.078   4.057
 6834WAT      O20743   1.536   0.224   5.407
 6834WAT     H120744   1.510   0.286   5.480
 6834WAT     H220745   1.569   0.276   5.328
 6835WAT      O20746   7.760   6.081   8.366
 6835WAT     H120747   7.702   6.024   8.308
 6835WAT     H220748   7.735   6.177   8.355
 6836WAT      O20749   5.613   0.116   5.320
 6836WAT     H120750   5.629   0.018   5.316
 6836WAT     H220751   5.579   0.148   5.231
 6837WAT      O20752   5.942   8.784   6.239
 6837WAT     H120753   5.966   8.875   6.205
 6837WAT     H220754   6.008   8.756   6.309
 6838WAT      O20755   3.104   3.089   5.928
 6838WAT     H120756   3.179   3.155   5.928
 6838WAT     H220757   3.111   3.030   6.009
 6839WAT      O20758   7.607   4.993   7.141
 6839WAT     H120759   7.529   4.985   7.079
 6839WAT     H220760   7.575   5.012   7.233
 6840WAT      O20761   1.172   1.562   1.655
 6840WAT     H120762   1.160   1.628   1.729
 6840WAT     H220763   1.083   1.539   1.616
 6841WAT      O20764   5.493   3.744   7.766
 6841WAT     H120765   5.415   3.799   7.734
 6841WAT     H220766   5.501   3.755   7.865
 6842WAT      O20767   8.896   7.429   1.628
 6842WAT     H120768   8.913   7.402   1.723
 6842WAT     H220769   8.836   7.361   1.585
 6843WAT      O20770   7.323   0.409   2.058
 6843WAT     H120771   7.336   0.340   1.988
 6843WAT     H220772   7.239   0.390   2.110
 6844WAT      O20773   8.922   1.041   8.839
 6844WAT     H120774   8.998   0.992   8.796
 6844WAT     H220775   8.942   1.139   8.840
 6845WAT      O20776   3.841   7.449   3.622
 6845WAT     H120777   3.925   7.458   3.567
 6845WAT     H220778   3.793   7.366   3.595
 6846WAT      O20779   4.994   8.916   4.263
 6846WAT     H120780   4.940   8.962   4.193
 6846WAT     H220781   4.961   8.944   4.354
 6847WAT      O20782   2.827   7.445   7.558
 6847WAT     H120783   2.804   7.525   7.502
 6847WAT     H220784   2.761   7.372   7.541
 6848WAT      O20785   9.450   2.644   4.504
 6848WAT     H120786   9.514   2.691   4.564
 6848WAT     H220787   9.359   2.645   4.544
 6849WAT      O20788   8.136   8.460   4.506
 6849WAT     H120789   8.098   8.467   4.599
 6849WAT     H220790   8.137   8.364   4.478
 6850WAT      O20791   1.335   3.133   0.951
 6850WAT     H120792   1.369   3.128   1.045
 6850WAT     H220793   1.381   3.064   0.895
 6851WAT      O20794   2.181   1.656   8.354
 6851WAT     H120795   2.249   1.721   8.320
 6851WAT     H220796   2.183   1.655   8.454
 6852WAT      O20797   0.853   6.923   0.172
 6852WAT     H120798   0.914   6.909   0.250
 6852WAT     H220799   0.804   7.010   0.183
 6853WAT      O20800   3.580   3.204   8.178
 6853WAT     H120801   3.557   3.133   8.111
 6853WAT     H220802   3.678   3.224   8.173
 6854WAT      O20803   6.519   4.271   5.692
 6854WAT     H120804   6.618   4.262   5.702
 6854WAT     H220805   6.474   4.191   5.731
 6855WAT      O20806   7.965   8.690   7.142
 6855WAT     H120807   8.041   8.659   7.086
 6855WAT     H220808   7.909   8.612   7.170
 6856WAT      O20809   1.524   0.030   5.603
 6856WAT     H120810   1.537   0.100   5.532
 6856WAT     H220811   1.613  -0.009   5.627
 6857WAT      O20812   7.060   0.940   8.410
 6857WAT     H120813   7.059   0.841   8.428
 6857WAT     H220814   7.143   0.963   8.359
 6858WAT      O20815   0.484   1.845   1.611
 6858WAT     H120816   0.484   1.892   1.699
 6858WAT     H220817   0.566   1.869   1.559
 6859WAT      O20818   0.665   2.021   1.066
 6859WAT     H120819   0.670   1.924   1.092
 6859WAT     H220820   0.674   2.078   1.148
 6860WAT      O20821   1.347   4.418   2.799
 6860WAT     H120822   1.386   4.454   2.715
 6860WAT     H220823   1.282   4.345   2.777
 6861WAT      O20824   2.012   6.907   0.548
 6861WAT     H120825   2.111   6.913   0.555
 6861WAT     H220826   1.973   6.999   0.547
 6862WAT      O20827   2.995   1.853   5.932
 6862WAT     H120828   2.906   1.809   5.944
 6862WAT     H220829   3.052   1.797   5.872
 6863WAT      O20830   1.750   1.396   4.735
 6863WAT     H120831   1.821   1.373   4.802
 6863WAT     H220832   1.792   1.413   4.646
 6864WAT      O20833   0.558   6.165   9.252
 6864WAT     H120834   0.651   6.192   9.230
 6864WAT     H220835   0.513   6.130   9.169
 6865WAT      O20836   1.050   9.401   3.083
 6865WAT     H120837   1.048   9.421   3.181
 6865WAT     H220838   0.978   9.335   3.061
 6866WAT      O20839   7.588   2.748   4.146
 6866WAT     H120840   7.667   2.739   4.206
 6866WAT     H220841   7.505   2.757   4.201
 6867WAT      O20842   0.778   2.097   4.617
 6867WAT     H120843   0.701   2.126   4.560
 6867WAT     H220844   0.760   2.121   4.713
 6868WAT      O20845   6.194   7.245   4.494
 6868WAT     H120846   6.229   7.320   4.551
 6868WAT     H220847   6.164   7.283   4.406
 6869WAT      O20848   4.069   6.902   2.628
 6869WAT     H120849   4.096   6.828   2.566
 6869WAT     H220850   4.081   6.871   2.722
 6870WAT      O20851   1.493   3.974   9.590
 6870WAT     H120852   1.532   4.065   9.599
 6870WAT     H220853   1.393   3.980   9.584
 6871WAT      O20854   9.870   7.368   5.988
 6871WAT     H120855   9.901   7.273   5.980
 6871WAT     H220856   9.950   7.429   5.993
 6872WAT      O20857   5.151   5.963   3.899
 6872WAT     H120858   5.055   5.975   3.925
 6872WAT     H220859   5.205   6.036   3.941
 6873WAT      O20860   6.507   1.600   5.409
 6873WAT     H120861   6.457   1.564   5.488
 6873WAT     H220862   6.583   1.538   5.387
 6874WAT      O20863   3.842   3.598   8.943
 6874WAT     H120864   3.845   3.606   9.043
 6874WAT     H220865   3.928   3.558   8.910
 6875WAT      O20866   8.523   0.819   7.571
 6875WAT     H120867   8.506   0.893   7.637
 6875WAT     H220868   8.557   0.738   7.620
 6876WAT      O20869   0.065   8.062   9.104
 6876WAT     H120870   0.141   8.008   9.067
 6876WAT     H220871   0.101   8.131   9.167
 6877WAT      O20872   3.621   1.854   7.365
 6877WAT     H120873   3.700   1.804   7.400
 6877WAT     H220874   3.587   1.809   7.283
 6878WAT      O20875   1.874   8.876   9.349
 6878WAT     H120876   1.837   8.870   9.441
 6878WAT     H220877   1.973   8.861   9.352
 6879WAT      O20878   3.818   2.188   2.868
 6879WAT     H120879   3.893   2.154   2.924
 6879WAT     H220880   3.847   2.271   2.820
 6880WAT      O20881   9.400   6.107   3.280
 6880WAT     H120882   9.317   6.161   3.269
 6880WAT     H220883   9.480   6.167   3.275
 6881WAT      O20884   5.152   0.577   9.693
 6881WAT     H120885   5.132   0.484   9.724
 6881WAT     H220886   5.085   0.640   9.733
 6882WAT      O20887   6.616   7.313   1.281
 6882WAT     H120888   6.540   7.375   1.258
 6882WAT     H220889   6.582   7.219   1.287
 6883WAT      O20890   2.268   7.445   4.095
 6883WAT     H120891   2.278   7.495   4.009
 6883WAT     H220892   2.232   7.354   4.076
 6884WAT      O20893   3.085   6.754   6.853
 6884WAT     H120894   3.021   6.705   6.912
 6884WAT     H220895   3.176   6.753   6.895
 6885WAT      O20896   5.182   4.622   1.921
 6885WAT     H120897   5.145   4.593   2.009
 6885WAT     H220898   5.175   4.721   1.913
 6886WAT      O20899   5.947   6.748   0.554
 6886WAT     H120900   5.960   6.843   0.581
 6886WAT     H220901   5.946   6.690   0.636
 6887WAT      O20902   6.080   3.278   0.198
 6887WAT     H120903   6.179   3.282   0.208
 6887WAT     H220904   6.037   3.328   0.274
 6888WAT      O20905   1.092   7.350   8.817
 6888WAT     H120906   1.021   7.382   8.879
 6888WAT     H220907   1.057   7.348   8.723
 6889WAT      O20908   7.948   8.451   0.029
 6889WAT     H120909   7.871   8.433   0.092
 6889WAT     H220910   8.001   8.367   0.017
 6890WAT      O20911   1.500   9.373   9.579
 6890WAT     H120912   1.529   9.278   9.573
 6890WAT     H220913   1.576   9.433   9.554
 6891WAT      O20914   3.191   9.437   4.284
 6891WAT     H120915   3.229   9.483   4.204
 6891WAT     H220916   3.252   9.452   4.362
 6892WAT      O20917   1.263   3.122   4.536
 6892WAT     H120918   1.359   3.145   4.545
 6892WAT     H220919   1.224   3.171   4.458
 6893WAT      O20920   7.040   0.416   9.809
 6893WAT     H120921   7.117   0.394   9.869
 6893WAT     H220922   6.954   0.389   9.853
 6894WAT      O20923   2.628   5.210   2.156
 6894WAT     H120924   2.633   5.197   2.255
 6894WAT     H220925   2.632   5.121   2.110
 6895WAT      O20926   6.156   1.368   0.840
 6895WAT     H120927   6.117   1.284   0.803
 6895WAT     H220928   6.253   1.373   0.816
 6896WAT      O20929   5.068   9.297   2.984
 6896WAT     H120930   4.996   9.228   2.969
 6896WAT     H220931   5.027   9.381   3.018
 6897WAT      O20932   5.141   0.840   0.790
 6897WAT     H120933   5.055   0.791   0.776
 6897WAT     H220934   5.214   0.775   0.811
 6898WAT      O20935   8.543   2.288   4.518
 6898WAT     H120936   8.451   2.267   4.484
 6898WAT     H220937   8.537   2.348   4.597
 6899WAT      O20938   7.755   0.679   2.963
 6899WAT     H120939   7.820   0.617   3.006
 6899WAT     H220940   7.682   0.701   3.029
 6900WAT      O20941   6.342   5.753   9.192
 6900WAT     H120942   6.399   5.715   9.264
 6900WAT     H220943   6.398   5.771   9.111
 6901WAT      O20944   6.181   2.092   9.600
 6901WAT     H120945   6.234   2.031   9.541
 6901WAT     H220946   6.242   2.161   9.639
 6902WAT      O20947   1.247   5.102   7.795
 6902WAT     H120948   1.216   5.061   7.881
 6902WAT     H220949   1.346   5.096   7.789
 6903WAT      O20950   0.086   6.337   1.734
 6903WAT     H120951  -0.009   6.348   1.703
 6903WAT     H220952   0.101   6.392   1.816
 6904WAT      O20953   2.431   4.532   8.344
 6904WAT     H120954   2.357   4.570   8.288
 6904WAT     H220955   2.407   4.542   8.441
 6905WAT      O20956   5.150   5.028   2.857
 6905WAT     H120957   5.070   4.969   2.869
 6905WAT     H220958   5.173   5.034   2.760
 6906WAT      O20959   9.180   2.929   1.904
 6906WAT     H120960   9.226   2.991   1.967
 6906WAT     H220961   9.234   2.920   1.820
 6907WAT      O20962   3.414   8.575   6.800
 6907WAT     H120963   3.449   8.534   6.715
 6907WAT     H220964   3.418   8.674   6.793
 6908WAT      O20965   4.234   1.637   2.942
 6908WAT     H120966   4.288   1.605   2.865
 6908WAT     H220967   4.274   1.722   2.978
 6909WAT      O20968   3.729   8.948   1.516
 6909WAT     H120969   3.779   8.865   1.538
 6909WAT     H220970   3.769   9.025   1.566
 6910WAT      O20971   8.372   2.616   2.633
 6910WAT     H120972   8.341   2.616   2.538
 6910WAT     H220973   8.293   2.606   2.693
 6911WAT      O20974   9.151   5.104   2.969
 6911WAT     H120975   9.081   5.173   2.991
 6911WAT     H220976   9.156   5.092   2.870
 6912WAT      O20977   4.551   7.044   1.348
 6912WAT     H120978   4.575   7.137   1.376
 6912WAT     H220979   4.635   6.990   1.339
 6913WAT      O20980   8.471   6.398   3.619
 6913WAT     H120981   8.559   6.399   3.665
 6913WAT     H220982   8.434   6.305   3.618
 6914WAT      O20983   5.640   9.622   9.663
 6914WAT     H120984   5.608   9.537   9.621
 6914WAT     H220985   5.565   9.664   9.714
 6915WAT      O20986   5.878   9.808   8.019
 6915WAT     H120987   5.878   9.838   8.115
 6915WAT     H220988   5.838   9.879   7.961
 6916WAT      O20989   4.879   9.439   7.689
 6916WAT     H120990   4.974   9.450   7.661
 6916WAT     H220991   4.821   9.433   7.608
 6917WAT      O20992   6.832   3.473   6.983
 6917WAT     H120993   6.787   3.557   7.015
 6917WAT     H220994   6.860   3.419   7.062
 6918WAT      O20995   2.729   5.899   7.811
 6918WAT     H120996   2.796   5.928   7.742
 6918WAT     H220997   2.680   5.818   7.778
 6919WAT      O20998   8.008   0.008   0.935
 6919WAT     H120999   7.995  -0.055   1.012
 6919WAT     H221000   8.035  -0.044   0.854
 6920WAT      O21001   5.069   2.490   4.444
 6920WAT     H121002   5.159   2.533   4.451
 6920WAT     H221003   4.998   2.560   4.440
 6921WAT      O21004   9.664   1.396   4.141
 6921WAT     H121005   9.730   1.462   4.177
 6921WAT     H221006   9.579   1.444   4.119
 6922WAT      O21007   9.854   1.196   9.071
 6922WAT     H121008   9.771   1.141   9.056
 6922WAT     H221009   9.836   1.262   9.144
 6923WAT      O21010   7.156   4.496   8.638
 6923WAT     H121011   7.178   4.594   8.634
 6923WAT     H221012   7.216   4.452   8.704
 6924WAT      O21013   4.737   2.663   3.749
 6924WAT     H121014   4.812   2.726   3.731
 6924WAT     H221015   4.748   2.623   3.840
 6925WAT      O21016   3.845   8.497   8.907
 6925WAT     H121017   3.770   8.475   8.969
 6925WAT     H221018   3.923   8.530   8.960
 6926WAT      O21019   5.263   4.446   6.233
 6926WAT     H121020   5.210   4.431   6.150
 6926WAT     H221021   5.271   4.544   6.252
 6927WAT      O21022   1.260   0.144   1.054
 6927WAT     H121023   1.256   0.159   1.153
 6927WAT     H221024   1.168   0.146   1.016
 6928WAT      O21025   0.993   2.100   5.768
 6928WAT     H121026   1.085   2.111   5.804
 6928WAT     H221027   0.957   2.010   5.794
 6929WAT      O21028   7.795   4.023   2.725
 6929WAT     H121029   7.791   4.050   2.629
 6929WAT     H221030   7.717   4.062   2.774
 6930WAT      O21031   5.155   6.123   1.954
 6930WAT     H121032   5.156   6.180   1.872
 6930WAT     H221033   5.062   6.114   1.988
 6931WAT      O21034   7.319   4.992   8.427
 6931WAT     H121035   7.350   5.027   8.515
 6931WAT     H221036   7.336   5.060   8.356
 6932WAT      O21037   0.815   1.158   0.254
 6932WAT     H121038   0.847   1.171   0.347
 6932WAT     H221039   0.892   1.132   0.196
 6933WAT      O21040   1.468   1.105   9.056
 6933WAT     H121041   1.552   1.142   9.095
 6933WAT     H221042   1.420   1.050   9.125
 6934WAT      O21043   0.407   4.787   7.010
 6934WAT     H121044   0.339   4.790   7.083
 6934WAT     H221045   0.365   4.816   6.924
 6935WAT      O21046   0.073   6.962   4.387
 6935WAT     H121047   0.047   6.904   4.464
 6935WAT     H221048   0.171   6.952   4.370
 6936WAT      O21049   9.578   1.044   4.802
 6936WAT     H121050   9.502   1.094   4.843
 6936WAT     H221051   9.591   1.075   4.708
 6937WAT      O21052   5.375   1.471   5.193
 6937WAT     H121053   5.380   1.524   5.278
 6937WAT     H221054   5.383   1.374   5.215
 6938WAT      O21055   8.415   1.371   1.574
 6938WAT     H121056   8.476   1.323   1.511
 6938WAT     H221057   8.325   1.380   1.533
 6939WAT      O21058   1.437   3.466   7.539
 6939WAT     H121059   1.340   3.489   7.542
 6939WAT     H221060   1.474   3.487   7.449
 6940WAT      O21061   3.312   2.129   2.209
 6940WAT     H121062   3.322   2.045   2.262
 6940WAT     H221063   3.266   2.199   2.264
 6941WAT      O21064   9.870   5.345   9.416
 6941WAT     H121065   9.901   5.250   9.419
 6941WAT     H221066   9.781   5.350   9.371
 6942WAT      O21067   1.043   6.969   8.471
 6942WAT     H121068   1.077   7.061   8.454
 6942WAT     H221069   0.956   6.956   8.423
 6943WAT      O21070   1.781   7.963   3.135
 6943WAT     H121071   1.874   7.930   3.120
 6943WAT     H221072   1.780   8.063   3.137
 6944WAT      O21073   0.913   5.890   0.010
 6944WAT     H121074   0.815   5.890  -0.007
 6944WAT     H221075   0.962   5.866  -0.075
 6945WAT      O21076   4.213   5.112   8.784
 6945WAT     H121077   4.244   5.032   8.732
 6945WAT     H221078   4.216   5.090   8.882
 6946WAT      O21079   1.571   4.998   4.871
 6946WAT     H121080   1.633   5.075   4.861
 6946WAT     H221081   1.480   5.031   4.894
 6947WAT      O21082   1.975   4.871   9.787
 6947WAT     H121083   1.957   4.920   9.702
 6947WAT     H221084   2.023   4.786   9.767
 6948WAT      O21085   1.964   2.469   5.655
 6948WAT     H121086   1.992   2.487   5.749
 6948WAT     H221087   1.868   2.441   5.652
 6949WAT      O21088   2.525   7.187   2.960
 6949WAT     H121089   2.476   7.204   2.874
 6949WAT     H221090   2.603   7.250   2.967
 6950WAT      O21091   4.494   2.944   9.815
 6950WAT     H121092   4.511   2.926   9.912
 6950WAT     H221093   4.396   2.960   9.801
 6951WAT      O21094   2.155   6.074   8.770
 6951WAT     H121095   2.127   6.155   8.719
 6951WAT     H221096   2.132   6.085   8.867
 6952WAT      O21097   5.755   5.890   8.846
 6952WAT     H121098   5.817   5.849   8.913
 6952WAT     H221099   5.669   5.839   8.845
 6953WAT      O21100   4.397   2.955   4.437
 6953WAT     H121101   4.456   2.944   4.517
 6953WAT     H221102   4.368   2.866   4.404
 6954WAT      O21103   9.518   6.711   0.451
 6954WAT     H121104   9.616   6.692   0.445
 6954WAT     H221105   9.472   6.670   0.372
 6955WAT      O21106   9.666   6.658   6.691
 6955WAT     H121107   9.608   6.583   6.723
 6955WAT     H221108   9.626   6.746   6.716
 6956WAT      O21109   6.703   4.382   9.437
 6956WAT     H121110   6.778   4.432   9.480
 6956WAT     H221111   6.623   4.385   9.496
 6957WAT      O21112   2.727   9.002   9.453
 6957WAT     H121113   2.648   9.061   9.471
 6957WAT     H221114   2.801   9.027   9.515
 6958WAT      O21115   0.696   8.143   4.073
 6958WAT     H121116   0.602   8.173   4.089
 6958WAT     H221117   0.751   8.158   4.155
 6959WAT      O21118   5.730   7.314   5.118
 6959WAT     H121119   5.741   7.293   5.216
 6959WAT     H221120   5.813   7.360   5.085
 6960WAT      O21121   1.844   7.503   2.746
 6960WAT     H121122   1.874   7.476   2.654
 6960WAT     H221123   1.745   7.498   2.751
 6961WAT      O21124   1.941   6.812   8.839
 6961WAT     H121125   1.986   6.739   8.787
 6961WAT     H221126   2.003   6.845   8.910
 6962WAT      O21127   1.454   8.034   6.587
 6962WAT     H121128   1.519   7.966   6.553
 6962WAT     H221129   1.399   8.069   6.511
 6963WAT      O21130   1.906   7.652   5.889
 6963WAT     H121131   1.982   7.712   5.862
 6963WAT     H221132   1.894   7.581   5.820
 6964WAT      O21133   7.429   5.254   0.595
 6964WAT     H121134   7.472   5.297   0.674
 6964WAT     H221135   7.456   5.301   0.512
 6965WAT      O21136   9.538   9.123   6.356
 6965WAT     H121137   9.579   9.129   6.447
 6965WAT     H221138   9.608   9.096   6.289
 6966WAT      O21139   8.195   7.715   3.801
 6966WAT     H121140   8.222   7.653   3.727
 6966WAT     H221141   8.099   7.741   3.790
 6967WAT      O21142   4.275   2.572   7.689
 6967WAT     H121143   4.221   2.622   7.622
 6967WAT     H221144   4.370   2.605   7.687
 6968WAT      O21145   1.590   1.220   4.540
 6968WAT     H121146   1.506   1.274   4.547
 6968WAT     H221147   1.663   1.266   4.591
 6969WAT      O21148   8.055   1.231   6.100
 6969WAT     H121149   8.008   1.218   6.187
 6969WAT     H221150   7.993   1.274   6.034
 6970WAT      O21151   4.530   5.033   6.299
 6970WAT     H121152   4.507   4.957   6.361
 6970WAT     H221153   4.507   5.008   6.205
 6971WAT      O21154   5.376   1.192   2.066
 6971WAT     H121155   5.398   1.245   2.148
 6971WAT     H221156   5.461   1.160   2.023
 6972WAT      O21157   4.917   3.319   9.197
 6972WAT     H121158   4.867   3.326   9.110
 6972WAT     H221159   4.852   3.298   9.271
 6973WAT      O21160   6.724   0.902   3.381
 6973WAT     H121161   6.656   0.922   3.310
 6973WAT     H221162   6.708   0.810   3.417
 6974WAT      O21163   1.081   8.541   6.921
 6974WAT     H121164   1.159   8.534   6.983
 6974WAT     H221165   1.101   8.610   6.850
 6975WAT      O21166   1.581   8.428   4.467
 6975WAT     H121167   1.665   8.374   4.468
 6975WAT     H221168   1.603   8.525   4.471
 6976WAT      O21169   6.129   9.822   0.758
 6976WAT     H121170   6.041   9.850   0.720
 6976WAT     H221171   6.140   9.860   0.850
 6977WAT      O21172   7.876   4.710   6.838
 6977WAT     H121173   7.778   4.694   6.846
 6977WAT     H221174   7.903   4.785   6.898
 6978WAT      O21175   3.220   5.085   5.556
 6978WAT     H121176   3.163   5.135   5.491
 6978WAT     H221177   3.299   5.142   5.582
 6979WAT      O21178   3.335   5.244   1.484
 6979WAT     H121179   3.362   5.335   1.451
 6979WAT     H221180   3.327   5.181   1.407
 6980WAT      O21181   9.037   2.604   6.950
 6980WAT     H121182   9.136   2.611   6.947
 6980WAT     H221183   9.009   2.514   6.917
 6981WAT      O21184   7.699   9.684   4.543
 6981WAT     H121185   7.756   9.687   4.461
 6981WAT     H221186   7.691   9.776   4.581
 6982WAT      O21187   7.145   3.493   0.917
 6982WAT     H121188   7.142   3.588   0.886
 6982WAT     H221189   7.223   3.447   0.874
 6983WAT      O21190   6.844   8.219   2.204
 6983WAT     H121191   6.825   8.224   2.302
 6983WAT     H221192   6.896   8.299   2.175
 6984WAT      O21193   0.698   5.066   4.878
 6984WAT     H121194   0.786   5.029   4.907
 6984WAT     H221195   0.666   5.018   4.797
 6985WAT      O21196   7.354   2.815   4.265
 6985WAT     H121197   7.303   2.744   4.312
 6985WAT     H221198   7.303   2.846   4.185
 6986WAT      O21199   4.546   5.849   4.832
 6986WAT     H121200   4.637   5.877   4.862
 6986WAT     H221201   4.495   5.813   4.911
 6987WAT      O21202   2.882   7.723   4.204
 6987WAT     H121203   2.873   7.760   4.296
 6987WAT     H221204   2.792   7.706   4.166
 6988WAT      O21205   2.905   3.748   1.820
 6988WAT     H121206   2.953   3.825   1.779
 6988WAT     H221207   2.813   3.742   1.782
 6989WAT      O21208   2.271   6.488   4.227
 6989WAT     H121209   2.289   6.546   4.307
 6989WAT     H221210   2.199   6.422   4.249
 6990WAT      O21211   5.039   2.234   5.231
 6990WAT     H121212   4.981   2.255   5.152
 6990WAT     H221213   5.098   2.312   5.250
 6991WAT      O21214   9.407   1.545   0.075
 6991WAT     H121215   9.396   1.626   0.018
 6991WAT     H221216   9.457   1.474   0.024
 6992WAT      O21217   5.698   8.355   6.826
 6992WAT     H121218   5.627   8.426   6.832
 6992WAT     H221219   5.763   8.366   6.901
 6993WAT      O21220   8.236   1.378   9.447
 6993WAT     H121221   8.207   1.420   9.533
 6993WAT     H221222   8.318   1.323   9.463
 6994WAT      O21223   0.083   0.806   5.085
 6994WAT     H121224   0.131   0.735   5.035
 6994WAT     H221225   0.077   0.888   5.028
 6995WAT      O21226   8.653   0.012   5.340
 6995WAT     H121227   8.721  -0.042   5.289
 6995WAT     H221228   8.564  -0.033   5.333
 6996WAT      O21229   1.079   1.383   2.237
 6996WAT     H121230   1.072   1.354   2.141
 6996WAT     H221231   1.156   1.447   2.247
 6997WAT      O21232   6.427   7.171   8.457
 6997WAT     H121233   6.428   7.079   8.496
 6997WAT     H221234   6.410   7.166   8.358
 6998WAT      O21235   5.567   2.668   2.306
 6998WAT     H121236   5.468   2.651   2.305
 6998WAT     H221237   5.597   2.687   2.399
 6999WAT      O21238   9.276   6.930   6.657
 6999WAT     H121239   9.308   6.985   6.734
 6999WAT     H221240   9.320   6.962   6.573
 7000WAT      O21241   2.413   4.456   3.117
 7000WAT     H121242   2.413   4.441   3.216
 7000WAT     H221243   2.502   4.431   3.080
 7001WAT      O21244   1.596   2.882   7.912
 7001WAT     H121245   1.669   2.815   7.899
 7001WAT     H221246   1.523   2.841   7.967
 7002WAT      O21247   2.707   3.159   9.640
 7002WAT     H121248   2.673   3.089   9.702
 7002WAT     H221249   2.680   3.137   9.546
 7003WAT      O21250   5.973   6.689   9.020
 7003WAT     H121251   5.966   6.642   9.108
 7003WAT     H221252   5.946   6.784   9.031
 7004WAT      O21253   9.267   2.074   7.896
 7004WAT     H121254   9.289   2.166   7.863
 7004WAT     H221255   9.198   2.080   7.969
 7005WAT      O21256   4.410   3.626   4.320
 7005WAT     H121257   4.314   3.641   4.296
 7005WAT     H221258   4.448   3.710   4.358
 7006WAT      O21259   4.395   1.294   2.862
 7006WAT     H121260   4.464   1.319   2.930
 7006WAT     H221261   4.332   1.227   2.902
 7007WAT      O21262   5.166   9.644   6.035
 7007WAT     H121263   5.261   9.628   6.062
 7007WAT     H221264   5.111   9.563   6.056
 7008WAT      O21265   9.711   5.547   8.367
 7008WAT     H121266   9.784   5.527   8.302
 7008WAT     H221267   9.712   5.479   8.441
 7009WAT      O21268   0.100   2.877   2.128
 7009WAT     H121269   0.173   2.816   2.160
 7009WAT     H221270   0.018   2.823   2.110
 7010WAT      O21271   1.940   1.229   2.905
 7010WAT     H121272   1.919   1.326   2.908
 7010WAT     H221273   2.037   1.216   2.885
 7011WAT      O21274   9.713   8.134   5.759
 7011WAT     H121275   9.664   8.061   5.807
 7011WAT     H221276   9.709   8.218   5.813
 7012WAT      O21277   8.871   0.232   6.882
 7012WAT     H121278   8.892   0.319   6.927
 7012WAT     H221279   8.823   0.172   6.945
 7013WAT      O21280   3.620   8.433   7.535
 7013WAT     H121281   3.663   8.343   7.542
 7013WAT     H221282   3.538   8.436   7.592
 7014WAT      O21283   3.879   4.259   7.101
 7014WAT     H121284   3.856   4.356   7.094
 7014WAT     H221285   3.798   4.207   7.128
 7015WAT      O21286   4.767   6.553   7.531
 7015WAT     H121287   4.783   6.650   7.518
 7015WAT     H221288   4.700   6.521   7.464
 7016WAT      O21289   7.604   1.626   5.629
 7016WAT     H121290   7.548   1.589   5.703
 7016WAT     H221291   7.610   1.725   5.637
 7017WAT      O21292   1.019   9.796   7.519
 7017WAT     H121293   1.041   9.890   7.547
 7017WAT     H221294   0.974   9.749   7.594
 7018WAT      O21295   2.971   7.489   7.786
 7018WAT     H121296   2.911   7.563   7.815
 7018WAT     H221297   2.939   7.452   7.698
 7019WAT      O21298   7.532   8.005   6.598
 7019WAT     H121299   7.486   7.923   6.633
 7019WAT     H221300   7.613   8.024   6.655
 7020WAT      O21301   9.194   9.302   6.595
 7020WAT     H121302   9.190   9.286   6.496
 7020WAT     H221303   9.256   9.236   6.637
 7021WAT      O21304   1.996   0.346   4.335
 7021WAT     H121305   1.966   0.283   4.264
 7021WAT     H221306   1.917   0.392   4.375
 7022WAT      O21307   3.708   0.258   6.270
 7022WAT     H121308   3.708   0.200   6.189
 7022WAT     H221309   3.676   0.206   6.349
 7023WAT      O21310   1.708   6.702   7.909
 7023WAT     H121311   1.669   6.685   7.999
 7023WAT     H221312   1.647   6.761   7.857
 7024WAT      O21313   6.076   7.174   7.166
 7024WAT     H121314   6.158   7.117   7.161
 7024WAT     H221315   6.002   7.122   7.208
 7025WAT      O21316   6.124   7.637   9.006
 7025WAT     H121317   6.167   7.590   8.929
 7025WAT     H221318   6.067   7.711   8.971
 7026WAT      O21319   3.698   0.212   4.542
 7026WAT     H121320   3.617   0.225   4.598
 7026WAT     H221321   3.697   0.277   4.466
 7027WAT      O21322   6.376   2.765   0.608
 7027WAT     H121323   6.388   2.666   0.610
 7027WAT     H221324   6.465   2.810   0.611
 7028WAT      O21325   8.060   6.498   3.734
 7028WAT     H121326   8.037   6.495   3.831
 7028WAT     H221327   7.985   6.460   3.681
 7029WAT      O21328   1.004   7.472   5.021
 7029WAT     H121329   1.068   7.469   4.944
 7029WAT     H221330   0.935   7.401   5.010
 7030WAT      O21331   5.814   9.058   5.988
 7030WAT     H121332   5.828   8.966   5.949
 7030WAT     H221333   5.824   9.126   5.916
 7031WAT      O21334   3.924   5.312   6.505
 7031WAT     H121335   3.986   5.266   6.441
 7031WAT     H221336   3.972   5.328   6.592
 7032WAT      O21337   0.555   7.629   8.309
 7032WAT     H121338   0.497   7.699   8.267
 7032WAT     H221339   0.565   7.648   8.407
 7033WAT      O21340   0.084   4.271   2.766
 7033WAT     H121341   0.102   4.219   2.682
 7033WAT     H221342   0.131   4.359   2.762
 7034WAT      O21343   9.562   1.276   2.350
 7034WAT     H121344   9.594   1.357   2.399
 7034WAT     H221345   9.494   1.228   2.406
 7035WAT      O21346   8.176   9.766   9.346
 7035WAT     H121347   8.249   9.789   9.281
 7035WAT     H221348   8.088   9.789   9.306
 7036WAT      O21349   2.024   7.845   4.245
 7036WAT     H121350   2.087   7.921   4.261
 7036WAT     H221351   1.931   7.881   4.233
 7037WAT      O21352   3.947   4.029   6.975
 7037WAT     H121353   3.957   4.043   6.876
 7037WAT     H221354   3.935   4.118   7.020
 7038WAT      O21355   8.698   4.154   1.389
 7038WAT     H121356   8.667   4.135   1.296
 7038WAT     H221357   8.762   4.083   1.418
 7039WAT      O21358   5.548   9.360   8.081
 7039WAT     H121359   5.620   9.418   8.042
 7039WAT     H221360   5.589   9.295   8.145
 7040WAT      O21361   5.591   2.467   5.498
 7040WAT     H121362   5.545   2.506   5.577
 7040WAT     H221363   5.533   2.477   5.417
 7041WAT      O21364   7.233   6.685   7.234
 7041WAT     H121365   7.238   6.631   7.318
 7041WAT     H221366   7.226   6.624   7.156
 7042WAT      O21367   4.041   2.600   4.991
 7042WAT     H121368   4.135   2.608   5.023
 7042WAT     H221369   4.039   2.601   4.891
 7043WAT      O21370   4.191   2.728   7.991
 7043WAT     H121371   4.159   2.741   8.085
 7043WAT     H221372   4.214   2.632   7.976
 7044WAT      O21373   2.368   2.194   0.418
 7044WAT     H121374   2.281   2.174   0.373
 7044WAT     H221375   2.403   2.282   0.386
 7045WAT      O21376   4.654   8.090   1.424
 7045WAT     H121377   4.641   8.181   1.464
 7045WAT     H221378   4.632   8.020   1.493
 7046WAT      O21379   0.818   1.917   8.274
 7046WAT     H121380   0.888   1.940   8.341
 7046WAT     H221381   0.814   1.989   8.203
 7047WAT      O21382   7.325   1.420   6.629
 7047WAT     H121383   7.399   1.454   6.686
 7047WAT     H221384   7.267   1.358   6.682
 7048WAT      O21385   4.578   6.329   0.788
 7048WAT     H121386   4.534   6.294   0.706
 7048WAT     H221387   4.533   6.414   0.816
 7049WAT      O21388   7.803   6.785   1.154
 7049WAT     H121389   7.745   6.845   1.099
 7049WAT     H221390   7.784   6.798   1.251
 7050WAT      O21391   1.570   6.209   9.190
 7050WAT     H121392   1.640   6.280   9.185
 7050WAT     H221393   1.612   6.122   9.214
 7051WAT      O21394   3.132   0.715   8.058
 7051WAT     H121395   3.202   0.680   8.120
 7051WAT     H221396   3.049   0.659   8.065
 7052WAT      O21397   9.047   2.015   8.066
 7052WAT     H121398   9.069   1.917   8.068
 7052WAT     H221399   9.072   2.056   8.154
 7053WAT      O21400   4.168   0.213   8.822
 7053WAT     H121401   4.140   0.167   8.738
 7053WAT     H221402   4.223   0.293   8.799
 7054WAT      O21403   8.125   8.600   0.307
 7054WAT     H121404   8.044   8.544   0.323
 7054WAT     H221405   8.130   8.672   0.377
 7055WAT      O21406   7.361   0.091   0.188
 7055WAT     H121407   7.438   0.148   0.215
 7055WAT     H221408   7.343   0.023   0.259
 7056WAT      O21409   0.545   4.813   8.020
 7056WAT     H121410   0.629   4.865   8.035
 7056WAT     H221411   0.568   4.722   7.987
 7057WAT      O21412   2.542   8.606   3.858
 7057WAT     H121413   2.490   8.593   3.942
 7057WAT     H221414   2.508   8.687   3.810
 7058WAT      O21415   0.195   2.808   8.855
 7058WAT     H121416   0.233   2.830   8.945
 7058WAT     H221417   0.141   2.724   8.862
 7059WAT      O21418   6.238   0.568   9.187
 7059WAT     H121419   6.159   0.630   9.188
 7059WAT     H221420   6.231   0.502   9.261
 7060WAT      O21421   3.854   9.116   4.489
 7060WAT     H121422   3.813   9.116   4.397
 7060WAT     H221423   3.876   9.209   4.516
 7061WAT      O21424   6.795   3.054   9.742
 7061WAT     H121425   6.726   3.126   9.736
 7061WAT     H221426   6.857   3.060   9.664
 7062WAT      O21427   2.421   1.451   6.105
 7062WAT     H121428   2.458   1.402   6.025
 7062WAT     H221429   2.480   1.435   6.184
 7063WAT      O21430   4.453   8.379   2.270
 7063WAT     H121431   4.448   8.343   2.177
 7063WAT     H221432   4.457   8.303   2.335
 7064WAT      O21433   8.177   3.578   7.968
 7064WAT     H121434   8.203   3.666   7.929
 7064WAT     H221435   8.220   3.567   8.058
 7065WAT      O21436   7.879   4.781   5.570
 7065WAT     H121437   7.933   4.828   5.501
 7065WAT     H221438   7.870   4.684   5.546
 7066WAT      O21439   9.153   5.271   2.450
 7066WAT     H121440   9.135   5.338   2.378
 7066WAT     H221441   9.244   5.232   2.438
 7067WAT      O21442   4.725   3.797   6.993
 7067WAT     H121443   4.675   3.789   7.078
 7067WAT     H221444   4.687   3.734   6.925
 7068WAT      O21445   3.821   3.288   3.758
 7068WAT     H121446   3.899   3.350   3.755
 7068WAT     H221447   3.824   3.236   3.844
 7069WAT      O21448   3.885   3.039   0.160
 7069WAT     H121449   3.846   3.083   0.079
 7069WAT     H221450   3.915   3.110   0.224
 7070WAT      O21451   0.086   6.753   6.130
 7070WAT     H121452   0.110   6.667   6.174
 7070WAT     H221453   0.153   6.823   6.154
 7071WAT      O21454   0.787   8.137   3.257
 7071WAT     H121455   0.740   8.217   3.292
 7071WAT     H221456   0.740   8.054   3.289
 7072WAT      O21457   9.356   1.029   0.329
 7072WAT     H121458   9.285   1.097   0.312
 7072WAT     H221459   9.315   0.943   0.359
 7073WAT      O21460   3.306   9.289   2.892
 7073WAT     H121461   3.245   9.213   2.914
 7073WAT     H221462   3.251   9.372   2.877
 7074WAT      O21463   4.417   1.415   7.107
 7074WAT     H121464   4.465   1.497   7.076
 7074WAT     H221465   4.456   1.335   7.062
 7075WAT      O21466   8.119   1.831   9.000
 7075WAT     H121467   8.134   1.734   8.983
 7075WAT     H221468   8.094   1.844   9.096
 7076WAT      O21469   4.785   3.232   3.438
 7076WAT     H121470   4.770   3.144   3.484
 7076WAT     H221471   4.699   3.262   3.396
 7077WAT      O21472   7.138   7.812   4.679
 7077WAT     H121473   7.213   7.746   4.671
 7077WAT     H221474   7.176   7.903   4.697
 7078WAT      O21475   8.673   9.132   9.181
 7078WAT     H121476   8.663   9.231   9.192
 7078WAT     H221477   8.598   9.086   9.229
 7079WAT      O21478   1.254   1.589   2.798
 7079WAT     H121479   1.311   1.661   2.838
 7079WAT     H221480   1.247   1.603   2.699
 7080WAT      O21481   1.784   5.421   4.733
 7080WAT     H121482   1.764   5.512   4.699
 7080WAT     H221483   1.836   5.370   4.664
 7081WAT      O21484   5.609   4.002   2.939
 7081WAT     H121485   5.564   4.024   2.852
 7081WAT     H221486   5.692   4.056   2.948
 7082WAT      O21487   4.759   5.707   3.338
 7082WAT     H121488   4.694   5.783   3.346
 7082WAT     H221489   4.711   5.625   3.307
 7083WAT      O21490   0.299   6.626   9.877
 7083WAT     H121491   0.267   6.637   9.783
 7083WAT     H221492   0.325   6.530   9.892
 7084WAT      O21493   7.251   1.742   8.265
 7084WAT     H121494   7.348   1.765   8.253
 7084WAT     H221495   7.194   1.819   8.236
 7085WAT      O21496   6.064   0.128   5.389
 7085WAT     H121497   6.074   0.148   5.292
 7085WAT     H221498   5.994   0.058   5.403
 7086WAT      O21499   7.593   1.793   0.270
 7086WAT     H121500   7.495   1.810   0.265
 7086WAT     H221501   7.622   1.791   0.366
 7087WAT      O21502   0.560   4.631   7.519
 7087WAT     H121503   0.590   4.595   7.431
 7087WAT     H221504   0.573   4.562   7.590
 7088WAT      O21505   7.550   8.634   5.124
 7088WAT     H121506   7.618   8.571   5.086
 7088WAT     H221507   7.573   8.728   5.100
 7089WAT      O21508   4.916   8.498   1.493
 7089WAT     H121509   4.953   8.438   1.564
 7089WAT     H221510   4.933   8.593   1.517
 7090WAT      O21511   2.530   2.633   8.969
 7090WAT     H121512   2.463   2.572   8.928
 7090WAT     H221513   2.585   2.583   9.036
 7091WAT      O21514   5.868   7.984   7.959
 7091WAT     H121515   5.772   8.006   7.975
 7091WAT     H221516   5.902   8.037   7.882
 7092WAT      O21517   5.750   2.325   2.466
 7092WAT     H121518   5.810   2.372   2.531
 7092WAT     H221519   5.654   2.342   2.490
 7093WAT      O21520   9.843   2.248   0.762
 7093WAT     H121521   9.830   2.342   0.732
 7093WAT     H221522   9.828   2.185   0.686
 7094WAT      O21523   4.053   8.775   2.873
 7094WAT     H121524   4.060   8.694   2.815
 7094WAT     H221525   3.965   8.774   2.921
 7095WAT      O21526   1.175   4.361   5.607
 7095WAT     H121527   1.085   4.338   5.644
 7095WAT     H221528   1.164   4.412   5.522
 7096WAT      O21529   6.273   0.560   4.809
 7096WAT     H121530   6.250   0.657   4.808
 7096WAT     H221531   6.309   0.533   4.719
 7097WAT      O21532   6.362   5.874   8.803
 7097WAT     H121533   6.360   5.775   8.792
 7097WAT     H221534   6.435   5.899   8.866
 7098WAT      O21535   8.550   8.582   5.266
 7098WAT     H121536   8.606   8.659   5.236
 7098WAT     H221537   8.561   8.506   5.202
 7099WAT      O21538   8.285   3.343   8.472
 7099WAT     H121539   8.320   3.408   8.539
 7099WAT     H221540   8.361   3.308   8.416
 7100WAT      O21541   0.482   9.233   8.150
 7100WAT     H121542   0.578   9.259   8.151
 7100WAT     H221543   0.426   9.312   8.123
 7101WAT      O21544   4.482   7.943   9.683
 7101WAT     H121545   4.505   7.902   9.771
 7101WAT     H221546   4.389   7.918   9.657
 7102WAT      O21547   1.395   0.773   5.122
 7102WAT     H121548   1.335   0.765   5.201
 7102WAT     H221549   1.345   0.749   5.039
 7103WAT      O21550   1.253   0.085   0.033
 7103WAT     H121551   1.196   0.028   0.092
 7103WAT     H221552   1.223   0.074  -0.062
 7104WAT      O21553   8.610   1.704   4.770
 7104WAT     H121554   8.674   1.629   4.755
 7104WAT     H221555   8.657   1.780   4.816
 7105WAT      O21556   7.141   4.621   6.226
 7105WAT     H121557   7.091   4.578   6.151
 7105WAT     H221558   7.218   4.563   6.252
 7106WAT      O21559   5.540   9.697   5.271
 7106WAT     H121560   5.452   9.717   5.227
 7106WAT     H221561   5.525   9.667   5.365
 7107WAT      O21562   0.497   7.798   1.449
 7107WAT     H121563   0.555   7.719   1.465
 7107WAT     H221564   0.451   7.824   1.534
 7108WAT      O21565   6.587   4.734   1.875
 7108WAT     H121566   6.655   4.713   1.946
 7108WAT     H221567   6.629   4.787   1.802
 7109WAT      O21568   7.752   0.015   0.252
 7109WAT     H121569   7.720   0.074   0.179
 7109WAT     H221570   7.810   0.068   0.314
 7110WAT      O21571   9.722   3.326   7.132
 7110WAT     H121572   9.784   3.361   7.202
 7110WAT     H221573   9.775   3.288   7.056
 7111WAT      O21574   7.471   0.684   8.989
 7111WAT     H121575   7.432   0.664   8.899
 7111WAT     H221576   7.409   0.651   9.060
 7112WAT      O21577   8.147   6.671   2.460
 7112WAT     H121578   8.067   6.704   2.410
 7112WAT     H221579   8.205   6.749   2.485
 7113WAT      O21580   6.247   1.293   2.308
 7113WAT     H121581   6.288   1.250   2.388
 7113WAT     H221582   6.317   1.313   2.240
 7114WAT      O21583   2.721   4.327   0.197
 7114WAT     H121584   2.814   4.311   0.229
 7114WAT     H221585   2.682   4.408   0.243
 7115WAT      O21586   3.655   6.839   5.814
 7115WAT     H121587   3.696   6.909   5.873
 7115WAT     H221588   3.690   6.850   5.721
 7116WAT      O21589   6.829   2.174   5.520
 7116WAT     H121590   6.793   2.141   5.432
 7116WAT     H221591   6.762   2.157   5.591
 7117WAT      O21592   5.498   8.288   4.853
 7117WAT     H121593   5.578   8.332   4.892
 7117WAT     H221594   5.527   8.208   4.799
 7118WAT      O21595   4.544   4.498   1.630
 7118WAT     H121596   4.589   4.579   1.592
 7118WAT     H221597   4.467   4.526   1.688
 7119WAT      O21598   4.436   4.703   9.005
 7119WAT     H121599   4.534   4.694   8.988
 7119WAT     H221600   4.418   4.689   9.102
 7120WAT      O21601   2.873   1.342   5.816
 7120WAT     H121602   2.928   1.403   5.873
 7120WAT     H221603   2.888   1.248   5.845
 7121WAT      O21604   9.482   6.653   8.240
 7121WAT     H121605   9.463   6.728   8.177
 7121WAT     H221606   9.417   6.655   8.316
 7122WAT      O21607   5.769   1.157   3.203
 7122WAT     H121608   5.810   1.203   3.282
 7122WAT     H221609   5.834   1.089   3.167
 7123WAT      O21610   3.690   3.704   8.181
 7123WAT     H121611   3.662   3.796   8.154
 7123WAT     H221612   3.741   3.661   8.107
 7124WAT      O21613   1.641   6.364   6.411
 7124WAT     H121614   1.653   6.266   6.427
 7124WAT     H221615   1.626   6.381   6.314
 7125WAT      O21616   2.837   1.746   2.570
 7125WAT     H121617   2.833   1.810   2.493
 7125WAT     H221618   2.745   1.714   2.592
 7126WAT      O21619   0.592   9.821   5.249
 7126WAT     H121620   0.544   9.887   5.307
 7126WAT     H221621   0.690   9.836   5.257
 7127WAT      O21622   1.946   4.545   4.159
 7127WAT     H121623   1.971   4.511   4.250
 7127WAT     H221624   1.898   4.632   4.169
 7128WAT      O21625   3.928   7.327   9.860
 7128WAT     H121626   3.927   7.392   9.784
 7128WAT     H221627   3.975   7.244   9.832
 7129WAT      O21628   2.398   8.570   2.942
 7129WAT     H121629   2.324   8.636   2.933
 7129WAT     H221630   2.479   8.604   2.897
 7130WAT      O21631   9.213   0.693   6.486
 7130WAT     H121632   9.146   0.750   6.436
 7130WAT     H221633   9.244   0.742   6.567
 7131WAT      O21634   6.926   2.463   1.496
 7131WAT     H121635   6.898   2.384   1.441
 7131WAT     H221636   7.016   2.444   1.537
 7132WAT      O21637   8.514   4.672   6.033
 7132WAT     H121638   8.574   4.592   6.022
 7132WAT     H221639   8.516   4.726   5.949
 7133WAT      O21640   8.283   7.483   3.347
 7133WAT     H121641   8.242   7.395   3.323
 7133WAT     H221642   8.308   7.532   3.264
 7134WAT      O21643   9.876   2.661   9.806
 7134WAT     H121644   9.866   2.745   9.754
 7134WAT     H221645   9.922   2.681   9.893
 7135WAT      O21646   3.132   3.056   8.253
 7135WAT     H121647   3.057   3.120   8.273
 7135WAT     H221648   3.219   3.099   8.276
 7136WAT      O21649   6.113   4.213   5.873
 7136WAT     H121650   6.093   4.157   5.954
 7136WAT     H221651   6.027   4.247   5.835
 7137WAT      O21652   1.649   2.533   5.037
 7137WAT     H121653   1.584   2.502   5.106
 7137WAT     H221654   1.647   2.632   5.031
 7138WAT      O21655   2.156   3.754   0.529
 7138WAT     H121656   2.248   3.715   0.525
 7138WAT     H221657   2.143   3.799   0.617
 7139WAT      O21658   7.918   6.231   4.256
 7139WAT     H121659   7.931   6.221   4.354
 7139WAT     H221660   7.865   6.314   4.238
 7140WAT      O21661   3.285   5.515   2.270
 7140WAT     H121662   3.284   5.562   2.358
 7140WAT     H221663   3.299   5.417   2.285
 7141WAT      O21664   6.119   7.173   7.481
 7141WAT     H121665   6.055   7.234   7.434
 7141WAT     H221666   6.184   7.228   7.534
 7142WAT      O21667   8.472   0.206   6.063
 7142WAT     H121668   8.564   0.170   6.044
 7142WAT     H221669   8.479   0.287   6.121
 7143WAT      O21670   5.730   8.851   3.415
 7143WAT     H121671   5.725   8.824   3.319
 7143WAT     H221672   5.718   8.951   3.422
 7144WAT      O21673   8.973   8.561   1.213
 7144WAT     H121674   9.050   8.534   1.155
 7144WAT     H221675   8.904   8.488   1.212
 7145WAT      O21676   1.841   0.773   5.540
 7145WAT     H121677   1.848   0.774   5.440
 7145WAT     H221678   1.810   0.863   5.571
 7146WAT      O21679   9.736   0.674   0.582
 7146WAT     H121680   9.665   0.722   0.531
 7146WAT     H221681   9.694   0.609   0.645
 7147WAT      O21682   5.951   0.251   7.360
 7147WAT     H121683   6.022   0.253   7.429
 7147WAT     H221684   5.989   0.220   7.273
 7148WAT      O21685   9.199   0.079   1.115
 7148WAT     H121686   9.240   0.169   1.129
 7148WAT     H221687   9.214   0.023   1.196
 7149WAT      O21688   7.288   6.632   1.210
 7149WAT     H121689   7.231   6.713   1.198
 7149WAT     H221690   7.367   6.637   1.149
 7150WAT      O21691   5.038   7.416   1.314
 7150WAT     H121692   5.043   7.408   1.215
 7150WAT     H221693   4.943   7.429   1.343
 7151WAT      O21694   8.291   7.824   5.591
 7151WAT     H121695   8.376   7.801   5.544
 7151WAT     H221696   8.281   7.767   5.672
 7152WAT      O21697   4.557   1.002   3.569
 7152WAT     H121698   4.628   0.977   3.503
 7152WAT     H221699   4.551   0.932   3.640
 7153WAT      O21700   3.354   1.410   7.409
 7153WAT     H121701   3.344   1.425   7.508
 7153WAT     H221702   3.350   1.312   7.389
 7154WAT      O21703   1.687   1.972   0.925
 7154WAT     H121704   1.722   1.930   0.841
 7154WAT     H221705   1.587   1.980   0.918
 7155WAT      O21706   1.389   6.366   9.788
 7155WAT     H121707   1.470   6.393   9.841
 7155WAT     H221708   1.357   6.445   9.735
 7156WAT      O21709   5.738   6.422   3.771
 7156WAT     H121710   5.807   6.491   3.749
 7156WAT     H221711   5.685   6.401   3.688
 7157WAT      O21712   7.964   8.004   6.631
 7157WAT     H121713   8.028   8.079   6.612
 7157WAT     H221714   7.974   7.934   6.560
 7158WAT      O21715   5.476   5.169   8.292
 7158WAT     H121716   5.476   5.080   8.338
 7158WAT     H221717   5.388   5.183   8.247
 7159WAT      O21718   0.973   0.493   3.020
 7159WAT     H121719   0.879   0.502   3.052
 7159WAT     H221720   1.018   0.582   3.019
 7160WAT      O21721   2.005   7.971   0.038
 7160WAT     H121722   1.974   7.927  -0.047
 7160WAT     H221723   2.048   8.058   0.016
 7161WAT      O21724   0.010   2.267   7.339
 7161WAT     H121725   0.094   2.310   7.304
 7161WAT     H221726  -0.068   2.327   7.320
 7162WAT      O21727   5.148   2.179   5.949
 7162WAT     H121728   5.195   2.186   5.861
 7162WAT     H221729   5.193   2.237   6.016
 7163WAT      O21730   7.246   4.927   6.373
 7163WAT     H121731   7.276   4.989   6.446
 7163WAT     H221732   7.177   4.865   6.408
 7164WAT      O21733   5.869   4.498   0.581
 7164WAT     H121734   5.838   4.490   0.487
 7164WAT     H221735   5.853   4.412   0.630
 7165WAT      O21736   3.077   5.798   0.809
 7165WAT     H121737   3.000   5.803   0.746
 7165WAT     H221738   3.047   5.822   0.901
 7166WAT      O21739   3.665   8.840   4.574
 7166WAT     H121740   3.710   8.859   4.487
 7166WAT     H221741   3.597   8.911   4.593
 7167WAT      O21742   0.800   4.552   4.040
 7167WAT     H121743   0.794   4.604   3.955
 7167WAT     H221744   0.846   4.607   4.110
 7168WAT      O21745   2.777   0.159   1.746
 7168WAT     H121746   2.702   0.224   1.734
 7168WAT     H221747   2.751   0.071   1.708
 7169WAT      O21748   6.722   6.059   5.871
 7169WAT     H121749   6.679   6.120   5.804
 7169WAT     H221750   6.744   5.972   5.827
 7170WAT      O21751   4.425   1.475   3.994
 7170WAT     H121752   4.344   1.528   3.971
 7170WAT     H221753   4.426   1.390   3.941
 7171WAT      O21754   6.971   9.298   9.616
 7171WAT     H121755   6.980   9.303   9.516
 7171WAT     H221756   7.006   9.210   9.648
 7172WAT      O21757   6.321   7.980   1.251
 7172WAT     H121758   6.329   7.959   1.153
 7172WAT     H221759   6.371   7.910   1.303
 7173WAT      O21760   9.064   8.681   2.378
 7173WAT     H121761   9.112   8.731   2.306
 7173WAT     H221762   9.051   8.741   2.457
 7174WAT      O21763   8.726   7.238   1.466
 7174WAT     H121764   8.628   7.218   1.457
 7174WAT     H221765   8.769   7.236   1.375
 7175WAT      O21766   1.190   3.128   7.706
 7175WAT     H121767   1.277   3.172   7.683
 7175WAT     H221768   1.206   3.058   7.776
 7176WAT      O21769   0.844   0.551   8.489
 7176WAT     H121770   0.869   0.511   8.400
 7176WAT     H221771   0.908   0.518   8.558
 7177WAT      O21772   2.743   0.232   3.987
 7177WAT     H121773   2.739   0.332   3.991
 7177WAT     H221774   2.650   0.195   3.977
 7178WAT      O21775   4.097   2.949   9.231
 7178WAT     H121776   4.128   2.917   9.142
 7178WAT     H221777   4.174   2.948   9.295
 7179WAT      O21778   2.130   4.621   0.554
 7179WAT     H121779   2.152   4.717   0.568
 7179WAT     H221780   2.118   4.576   0.642
 7180WAT      O21781   2.313   5.135   4.959
 7180WAT     H121782   2.293   5.233   4.946
 7180WAT     H221783   2.408   5.117   4.933
 7181WAT      O21784   8.770   2.507   6.626
 7181WAT     H121785   8.743   2.414   6.602
 7181WAT     H221786   8.723   2.535   6.709
 7182WAT      O21787   7.263   8.352   2.367
 7182WAT     H121788   7.242   8.255   2.378
 7182WAT     H221789   7.360   8.368   2.387
 7183WAT      O21790   5.527   3.256   6.608
 7183WAT     H121791   5.482   3.273   6.520
 7183WAT     H221792   5.562   3.343   6.644
 7184WAT      O21793   8.904   3.266   0.744
 7184WAT     H121794   8.993   3.241   0.783
 7184WAT     H221795   8.833   3.212   0.789
 7185WAT      O21796   4.825   6.316   5.128
 7185WAT     H121797   4.778   6.301   5.041
 7185WAT     H221798   4.919   6.344   5.110
 7186WAT      O21799   3.251   4.569   7.135
 7186WAT     H121800   3.176   4.633   7.121
 7186WAT     H221801   3.215   4.479   7.157
 7187WAT      O21802   4.538   3.055   2.083
 7187WAT     H121803   4.530   3.010   2.172
 7187WAT     H221804   4.464   3.122   2.073
 7188WAT      O21805   1.670   4.557   2.286
 7188WAT     H121806   1.578   4.597   2.282
 7188WAT     H221807   1.680   4.490   2.212
 7189WAT      O21808   7.899   7.462   2.291
 7189WAT     H121809   7.888   7.469   2.191
 7189WAT     H221810   7.993   7.436   2.312
 7190WAT      O21811   6.546   5.537   8.684
 7190WAT     H121812   6.532   5.474   8.608
 7190WAT     H221813   6.627   5.592   8.668
 7191WAT      O21814   3.529   2.371   1.996
 7191WAT     H121815   3.480   2.285   1.982
 7191WAT     H221816   3.494   2.417   2.077
 7192WAT      O21817   9.230   3.826   0.410
 7192WAT     H121818   9.186   3.835   0.321
 7192WAT     H221819   9.329   3.829   0.399
 7193WAT      O21820   8.779   9.189   9.597
 7193WAT     H121821   8.845   9.163   9.667
 7193WAT     H221822   8.829   9.222   9.516
 7194WAT      O21823   0.999   5.765   4.113
 7194WAT     H121824   0.989   5.813   4.200
 7194WAT     H221825   0.911   5.723   4.087
 7195WAT      O21826   7.864   1.701   8.764
 7195WAT     H121827   7.847   1.799   8.753
 7195WAT     H221828   7.962   1.686   8.778
 7196WAT      O21829   4.355   3.972   6.973
 7196WAT     H121830   4.283   3.912   7.009
 7196WAT     H221831   4.334   3.995   6.878
 7197WAT      O21832   6.720   9.562   7.716
 7197WAT     H121833   6.695   9.612   7.633
 7197WAT     H221834   6.804   9.600   7.754
 7198WAT      O21835   9.437   8.132   6.049
 7198WAT     H121836   9.501   8.162   6.119
 7198WAT     H221837   9.485   8.073   5.984
 7199WAT      O21838   6.362   4.445   1.509
 7199WAT     H121839   6.437   4.466   1.571
 7199WAT     H221840   6.387   4.473   1.416
 7200WAT      O21841   4.652   2.681   7.275
 7200WAT     H121842   4.688   2.772   7.294
 7200WAT     H221843   4.713   2.612   7.314
 7201WAT      O21844   6.167   9.507   4.452
 7201WAT     H121845   6.189   9.537   4.360
 7201WAT     H221846   6.155   9.408   4.453
 7202WAT      O21847   2.583   4.134   7.584
 7202WAT     H121848   2.566   4.233   7.583
 7202WAT     H221849   2.535   4.091   7.508
 7203WAT      O21850   8.663   6.655   4.403
 7203WAT     H121851   8.583   6.656   4.343
 7203WAT     H221852   8.698   6.562   4.411
 7204WAT      O21853   1.495   3.750   6.954
 7204WAT     H121854   1.568   3.772   6.889
 7204WAT     H221855   1.415   3.719   6.905
 7205WAT      O21856   4.072   6.993   8.737
 7205WAT     H121857   3.984   7.028   8.704
 7205WAT     H221858   4.056   6.927   8.810
 7206WAT      O21859   1.889   1.445   8.531
 7206WAT     H121860   1.869   1.452   8.433
 7206WAT     H221861   1.973   1.496   8.551
 7207WAT      O21862   8.521   4.423   6.362
 7207WAT     H121863   8.437   4.474   6.382
 7207WAT     H221864   8.600   4.483   6.371
 7208WAT      O21865   7.596   1.271   6.004
 7208WAT     H121866   7.687   1.304   5.978
 7208WAT     H221867   7.536   1.272   5.924
 7209WAT      O21868   3.210   5.641   1.554
 7209WAT     H121869   3.216   5.741   1.544
 7209WAT     H221870   3.118   5.611   1.529
 7210WAT      O21871   4.126   4.083   5.474
 7210WAT     H121872   4.041   4.063   5.425
 7210WAT     H221873   4.188   4.004   5.466
 7211WAT      O21874   1.665   2.722   8.563
 7211WAT     H121875   1.728   2.715   8.485
 7211WAT     H221876   1.575   2.689   8.535
 7212WAT      O21877   7.213   3.189   7.631
 7212WAT     H121878   7.300   3.232   7.652
 7212WAT     H221879   7.213   3.094   7.662
 7213WAT      O21880   2.485   6.770   1.289
 7213WAT     H121881   2.525   6.761   1.198
 7213WAT     H221882   2.553   6.809   1.351
 7214WAT      O21883   3.556   4.192   0.100
 7214WAT     H121884   3.562   4.164   0.196
 7214WAT     H221885   3.467   4.234   0.083
 7215WAT      O21886   2.526   6.781   0.982
 7215WAT     H121887   2.513   6.685   0.957
 7215WAT     H221888   2.444   6.833   0.959
 7216WAT      O21889   6.218   9.346   2.775
 7216WAT     H121890   6.206   9.250   2.802
 7216WAT     H221891   6.303   9.355   2.722
 7217WAT      O21892   2.743   1.826   3.265
 7217WAT     H121893   2.801   1.783   3.196
 7217WAT     H221894   2.776   1.919   3.281
 7218WAT      O21895   2.612   0.099   4.220
 7218WAT     H121896   2.533   0.037   4.227
 7218WAT     H221897   2.677   0.061   4.154
 7219WAT      O21898   3.119   6.404   6.837
 7219WAT     H121899   3.156   6.431   6.926
 7219WAT     H221900   3.154   6.466   6.767
 7220WAT      O21901   4.761   6.935   3.997
 7220WAT     H121902   4.784   6.861   4.059
 7220WAT     H221903   4.844   6.972   3.956
 7221WAT      O21904   2.930   8.408   0.031
 7221WAT     H121905   2.996   8.435   0.101
 7221WAT     H221906   2.947   8.459  -0.053
 7222WAT      O21907   2.246   4.649   0.061
 7222WAT     H121908   2.237   4.610   0.153
 7222WAT     H221909   2.255   4.748   0.067
 7223WAT      O21910   0.546   6.942   0.899
 7223WAT     H121911   0.520   7.026   0.852
 7223WAT     H221912   0.488   6.930   0.980
 7224WAT      O21913   6.286   1.027   0.700
 7224WAT     H121914   6.195   1.065   0.719
 7224WAT     H221915   6.334   1.012   0.787
 7225WAT      O21916   5.392   0.800   9.066
 7225WAT     H121917   5.417   0.760   8.978
 7225WAT     H221918   5.306   0.760   9.098
 7226WAT      O21919   0.776   9.092   9.873
 7226WAT     H121920   0.708   9.163   9.856
 7226WAT     H221921   0.867   9.128   9.851
 7227WAT      O21922   5.498   9.669   5.521
 7227WAT     H121923   5.407   9.661   5.562
 7227WAT     H221924   5.551   9.587   5.541
 7228WAT      O21925   3.770   1.110   3.396
 7228WAT     H121926   3.824   1.193   3.382
 7228WAT     H221927   3.831   1.031   3.398
 7229WAT      O21928   4.377   9.082   8.718
 7229WAT     H121929   4.385   8.982   8.717
 7229WAT     H221930   4.300   9.110   8.660
 7230WAT      O21931   9.887   2.883   9.159
 7230WAT     H121932   9.871   2.914   9.253
 7230WAT     H221933   9.913   2.786   9.159
 7231WAT      O21934   0.040   2.633   7.085
 7231WAT     H121935   0.054   2.534   7.083
 7231WAT     H221936  -0.054   2.654   7.059
 7232WAT      O21937   6.240   7.889   7.937
 7232WAT     H121938   6.189   7.881   8.023
 7232WAT     H221939   6.278   7.800   7.911
 7233WAT      O21940   7.020   8.547   9.743
 7233WAT     H121941   6.955   8.623   9.749
 7233WAT     H221942   7.103   8.579   9.696
 7234WAT      O21943   3.417   6.619   1.388
 7234WAT     H121944   3.345   6.555   1.360
 7234WAT     H221945   3.501   6.568   1.407
 7235WAT      O21946   4.025   9.446   0.358
 7235WAT     H121947   4.029   9.518   0.289
 7235WAT     H221948   3.961   9.375   0.329
 7236WAT      O21949   7.638   7.534   7.528
 7236WAT     H121950   7.551   7.538   7.576
 7236WAT     H221951   7.626   7.485   7.441
 7237WAT      O21952   8.641   7.669   5.682
 7237WAT     H121953   8.590   7.726   5.617
 7237WAT     H221954   8.728   7.642   5.641
 7238WAT      O21955   5.330   7.460   7.761
 7238WAT     H121956   5.359   7.405   7.840
 7238WAT     H221957   5.405   7.464   7.695
 7239WAT      O21958   4.394   2.705   4.897
 7239WAT     H121959   4.349   2.672   4.980
 7239WAT     H221960   4.444   2.789   4.917
 7240WAT      O21961   0.263   5.530   9.175
 7240WAT     H121962   0.180   5.542   9.120
 7240WAT     H221963   0.238   5.525   9.271
 7241WAT      O21964   1.899   1.512   1.092
 7241WAT     H121965   1.820   1.452   1.105
 7241WAT     H221966   1.869   1.599   1.055
 7242WAT      O21967   7.838   4.202   8.527
 7242WAT     H121968   7.793   4.192   8.438
 7242WAT     H221969   7.803   4.283   8.573
 7243WAT      O21970   6.102   0.516   3.565
 7243WAT     H121971   6.027   0.521   3.499
 7243WAT     H221972   6.165   0.443   3.539
 7244WAT      O21973   7.432   3.113   4.265
 7244WAT     H121974   7.498   3.079   4.198
 7244WAT     H221975   7.434   3.054   4.346
 7245WAT      O21976   0.382   0.738   6.286
 7245WAT     H121977   0.317   0.684   6.338
 7245WAT     H221978   0.334   0.795   6.220
 7246WAT      O21979   4.578   2.926   4.636
 7246WAT     H121980   4.602   3.017   4.669
 7246WAT     H221981   4.644   2.860   4.670
 7247WAT      O21982   1.794   5.399   6.156
 7247WAT     H121983   1.769   5.477   6.214
 7247WAT     H221984   1.875   5.355   6.194
 7248WAT      O21985   1.366   3.034   4.094
 7248WAT     H121986   1.340   2.996   4.006
 7248WAT     H221987   1.459   3.071   4.089
 7249WAT      O21988   3.522   1.058   7.999
 7249WAT     H121989   3.617   1.049   7.970
 7249WAT     H221990   3.481   0.968   8.010
 7250WAT      O21991   4.522   8.717   1.655
 7250WAT     H121992   4.588   8.719   1.731
 7250WAT     H221993   4.526   8.804   1.605
 7251WAT      O21994   3.243   0.661   1.116
 7251WAT     H121995   3.293   0.637   1.199
 7251WAT     H221996   3.154   0.616   1.116
 7252WAT      O21997   8.096   1.831   5.584
 7252WAT     H121998   8.089   1.905   5.517
 7252WAT     H221999   8.022   1.840   5.650
 7253WAT      O22000   9.048   2.563   3.171
 7253WAT     H122001   9.147   2.561   3.156
 7253WAT     H222002   9.004   2.497   3.110
 7254WAT      O22003   5.595   3.930   7.265
 7254WAT     H122004   5.522   3.932   7.197
 7254WAT     H222005   5.588   3.846   7.318
 7255WAT      O22006   7.341   2.325   2.914
 7255WAT     H122007   7.378   2.257   2.850
 7255WAT     H222008   7.308   2.404   2.864
 7256WAT      O22009   2.984   0.126   0.588
 7256WAT     H122010   2.899   0.075   0.595
 7256WAT     H222011   2.977   0.210   0.642
 7257WAT      O22012   9.109   8.392   8.192
 7257WAT     H122013   9.205   8.401   8.217
 7257WAT     H222014   9.052   8.401   8.274
 7258WAT      O22015   0.751   5.073   8.256
 7258WAT     H122016   0.719   5.011   8.328
 7258WAT     H222017   0.688   5.149   8.246
 7259WAT      O22018   5.115   3.180   7.631
 7259WAT     H122019   5.021   3.167   7.663
 7259WAT     H222020   5.171   3.103   7.662
 7260WAT      O22021   1.076   1.722   6.702
 7260WAT     H122022   1.144   1.753   6.768
 7260WAT     H222023   1.122   1.677   6.625
 7261WAT      O22024   0.410   6.354   5.638
 7261WAT     H122025   0.441   6.449   5.637
 7261WAT     H222026   0.486   6.294   5.611
 7262WAT      O22027   0.671   1.678   6.473
 7262WAT     H122028   0.760   1.633   6.465
 7262WAT     H222029   0.599   1.608   6.476
 7263WAT      O22030   3.305   7.259   2.489
 7263WAT     H122031   3.302   7.159   2.483
 7263WAT     H222032   3.382   7.286   2.547
 7264WAT      O22033   5.419   1.517   7.895
 7264WAT     H122034   5.492   1.557   7.839
 7264WAT     H222035   5.458   1.447   7.955
 7265WAT      O22036   9.755   3.876   0.941
 7265WAT     H122037   9.669   3.856   0.894
 7265WAT     H222038   9.814   3.930   0.881
 7266WAT      O22039   2.336   9.829   7.284
 7266WAT     H122040   2.289   9.765   7.223
 7266WAT     H222041   2.428   9.795   7.303
 7267WAT      O22042   2.279   5.356   8.639
 7267WAT     H122043   2.225   5.287   8.591
 7267WAT     H222044   2.254   5.356   8.736
 7268WAT      O22045   9.736   0.349   9.538
 7268WAT     H122046   9.767   0.353   9.633
 7268WAT     H222047   9.636   0.341   9.536
 7269WAT      O22048   7.555   6.561   5.357
 7269WAT     H122049   7.584   6.465   5.352
 7269WAT     H222050   7.526   6.582   5.450
 7270WAT      O22051   8.559   1.966   0.503
 7270WAT     H122052   8.478   2.008   0.544
 7270WAT     H222053   8.535   1.925   0.415
 7271WAT      O22054   4.797   1.507   1.039
 7271WAT     H122055   4.874   1.571   1.031
 7271WAT     H222056   4.763   1.509   1.133
 7272WAT      O22057   5.628   5.595   4.018
 7272WAT     H122058   5.651   5.689   4.040
 7272WAT     H222059   5.709   5.538   4.027
 7273WAT      O22060   6.941   7.098   6.637
 7273WAT     H122061   6.878   7.157   6.586
 7273WAT     H222062   6.965   7.019   6.581
 7274WAT      O22063   2.050   9.407   5.356
 7274WAT     H122064   2.144   9.438   5.339
 7274WAT     H222065   2.052   9.327   5.416
 7275WAT      O22066   1.113   9.246   5.535
 7275WAT     H122067   1.105   9.159   5.487
 7275WAT     H222068   1.166   9.310   5.480
 7276WAT      O22069   4.790   8.807   3.694
 7276WAT     H122070   4.884   8.843   3.695
 7276WAT     H222071   4.727   8.877   3.728
 7277WAT      O22072   8.733   5.364   5.827
 7277WAT     H122073   8.638   5.395   5.822
 7277WAT     H222074   8.743   5.299   5.903
 7278WAT      O22075   8.925   1.784   5.507
 7278WAT     H122076   8.998   1.848   5.484
 7278WAT     H222077   8.937   1.752   5.601
 7279WAT      O22078   3.153   0.246   3.436
 7279WAT     H122079   3.062   0.207   3.426
 7279WAT     H222080   3.216   0.177   3.471
 7280WAT      O22081   9.728   0.788   7.444
 7280WAT     H122082   9.713   0.707   7.501
 7280WAT     H222083   9.789   0.851   7.492
 7281WAT      O22084   0.167   7.122   6.961
 7281WAT     H122085   0.236   7.146   6.894
 7281WAT     H222086   0.210   7.074   7.038
 7282WAT      O22087   8.990   4.937   0.283
 7282WAT     H122088   9.080   4.911   0.317
 7282WAT     H222089   8.942   4.988   0.354
 7283WAT      O22090   8.071   5.681   5.977
 7283WAT     H122091   8.059   5.582   5.989
 7283WAT     H222092   8.150   5.711   6.029
 7284WAT      O22093   3.661   3.041   8.508
 7284WAT     H122094   3.577   2.987   8.506
 7284WAT     H222095   3.724   3.008   8.437
 7285WAT      O22096   7.533   7.876   2.693
 7285WAT     H122097   7.613   7.897   2.748
 7285WAT     H222098   7.467   7.824   2.747
 7286WAT      O22099   1.384   2.198   1.923
 7286WAT     H122100   1.407   2.252   2.004
 7286WAT     H222101   1.286   2.202   1.907
 7287WAT      O22102   1.698   3.590   3.686
 7287WAT     H122103   1.619   3.542   3.649
 7287WAT     H222104   1.707   3.570   3.783
 7288WAT      O22105   4.787   7.709   9.283
 7288WAT     H122106   4.856   7.756   9.229
 7288WAT     H222107   4.753   7.630   9.232
 7289WAT      O22108   1.900   7.396   6.062
 7289WAT     H122109   1.902   7.485   6.018
 7289WAT     H222110   1.810   7.355   6.051
 7290WAT      O22111   1.823   1.745   0.952
 7290WAT     H122112   1.784   1.807   1.020
 7290WAT     H222113   1.790   1.769   0.861
 7291WAT      O22114   7.685   6.728   8.328
 7291WAT     H122115   7.592   6.750   8.301
 7291WAT     H222116   7.745   6.732   8.248
 7292WAT      O22117   3.788   5.229   8.429
 7292WAT     H122118   3.861   5.283   8.387
 7292WAT     H222119   3.713   5.219   8.365
 7293WAT      O22120   5.610   5.819   5.973
 7293WAT     H122121   5.666   5.902   5.978
 7293WAT     H222122   5.524   5.834   6.021
 7294WAT      O22123   5.197   5.281   7.071
 7294WAT     H122124   5.176   5.305   6.976
 7294WAT     H222125   5.127   5.218   7.105
 7295WAT      O22126   3.796   0.339   0.840
 7295WAT     H122127   3.708   0.369   0.876
 7295WAT     H222128   3.832   0.409   0.777
 7296WAT      O22129   9.321   6.702   4.578
 7296WAT     H122130   9.282   6.648   4.504
 7296WAT     H222131   9.292   6.665   4.666
 7297WAT      O22132   0.080   8.106   4.365
 7297WAT     H122133  -0.006   8.119   4.414
 7297WAT     H222134   0.111   8.194   4.329
 7298WAT      O22135   0.040   9.521   6.620
 7298WAT     H122136   0.133   9.486   6.611
 7298WAT     H222137   0.012   9.520   6.716
 7299WAT      O22138   2.435   2.596   7.664
 7299WAT     H122139   2.443   2.591   7.763
 7299WAT     H222140   2.368   2.528   7.633
 7300WAT      O22141   9.007   3.956   2.106
 7300WAT     H122142   9.093   3.943   2.156
 7300WAT     H222143   8.950   4.023   2.155
 7301WAT      O22144   1.736   5.521   9.857
 7301WAT     H122145   1.686   5.535   9.772
 7301WAT     H222146   1.672   5.500   9.931
 7302WAT      O22147   6.736   8.320   3.496
 7302WAT     H122148   6.647   8.278   3.478
 7302WAT     H222149   6.803   8.286   3.430
 7303WAT      O22150   0.650   4.419   7.679
 7303WAT     H122151   0.634   4.325   7.647
 7303WAT     H222152   0.747   4.442   7.668
 7304WAT      O22153   6.530   4.508   1.279
 7304WAT     H122154   6.501   4.518   1.183
 7304WAT     H222155   6.556   4.598   1.315
 7305WAT      O22156   7.530   8.332   2.379
 7305WAT     H122157   7.577   8.328   2.291
 7305WAT     H222158   7.545   8.246   2.429
 7306WAT      O22159   4.249   7.064   2.324
 7306WAT     H122160   4.154   7.082   2.350
 7306WAT     H222161   4.257   7.064   2.225
 7307WAT      O22162   7.909   6.060   7.905
 7307WAT     H122163   7.922   5.965   7.878
 7307WAT     H222164   7.976   6.084   7.975
 7308WAT      O22165   0.323   9.169   2.904
 7308WAT     H122166   0.254   9.242   2.908
 7308WAT     H222167   0.393   9.193   2.838
 7309WAT      O22168   8.424   8.376   5.609
 7309WAT     H122169   8.438   8.412   5.702
 7309WAT     H222170   8.479   8.294   5.596
 7310WAT      O22171   4.772   0.876   7.148
 7310WAT     H122172   4.793   0.945   7.217
 7310WAT     H222173   4.857   0.831   7.118
 7311WAT      O22174   9.657   2.632   0.486
 7311WAT     H122175   9.609   2.718   0.468
 7311WAT     H222176   9.662   2.578   0.402
 7312WAT      O22177   8.913   3.108   4.583
 7312WAT     H122178   8.917   3.165   4.500
 7312WAT     H222179   8.987   3.134   4.645
 7313WAT      O22180   7.057   3.671   2.989
 7313WAT     H122181   7.039   3.666   3.088
 7313WAT     H222182   6.986   3.728   2.946
 7314WAT      O22183   1.154   8.464   6.049
 7314WAT     H122184   1.076   8.435   6.105
 7314WAT     H222185   1.124   8.533   5.983
 7315WAT      O22186   3.956   5.295   5.647
 7315WAT     H122187   4.053   5.275   5.629
 7315WAT     H222188   3.921   5.353   5.574
 7316WAT      O22189   5.804   6.227   3.940
 7316WAT     H122190   5.792   6.295   3.868
 7316WAT     H222191   5.757   6.142   3.915
 7317WAT      O22192   2.788   6.303   2.433
 7317WAT     H122193   2.733   6.229   2.471
 7317WAT     H222194   2.879   6.302   2.476
 7318WAT      O22195   2.910   9.209   6.447
 7318WAT     H122196   2.901   9.166   6.537
 7318WAT     H222197   2.964   9.292   6.454
 7319WAT      O22198   8.775   2.110   4.090
 7319WAT     H122199   8.681   2.145   4.095
 7319WAT     H222200   8.774   2.021   4.044
 7320WAT      O22201   0.459   5.040   3.342
 7320WAT     H122202   0.400   5.037   3.261
 7320WAT     H222203   0.537   4.978   3.329
 7321WAT      O22204   4.330   4.265   2.095
 7321WAT     H122205   4.287   4.177   2.117
 7321WAT     H222206   4.272   4.316   2.031
 7322WAT      O22207   1.776   1.863   1.968
 7322WAT     H122208   1.847   1.861   2.039
 7322WAT     H222209   1.694   1.817   2.003
 7323WAT      O22210   1.757   3.925   8.203
 7323WAT     H122211   1.767   4.022   8.225
 7323WAT     H222212   1.841   3.876   8.226
 7324WAT      O22213   7.705   4.291   7.658
 7324WAT     H122214   7.803   4.301   7.680
 7324WAT     H222215   7.662   4.382   7.658
 7325WAT      O22216   5.806   8.214   5.925
 7325WAT     H122217   5.847   8.203   6.016
 7325WAT     H222218   5.752   8.132   5.904
 7326WAT      O22219   9.139   7.983   8.068
 7326WAT     H122220   9.134   7.952   8.163
 7326WAT     H222221   9.080   7.926   8.011
 7327WAT      O22222   4.965   7.913   2.601
 7327WAT     H122223   4.893   7.983   2.605
 7327WAT     H222224   5.000   7.905   2.508
 7328WAT      O22225   3.941   2.626   8.935
 7328WAT     H122226   3.988   2.538   8.937
 7328WAT     H222227   3.989   2.691   8.995
 7329WAT      O22228   9.782   7.860   5.214
 7329WAT     H122229   9.700   7.873   5.158
 7329WAT     H222230   9.861   7.847   5.153
 7330WAT      O22231   0.050   0.043   0.587
 7330WAT     H122232   0.004  -0.044   0.608
 7330WAT     H222233   0.055   0.098   0.670
 7331WAT      O22234   0.492   0.517   8.400
 7331WAT     H122235   0.412   0.540   8.345
 7331WAT     H222236   0.575   0.534   8.348
 7332WAT      O22237   6.174   5.470   2.761
 7332WAT     H122238   6.220   5.489   2.674
 7332WAT     H222239   6.130   5.381   2.756
 7333WAT      O22240   9.192   3.177   6.614
 7333WAT     H122241   9.134   3.099   6.638
 7333WAT     H222242   9.166   3.257   6.670
 7334WAT      O22243   1.261   5.993   4.565
 7334WAT     H122244   1.231   5.996   4.469
 7334WAT     H222245   1.229   5.908   4.606
 7335WAT      O22246   8.018   2.593   0.899
 7335WAT     H122247   8.036   2.664   0.832
 7335WAT     H222248   8.047   2.624   0.990
 7336WAT      O22249   3.090   6.214   0.164
 7336WAT     H122250   3.024   6.148   0.199
 7336WAT     H222251   3.176   6.166   0.143
 7337WAT      O22252   7.773   8.283   1.402
 7337WAT     H122253   7.845   8.338   1.446
 7337WAT     H222254   7.689   8.336   1.399
 7338WAT      O22255   6.873   1.016   3.881
 7338WAT     H122256   6.891   1.108   3.915
 7338WAT     H222257   6.944   0.991   3.815
 7339WAT      O22258   6.702   2.134   8.672
 7339WAT     H122259   6.718   2.160   8.577
 7339WAT     H222260   6.780   2.163   8.728
 7340WAT      O22261   4.046   4.334   0.076
 7340WAT     H122262   4.025   4.255   0.134
 7340WAT     H222263   3.961   4.382   0.053
 7341WAT      O22264   5.549   6.932   7.933
 7341WAT     H122265   5.621   6.922   7.864
 7341WAT     H222266   5.517   6.842   7.962
 7342WAT      O22267   2.315   9.702   5.305
 7342WAT     H122268   2.256   9.783   5.306
 7342WAT     H222269   2.381   9.710   5.231
 7343WAT      O22270   5.349   4.367   5.803
 7343WAT     H122271   5.323   4.455   5.843
 7343WAT     H222272   5.330   4.367   5.705
 7344WAT      O22273   2.864   5.187   1.707
 7344WAT     H122274   2.914   5.269   1.734
 7344WAT     H222275   2.825   5.200   1.616
 7345WAT      O22276   4.712   0.514   7.463
 7345WAT     H122277   4.685   0.432   7.514
 7345WAT     H222278   4.763   0.487   7.382
 7346WAT      O22279   7.589   5.470   8.321
 7346WAT     H122280   7.545   5.475   8.410
 7346WAT     H222281   7.520   5.471   8.249
 7347WAT      O22282   4.649   9.320   6.388
 7347WAT     H122283   4.673   9.266   6.308
 7347WAT     H222284   4.645   9.262   6.469
 7348WAT      O22285   5.975   3.566   3.336
 7348WAT     H122286   5.912   3.488   3.330
 7348WAT     H222287   5.987   3.592   3.432
 7349WAT      O22288   2.006   7.403   3.408
 7349WAT     H122289   2.029   7.473   3.341
 7349WAT     H222290   2.008   7.443   3.500
 7350WAT      O22291   4.831   6.624   7.910
 7350WAT     H122292   4.767   6.555   7.876
 7350WAT     H222293   4.785   6.713   7.914
 7351WAT      O22294   1.501   5.393   5.207
 7351WAT     H122295   1.486   5.477   5.155
 7351WAT     H222296   1.452   5.397   5.294
 7352WAT      O22297   9.276   3.246   1.711
 7352WAT     H122298   9.184   3.270   1.678
 7352WAT     H222299   9.328   3.330   1.726
 7353WAT      O22300   1.466   9.169   1.320
 7353WAT     H122301   1.376   9.167   1.276
 7353WAT     H222302   1.512   9.254   1.297
 7354WAT      O22303   5.708   8.535   5.087
 7354WAT     H122304   5.733   8.449   5.043
 7354WAT     H222305   5.777   8.605   5.068
 7355WAT      O22306   6.594   1.951   9.801
 7355WAT     H122307   6.495   1.941   9.813
 7355WAT     H222308   6.639   1.863   9.818
 7356WAT      O22309   8.380   4.519   3.984
 7356WAT     H122310   8.429   4.515   4.071
 7356WAT     H222311   8.330   4.434   3.970
 7357WAT      O22312   2.708   5.702   0.076
 7357WAT     H122313   2.718   5.645  -0.006
 7357WAT     H222314   2.643   5.659   0.138
 7358WAT      O22315   5.277   2.651   4.520
 7358WAT     H122316   5.370   2.614   4.515
 7358WAT     H222317   5.281   2.749   4.540
 7359WAT      O22318   8.680   1.018   3.664
 7359WAT     H122319   8.755   1.074   3.629
 7359WAT     H222320   8.610   1.008   3.594
 7360WAT      O22321   0.639   6.258   1.983
 7360WAT     H122322   0.714   6.304   1.936
 7360WAT     H222323   0.648   6.159   1.972
 7361WAT      O22324   2.840   2.905   5.527
 7361WAT     H122325   2.762   2.963   5.502
 7361WAT     H222326   2.821   2.810   5.503
 7362WAT      O22327   3.004   0.568   9.237
 7362WAT     H122328   2.948   0.651   9.243
 7362WAT     H222329   3.038   0.558   9.144
 7363WAT      O22330   4.243   7.179   5.043
 7363WAT     H122331   4.274   7.114   5.113
 7363WAT     H222332   4.179   7.243   5.085
 7364WAT      O22333   8.284   6.354   3.859
 7364WAT     H122334   8.374   6.331   3.821
 7364WAT     H222335   8.240   6.423   3.802
 7365WAT      O22336   6.746   7.180   7.325
 7365WAT     H122337   6.811   7.256   7.329
 7365WAT     H222338   6.660   7.212   7.285
 7366WAT      O22339   6.115   7.859   3.702
 7366WAT     H122340   6.207   7.881   3.735
 7366WAT     H222341   6.047   7.904   3.760
 7367WAT      O22342   8.523   9.105   1.898
 7367WAT     H122343   8.591   9.171   1.927
 7367WAT     H222344   8.549   9.014   1.930
 7368WAT      O22345   5.280   7.312   3.135
 7368WAT     H122346   5.360   7.366   3.160
 7368WAT     H222347   5.309   7.229   3.087
 7369WAT      O22348   4.656   8.110   2.245
 7369WAT     H122349   4.639   8.171   2.322
 7369WAT     H222350   4.610   8.145   2.164
 7370WAT      O22351   0.889   9.511   5.417
 7370WAT     H122352   0.814   9.458   5.456
 7370WAT     H222353   0.931   9.460   5.342
 7371WAT      O22354   6.856   4.845   1.313
 7371WAT     H122355   6.841   4.863   1.216
 7371WAT     H222356   6.838   4.928   1.366
 7372WAT      O22357   6.056   4.742   9.678
 7372WAT     H122358   5.985   4.760   9.745
 7372WAT     H222359   6.106   4.826   9.658
 7373WAT      O22360   6.106   5.953   3.316
 7373WAT     H122361   6.068   5.900   3.392
 7373WAT     H222362   6.039   6.019   3.284
 7374WAT      O22363   9.296   5.528   1.874
 7374WAT     H122364   9.330   5.614   1.836
 7374WAT     H222365   9.196   5.529   1.875
 7375WAT      O22366   7.093   0.800   5.890
 7375WAT     H122367   7.126   0.807   5.796
 7375WAT     H222368   7.102   0.889   5.936
 7376WAT      O22369   6.304   6.532   2.324
 7376WAT     H122370   6.263   6.441   2.317
 7376WAT     H222371   6.258   6.583   2.398
 7377WAT      O22372   1.152   5.705   1.505
 7377WAT     H122373   1.115   5.672   1.592
 7377WAT     H222374   1.248   5.729   1.517
 7378WAT      O22375   7.966   4.262   1.265
 7378WAT     H122376   7.990   4.238   1.359
 7378WAT     H222377   8.027   4.213   1.203
 7379WAT      O22378   1.018   0.999   0.403
 7379WAT     H122379   1.010   0.901   0.382
 7379WAT     H222380   1.070   1.044   0.330
 7380WAT      O22381   9.295   4.965   2.749
 7380WAT     H122382   9.233   4.938   2.676
 7380WAT     H222383   9.384   4.989   2.709
 7381WAT      O22384   5.545   9.613   3.998
 7381WAT     H122385   5.570   9.707   3.980
 7381WAT     H222386   5.596   9.579   4.077
 7382WAT      O22387   2.080   8.959   8.381
 7382WAT     H122388   2.093   9.010   8.296
 7382WAT     H222389   2.099   8.862   8.365
 7383WAT      O22390   5.856   8.847   4.116
 7383WAT     H122391   5.902   8.815   4.033
 7383WAT     H222392   5.764   8.879   4.093
 7384WAT      O22393   5.250   1.867   9.011
 7384WAT     H122394   5.290   1.891   8.923
 7384WAT     H222395   5.190   1.941   9.042
 7385WAT      O22396   4.394   9.568   1.497
 7385WAT     H122397   4.459   9.625   1.447
 7385WAT     H222398   4.441   9.488   1.533
 7386WAT      O22399   6.366   7.502   1.937
 7386WAT     H122400   6.345   7.543   1.849
 7386WAT     H222401   6.465   7.504   1.952
 7387WAT      O22402   6.982   2.237   9.750
 7387WAT     H122403   6.912   2.178   9.710
 7387WAT     H222404   6.940   2.303   9.812
 7388WAT      O22405   3.176   6.531   8.750
 7388WAT     H122406   3.191   6.476   8.832
 7388WAT     H222407   3.095   6.498   8.703
 7389WAT      O22408   9.000   0.049   8.694
 7389WAT     H122409   8.940  -0.004   8.634
 7389WAT     H222410   8.966   0.143   8.700
 7390WAT      O22411   3.638   0.170   6.543
 7390WAT     H122412   3.539   0.161   6.551
 7390WAT     H222413   3.673   0.226   6.618
 7391WAT      O22414   3.750   1.021   8.337
 7391WAT     H122415   3.678   1.089   8.319
 7391WAT     H222416   3.768   0.970   8.253
 7392WAT      O22417   8.104   1.919   2.402
 7392WAT     H122418   8.151   1.958   2.482
 7392WAT     H222419   8.108   1.984   2.326
 7393WAT      O22420   0.682   5.073   6.375
 7393WAT     H122421   0.732   5.078   6.461
 7393WAT     H222422   0.637   5.160   6.358
 7394WAT      O22423   1.003   9.446   0.705
 7394WAT     H122424   1.065   9.409   0.636
 7394WAT     H222425   0.909   9.447   0.670
 7395WAT      O22426   3.334   2.809   2.069
 7395WAT     H122427   3.350   2.711   2.077
 7395WAT     H222428   3.399   2.859   2.127
 7396WAT      O22429   8.745   1.426   3.859
 7396WAT     H122430   8.758   1.365   3.781
 7396WAT     H222431   8.825   1.420   3.919
 7397WAT      O22432   4.848   2.174   2.575
 7397WAT     H122433   4.796   2.089   2.575
 7397WAT     H222434   4.875   2.197   2.481
 7398WAT      O22435   2.121   5.468   0.504
 7398WAT     H122436   2.217   5.444   0.516
 7398WAT     H222437   2.109   5.511   0.414
 7399WAT      O22438   3.672   9.021   0.646
 7399WAT     H122439   3.727   9.103   0.631
 7399WAT     H222440   3.647   9.015   0.743
 7400WAT      O22441   6.394   3.898   4.312
 7400WAT     H122442   6.419   3.851   4.227
 7400WAT     H222443   6.362   3.990   4.290
 7401WAT      O22444   1.550   1.171   8.285
 7401WAT     H122445   1.585   1.111   8.357
 7401WAT     H222446   1.623   1.190   8.219
 7402WAT      O22447   5.367   9.170   9.638
 7402WAT     H122448   5.336   9.178   9.732
 7402WAT     H222449   5.398   9.076   9.621
 7403WAT      O22450   3.960   5.880   9.502
 7403WAT     H122451   3.993   5.810   9.439
 7403WAT     H222452   3.949   5.967   9.452
 7404WAT      O22453   4.895   1.426   9.450
 7404WAT     H122454   4.853   1.423   9.359
 7404WAT     H222455   4.838   1.480   9.511
 7405WAT      O22456   9.304   1.644   3.431
 7405WAT     H122457   9.392   1.686   3.410
 7405WAT     H222458   9.232   1.688   3.378
 7406WAT      O22459   6.870   2.942   3.556
 7406WAT     H122460   6.926   2.884   3.496
 7406WAT     H222461   6.805   2.995   3.500
 7407WAT      O22462   8.944   5.086   7.440
 7407WAT     H122463   8.970   5.152   7.370
 7407WAT     H222464   8.999   5.101   7.522
 7408WAT      O22465   9.163   0.021   0.212
 7408WAT     H122466   9.208  -0.045   0.272
 7408WAT     H222467   9.160  -0.016   0.119
 7409WAT      O22468   5.164   4.506   6.717
 7409WAT     H122469   5.104   4.456   6.654
 7409WAT     H222470   5.109   4.569   6.772
 7410WAT      O22471   7.235   7.888   3.606
 7410WAT     H122472   7.316   7.934   3.569
 7410WAT     H222473   7.256   7.850   3.696
 7411WAT      O22474   8.596   1.169   6.828
 7411WAT     H122475   8.510   1.219   6.839
 7411WAT     H222476   8.656   1.188   6.905
 7412WAT      O22477   1.211   2.054   7.037
 7412WAT     H122478   1.172   2.142   7.064
 7412WAT     H222479   1.224   1.998   7.119
 7413WAT      O22480   2.632   7.357   3.920
 7413WAT     H122481   2.629   7.298   3.839
 7413WAT     H222482   2.727   7.380   3.940
 7414WAT      O22483   8.567   6.705   7.889
 7414WAT     H122484   8.548   6.720   7.792
 7414WAT     H222485   8.647   6.757   7.916
 7415WAT      O22486   9.013   8.314   7.148
 7415WAT     H122487   8.943   8.384   7.141
 7415WAT     H222488   9.075   8.321   7.069
 7416WAT      O22489   3.139   5.000   6.105
 7416WAT     H122490   3.232   4.988   6.138
 7416WAT     H222491   3.140   5.041   6.014
 7417WAT      O22492   6.061   7.457   4.754
 7417WAT     H122493   6.146   7.431   4.707
 7417WAT     H222494   5.990   7.389   4.736
 7418WAT      O22495   9.090   8.964   7.316
 7418WAT     H122496   9.146   8.885   7.342
 7418WAT     H222497   9.101   8.983   7.219
 7419WAT      O22498   7.093   0.730   2.272
 7419WAT     H122499   7.023   0.795   2.301
 7419WAT     H222500   7.063   0.637   2.293
 7420WAT      O22501   7.819   8.930   0.541
 7420WAT     H122502   7.887   8.930   0.467
 7420WAT     H222503   7.849   8.868   0.613
 7421WAT      O22504   2.122   8.001   7.536
 7421WAT     H122505   2.142   7.930   7.469
 7421WAT     H222506   2.078   8.079   7.491
 7422WAT      O22507   6.745   3.951   9.789
 7422WAT     H122508   6.735   4.049   9.805
 7422WAT     H222509   6.837   3.931   9.755
 7423WAT      O22510   2.866   1.967   4.131
 7423WAT     H122511   2.866   2.031   4.208
 7423WAT     H222512   2.773   1.960   4.093
 7424WAT      O22513   2.509   4.865   6.319
 7424WAT     H122514   2.560   4.940   6.278
 7424WAT     H222515   2.413   4.872   6.295
 7425WAT      O22516   2.036   0.896   5.257
 7425WAT     H122517   1.946   0.882   5.215
 7425WAT     H222518   2.054   0.994   5.263
 7426WAT      O22519   6.982   5.433   0.269
 7426WAT     H122520   6.883   5.419   0.266
 7426WAT     H222521   7.021   5.374   0.340
 7427WAT      O22522   4.883   2.826   8.317
 7427WAT     H122523   4.929   2.794   8.400
 7427WAT     H222524   4.818   2.756   8.286
 7428WAT      O22525   3.083   0.933   0.672
 7428WAT     H122526   3.030   0.875   0.734
 7428WAT     H222527   3.146   0.876   0.620
 7429WAT      O22528   4.148   0.062   1.471
 7429WAT     H122529   4.155   0.148   1.421
 7429WAT     H222530   4.058   0.057   1.514
 7430WAT      O22531   9.831   7.438   2.295
 7430WAT     H122532   9.735   7.415   2.287
 7430WAT     H222533   9.844   7.505   2.368
 7431WAT      O22534   4.345   0.675   9.669
 7431WAT     H122535   4.352   0.692   9.767
 7431WAT     H222536   4.282   0.600   9.652
 7432WAT      O22537   6.946   5.246   4.550
 7432WAT     H122538   7.008   5.205   4.483
 7432WAT     H222539   6.970   5.215   4.642
 7433WAT      O22540   2.099   2.764   1.144
 7433WAT     H122541   2.194   2.732   1.131
 7433WAT     H222542   2.086   2.849   1.093
 7434WAT      O22543   0.623   4.606   9.596
 7434WAT     H122544   0.570   4.629   9.514
 7434WAT     H222545   0.581   4.647   9.676
 7435WAT      O22546   2.109   7.110   8.735
 7435WAT     H122547   2.024   7.066   8.763
 7435WAT     H222548   2.175   7.104   8.809
 7436WAT      O22549   9.617   9.120   5.520
 7436WAT     H122550   9.605   9.217   5.497
 7436WAT     H222551   9.533   9.070   5.499
 7437WAT      O22552   5.086   9.711   4.645
 7437WAT     H122553   5.000   9.741   4.603
 7437WAT     H222554   5.143   9.667   4.575
 7438WAT      O22555   5.518   7.344   5.771
 7438WAT     H122556   5.573   7.263   5.792
 7438WAT     H222557   5.471   7.375   5.853
 7439WAT      O22558   4.203   3.381   7.942
 7439WAT     H122559   4.282   3.442   7.937
 7439WAT     H222560   4.220   3.310   8.011
 7440WAT      O22561   8.961   7.139   7.779
 7440WAT     H122562   9.007   7.154   7.866
 7440WAT     H222563   8.907   7.055   7.785
 7441WAT      O22564   4.158   3.043   6.898
 7441WAT     H122565   4.114   3.009   6.814
 7441WAT     H222566   4.161   3.143   6.896
 7442WAT      O22567   7.192   2.959   3.437
 7442WAT     H122568   7.142   2.879   3.404
 7442WAT     H222569   7.235   2.938   3.525
 7443WAT      O22570   3.568   2.092   7.426
 7443WAT     H122571   3.469   2.098   7.417
 7443WAT     H222572   3.600   2.005   7.389
 7444WAT      O22573   3.167   7.559   9.526
 7444WAT     H122574   3.156   7.460   9.532
 7444WAT     H222575   3.265   7.581   9.519
 7445WAT      O22576   5.250   2.828   5.743
 7445WAT     H122577   5.259   2.804   5.839
 7445WAT     H222578   5.206   2.917   5.734
 7446WAT      O22579   1.550   8.297   5.188
 7446WAT     H122580   1.611   8.354   5.242
 7446WAT     H222581   1.601   8.219   5.151
 7447WAT      O22582   6.038   7.574   2.238
 7447WAT     H122583   5.954   7.535   2.274
 7447WAT     H222584   6.080   7.510   2.173
 7448WAT      O22585   0.626   3.241   7.592
 7448WAT     H122586   0.570   3.167   7.555
 7448WAT     H222587   0.708   3.252   7.536
 7449WAT      O22588   7.466   8.846   1.268
 7449WAT     H122589   7.528   8.888   1.202
 7449WAT     H222590   7.427   8.762   1.228
 7450WAT      O22591   3.227   2.960   1.865
 7450WAT     H122592   3.266   2.895   1.930
 7450WAT     H222593   3.264   2.942   1.774
 7451WAT      O22594   8.569   5.748   6.780
 7451WAT     H122595   8.582   5.660   6.733
 7451WAT     H222596   8.527   5.732   6.869
 7452WAT      O22597   9.672   9.591   6.120
 7452WAT     H122598   9.742   9.654   6.089
 7452WAT     H222599   9.712   9.500   6.134
 7453WAT      O22600   8.082   7.725   3.007
 7453WAT     H122601   8.095   7.782   2.926
 7453WAT     H222602   8.170   7.690   3.037
 7454WAT      O22603   6.150   4.512   7.346
 7454WAT     H122604   6.217   4.534   7.416
 7454WAT     H222605   6.141   4.412   7.338
 7455WAT      O22606   0.282   2.093   6.518
 7455WAT     H122607   0.270   2.002   6.558
 7455WAT     H222608   0.350   2.088   6.444
 7456WAT      O22609   7.045   6.627   5.611
 7456WAT     H122610   6.960   6.590   5.647
 7456WAT     H222611   7.121   6.596   5.668
 7457WAT      O22612   0.102   1.130   7.331
 7457WAT     H122613   0.031   1.130   7.261
 7457WAT     H222614   0.094   1.047   7.387
 7458WAT      O22615   7.719   1.394   4.852
 7458WAT     H122616   7.731   1.389   4.753
 7458WAT     H222617   7.783   1.332   4.897
 7459WAT      O22618   2.448   6.775   1.738
 7459WAT     H122619   2.440   6.746   1.834
 7459WAT     H222620   2.392   6.716   1.681
 7460WAT      O22621   5.674   2.345   7.583
 7460WAT     H122622   5.594   2.290   7.608
 7460WAT     H222623   5.716   2.381   7.666
 7461WAT      O22624   2.056   8.421   9.333
 7461WAT     H122625   2.146   8.379   9.335
 7461WAT     H222626   2.024   8.429   9.239
 7462WAT      O22627   2.813   0.296   9.760
 7462WAT     H122628   2.786   0.203   9.736
 7462WAT     H222629   2.886   0.294   9.828
 7463WAT      O22630   9.423   7.662   4.115
 7463WAT     H122631   9.436   7.700   4.023
 7463WAT     H222632   9.417   7.562   4.109
 7464WAT      O22633   0.233   1.076   1.262
 7464WAT     H122634   0.294   1.133   1.317
 7464WAT     H222635   0.148   1.060   1.313
 7465WAT      O22636   7.689   8.205   7.694
 7465WAT     H122637   7.619   8.265   7.731
 7465WAT     H222638   7.663   8.110   7.710
 7466WAT      O22639   2.001   5.418   3.089
 7466WAT     H122640   2.069   5.418   3.016
 7466WAT     H222641   1.951   5.505   3.088
 7467WAT      O22642   5.628   5.511   3.470
 7467WAT     H122643   5.726   5.491   3.481
 7467WAT     H222644   5.616   5.582   3.401
 7468WAT      O22645   8.817   3.141   2.797
 7468WAT     H122646   8.772   3.089   2.725
 7468WAT     H222647   8.781   3.234   2.799
 7469WAT      O22648   2.097   7.338   6.249
 7469WAT     H122649   2.023   7.354   6.184
 7469WAT     H222650   2.185   7.333   6.201
 7470WAT      O22651   0.568   7.026   1.222
 7470WAT     H122652   0.520   6.941   1.197
 7470WAT     H222653   0.534   7.101   1.166
 7471WAT      O22654   1.195   6.460   9.144
 7471WAT     H122655   1.266   6.527   9.163
 7471WAT     H222656   1.230   6.368   9.162
 7472WAT      O22657   2.327   3.929   9.487
 7472WAT     H122658   2.236   3.958   9.458
 7472WAT     H222659   2.380   3.902   9.406
 7473WAT      O22660   8.883   9.026   9.324
 7473WAT     H122661   8.804   9.069   9.279
 7473WAT     H222662   8.966   9.076   9.300
 7474WAT      O22663   7.492   7.332   2.523
 7474WAT     H122664   7.556   7.405   2.498
 7474WAT     H222665   7.489   7.323   2.622
 7475WAT      O22666   8.469   0.172   0.308
 7475WAT     H122667   8.510   0.117   0.236
 7475WAT     H222668   8.539   0.202   0.372
 7476WAT      O22669   4.437   0.286   4.156
 7476WAT     H122670   4.534   0.268   4.172
 7476WAT     H222671   4.382   0.232   4.220
 7477WAT      O22672   9.311   8.703   7.941
 7477WAT     H122673   9.322   8.775   8.009
 7477WAT     H222674   9.387   8.638   7.949
 7478WAT      O22675   3.906   0.260   8.880
 7478WAT     H122676   4.005   0.262   8.861
 7478WAT     H222677   3.887   0.186   8.945
 7479WAT      O22678   7.379   1.923   5.642
 7479WAT     H122679   7.291   1.953   5.607
 7479WAT     H222680   7.437   1.893   5.565
 7480WAT      O22681   5.241   8.290   2.767
 7480WAT     H122682   5.282   8.199   2.765
 7480WAT     H222683   5.158   8.292   2.712
 7481WAT      O22684   9.288   6.078   2.412
 7481WAT     H122685   9.387   6.076   2.397
 7481WAT     H222686   9.269   6.078   2.510
 7482WAT      O22687   3.223   7.687   1.079
 7482WAT     H122688   3.238   7.590   1.058
 7482WAT     H222689   3.254   7.706   1.172
 7483WAT      O22690   9.032   0.457   5.179
 7483WAT     H122691   8.961   0.411   5.233
 7483WAT     H222692   9.020   0.556   5.184
 7484WAT      O22693   4.853   2.790   2.081
 7484WAT     H122694   4.779   2.820   2.021
 7484WAT     H222695   4.814   2.756   2.166
 7485WAT      O22696   4.235   0.070   8.144
 7485WAT     H122697   4.324   0.034   8.171
 7485WAT     H222698   4.248   0.153   8.090
 7486WAT      O22699   5.829   5.487   8.680
 7486WAT     H122700   5.912   5.477   8.735
 7486WAT     H222701   5.823   5.580   8.645
 7487WAT      O22702   4.737   6.129   2.755
 7487WAT     H122703   4.695   6.055   2.702
 7487WAT     H222704   4.750   6.099   2.849
 7488WAT      O22705   3.199   5.759   6.602
 7488WAT     H122706   3.165   5.800   6.517
 7488WAT     H222707   3.288   5.800   6.625
 7489WAT      O22708   9.177   8.419   8.974
 7489WAT     H122709   9.106   8.349   8.975
 7489WAT     H222710   9.266   8.377   8.994
 7490WAT      O22711   9.726   4.096   1.444
 7490WAT     H122712   9.720   4.065   1.349
 7490WAT     H222713   9.721   4.196   1.447
 7491WAT      O22714   1.448   8.715   1.099
 7491WAT     H122715   1.370   8.745   1.154
 7491WAT     H222716   1.414   8.679   1.012
 7492WAT      O22717   5.921   5.492   1.934
 7492WAT     H122718   5.869   5.419   1.890
 7492WAT     H222719   5.956   5.555   1.864
 7493WAT      O22720   5.546   5.944   4.636
 7493WAT     H122721   5.619   5.886   4.672
 7493WAT     H222722   5.477   5.960   4.707
 7494WAT      O22723   1.199   6.225   7.262
 7494WAT     H122724   1.280   6.257   7.311
 7494WAT     H222725   1.183   6.129   7.283
 7495WAT      O22726   1.032   6.111   9.028
 7495WAT     H122727   1.126   6.077   9.027
 7495WAT     H222728   0.971   6.042   9.068
 7496WAT      O22729   4.749   3.338   9.414
 7496WAT     H122730   4.811   3.284   9.471
 7496WAT     H222731   4.655   3.320   9.440
 7497WAT      O22732   6.475   7.005   3.313
 7497WAT     H122733   6.397   6.944   3.326
 7497WAT     H222734   6.511   7.033   3.402
 7498WAT      O22735   8.063   6.461   3.229
 7498WAT     H122736   8.146   6.517   3.241
 7498WAT     H222737   8.002   6.507   3.165
 7499WAT      O22738   2.602   5.693   0.613
 7499WAT     H122739   2.515   5.683   0.660
 7499WAT     H222740   2.617   5.614   0.554
 7500WAT      O22741   9.788   2.282   5.931
 7500WAT     H122742   9.700   2.260   5.973
 7500WAT     H222743   9.862   2.262   5.995
 7501WAT      O22744   7.297   7.409   9.424
 7501WAT     H122745   7.285   7.480   9.355
 7501WAT     H222746   7.207   7.383   9.460
 7502WAT      O22747   2.900   9.012   7.655
 7502WAT     H122748   2.852   9.081   7.600
 7502WAT     H222749   2.836   8.973   7.722
 7503WAT      O22750   5.134   6.733   4.596
 7503WAT     H122751   5.121   6.817   4.649
 7503WAT     H222752   5.078   6.660   4.636
 7504WAT      O22753   1.941   5.146   8.004
 7504WAT     H122754   1.936   5.246   7.995
 7504WAT     H222755   1.964   5.123   8.099
 7505WAT      O22756   5.321   6.849   0.380
 7505WAT     H122757   5.395   6.858   0.447
 7505WAT     H222758   5.332   6.763   0.331
 7506WAT      O22759   3.164   8.430   9.013
 7506WAT     H122760   3.165   8.497   8.939
 7506WAT     H222761   3.257   8.397   9.030
 7507WAT      O22762   2.665   7.751   1.321
 7507WAT     H122763   2.655   7.838   1.273
 7507WAT     H222764   2.756   7.713   1.302
 7508WAT      O22765   3.297   4.868   2.910
 7508WAT     H122766   3.321   4.855   3.006
 7508WAT     H222767   3.206   4.829   2.893
 7509WAT      O22768   6.800   5.075   3.302
 7509WAT     H122769   6.869   5.046   3.236
 7509WAT     H222770   6.803   5.174   3.313
 7510WAT      O22771   4.724   9.575   8.165
 7510WAT     H122772   4.766   9.665   8.173
 7510WAT     H222773   4.722   9.547   8.069
 7511WAT      O22774   4.466   8.497   0.743
 7511WAT     H122775   4.417   8.469   0.826
 7511WAT     H222776   4.499   8.591   0.755
 7512WAT      O22777   1.244   6.001   9.416
 7512WAT     H122778   1.236   5.954   9.504
 7512WAT     H222779   1.223   5.938   9.342
 7513WAT      O22780   5.138   2.291   2.592
 7513WAT     H122781   5.048   2.258   2.620
 7513WAT     H222782   5.162   2.251   2.504
 7514WAT      O22783   9.808   6.360   8.149
 7514WAT     H122784   9.729   6.322   8.102
 7514WAT     H222785   9.816   6.318   8.240
 7515WAT      O22786   7.559   6.348   8.746
 7515WAT     H122787   7.487   6.279   8.752
 7515WAT     H222788   7.634   6.314   8.690
 7516WAT      O22789   1.600   1.001   6.687
 7516WAT     H122790   1.568   1.095   6.676
 7516WAT     H222791   1.658   0.977   6.610
 7517WAT      O22792   9.711   5.450   8.642
 7517WAT     H122793   9.749   5.538   8.669
 7517WAT     H222794   9.730   5.382   8.712
 7518WAT      O22795   2.533   1.305   6.488
 7518WAT     H122796   2.538   1.205   6.485
 7518WAT     H222797   2.437   1.333   6.484
 7519WAT      O22798   4.514   4.702   5.138
 7519WAT     H122799   4.539   4.644   5.215
 7519WAT     H222800   4.564   4.788   5.143
 7520WAT      O22801   5.772   3.929   8.377
 7520WAT     H122802   5.682   3.973   8.370
 7520WAT     H222803   5.780   3.885   8.467
 7521WAT      O22804   6.625   0.581   7.738
 7521WAT     H122805   6.615   0.677   7.712
 7521WAT     H222806   6.536   0.543   7.762
 7522WAT      O22807   2.760   6.836   7.451
 7522WAT     H122808   2.812   6.879   7.524
 7522WAT     H222809   2.802   6.856   7.363
 7523WAT      O22810   9.327   3.212   4.396
 7523WAT     H122811   9.293   3.298   4.434
 7523WAT     H222812   9.280   3.193   4.310
 7524WAT      O22813   8.751   5.741   4.040
 7524WAT     H122814   8.812   5.673   4.081
 7524WAT     H222815   8.799   5.787   3.965
 7525WAT      O22816   6.596   7.653   4.733
 7525WAT     H122817   6.580   7.661   4.635
 7525WAT     H222818   6.508   7.650   4.781
 7526WAT      O22819   6.675   4.175   3.604
 7526WAT     H122820   6.580   4.154   3.625
 7526WAT     H222821   6.713   4.235   3.674
 7527WAT      O22822   0.434   6.175   0.676
 7527WAT     H122823   0.431   6.163   0.776
 7527WAT     H222824   0.403   6.267   0.653
 7528WAT      O22825   3.426   1.815   2.406
 7528WAT     H122826   3.459   1.764   2.486
 7528WAT     H222827   3.358   1.882   2.435
 7529WAT      O22828   3.196   1.618   1.408
 7529WAT     H122829   3.166   1.651   1.319
 7529WAT     H222830   3.126   1.637   1.476
 7530WAT      O22831   6.189   1.483   2.725
 7530WAT     H122832   6.134   1.562   2.752
 7530WAT     H222833   6.163   1.404   2.780
 7531WAT      O22834   5.672   2.604   2.559
 7531WAT     H122835   5.759   2.560   2.580
 7531WAT     H222836   5.657   2.680   2.623
 7532WAT      O22837   7.102   5.321   1.412
 7532WAT     H122838   7.117   5.412   1.449
 7532WAT     H222839   7.186   5.267   1.422
 7533WAT      O22840   4.096   0.440   8.017
 7533WAT     H122841   4.106   0.474   7.924
 7533WAT     H222842   4.179   0.459   8.069
 7534WAT      O22843   6.458   2.333   3.741
 7534WAT     H122844   6.554   2.317   3.721
 7534WAT     H222845   6.415   2.380   3.663
 7535WAT      O22846   1.241   3.417   6.018
 7535WAT     H122847   1.332   3.406   5.979
 7535WAT     H222848   1.172   3.403   5.948
 7536WAT      O22849   3.347   5.297   9.561
 7536WAT     H122850   3.371   5.353   9.640
 7536WAT     H222851   3.427   5.244   9.532
 7537WAT      O22852   0.653   9.679   4.374
 7537WAT     H122853   0.722   9.741   4.413
 7537WAT     H222854   0.617   9.620   4.446
 7538WAT      O22855   6.389   6.664   9.704
 7538WAT     H122856   6.318   6.608   9.745
 7538WAT     H222857   6.392   6.649   9.605
 7539WAT      O22858   9.253   2.020   4.608
 7539WAT     H122859   9.210   2.048   4.694
 7539WAT     H222860   9.216   2.076   4.534
 7540WAT      O22861   8.035   7.405   3.127
 7540WAT     H122862   8.017   7.446   3.037
 7540WAT     H222863   8.125   7.360   3.125
 7541WAT      O22864   0.770   0.085   2.275
 7541WAT     H122865   0.773   0.147   2.197
 7541WAT     H222866   0.768  -0.010   2.243
 7542WAT      O22867   3.541   5.528   6.802
 7542WAT     H122868   3.573   5.437   6.827
 7542WAT     H222869   3.611   5.575   6.749
 7543WAT      O22870   7.783   7.831   7.844
 7543WAT     H122871   7.687   7.810   7.859
 7543WAT     H222872   7.806   7.917   7.890
 7544WAT      O22873   0.038   7.547   8.690
 7544WAT     H122874   0.012   7.606   8.614
 7544WAT     H222875   0.129   7.509   8.673
 7545WAT      O22876   2.583   7.821   8.499
 7545WAT     H122877   2.506   7.839   8.561
 7545WAT     H222878   2.612   7.906   8.457
 7546WAT      O22879   3.984   6.000   1.660
 7546WAT     H122880   3.986   5.910   1.617
 7546WAT     H222881   3.896   6.045   1.641
 7547WAT      O22882   7.067   1.357   7.026
 7547WAT     H122883   7.095   1.268   7.064
 7547WAT     H222884   6.977   1.381   7.061
 7548WAT      O22885   4.511   1.191   2.629
 7548WAT     H122886   4.463   1.236   2.706
 7548WAT     H222887   4.537   1.260   2.562
 7549WAT      O22888   3.014   5.374   3.910
 7549WAT     H122889   3.081   5.302   3.925
 7549WAT     H222890   2.970   5.398   3.997
 7550WAT      O22891   9.727   3.353   0.705
 7550WAT     H122892   9.706   3.315   0.795
 7550WAT     H222893   9.815   3.317   0.674
 7551WAT      O22894   5.254   5.395   9.701
 7551WAT     H122895   5.273   5.298   9.686
 7551WAT     H222896   5.166   5.405   9.748
 7552WAT      O22897   6.604   7.797   8.120
 7552WAT     H122898   6.688   7.830   8.163
 7552WAT     H222899   6.578   7.859   8.046
 7553WAT      O22900   0.648   3.237   8.047
 7553WAT     H122901   0.687   3.322   8.011
 7553WAT     H222902   0.721   3.183   8.090
 7554WAT      O22903   9.490   0.090   0.320
 7554WAT     H122904   9.548   0.009   0.311
 7554WAT     H222905   9.411   0.080   0.259
 7555WAT      O22906   1.100   5.952   4.326
 7555WAT     H122907   1.130   5.999   4.242
 7555WAT     H222908   1.034   6.010   4.374
 7556WAT      O22909   5.662   3.778   0.207
 7556WAT     H122910   5.662   3.715   0.285
 7556WAT     H222911   5.747   3.769   0.156
 7557WAT      O22912   8.721   6.824   7.110
 7557WAT     H122913   8.712   6.772   7.195
 7557WAT     H222914   8.674   6.776   7.036
 7558WAT      O22915   6.812   3.497   3.832
 7558WAT     H122916   6.806   3.503   3.931
 7558WAT     H222917   6.797   3.587   3.792
 7559WAT      O22918   5.650   3.159   1.637
 7559WAT     H122919   5.671   3.198   1.548
 7559WAT     H222920   5.701   3.074   1.649
 7560WAT      O22921   3.688   3.630   1.139
 7560WAT     H122922   3.710   3.637   1.041
 7560WAT     H222923   3.770   3.648   1.193
 7561WAT      O22924   5.742   3.519   0.673
 7561WAT     H122925   5.727   3.545   0.769
 7561WAT     H222926   5.656   3.490   0.633
 7562WAT      O22927   4.650   9.642   0.010
 7562WAT     H122928   4.574   9.582  -0.016
 7562WAT     H222929   4.727   9.586   0.039
 7563WAT      O22930   5.262   3.332   4.699
 7563WAT     H122931   5.163   3.345   4.701
 7563WAT     H222932   5.292   3.317   4.605
 7564WAT      O22933   1.144   2.794   1.149
 7564WAT     H122934   1.174   2.806   1.054
 7564WAT     H222935   1.091   2.874   1.178
 7565WAT      O22936   9.634   3.123   6.448
 7565WAT     H122937   9.586   3.061   6.386
 7565WAT     H222938   9.715   3.159   6.403
 7566WAT      O22939   2.647   7.735   9.838
 7566WAT     H122940   2.715   7.708   9.905
 7566WAT     H222941   2.644   7.835   9.833
 7567WAT      O22942   5.906   4.103   8.212
 7567WAT     H122943   5.867   4.029   8.267
 7567WAT     H222944   5.989   4.070   8.166
 7568WAT      O22945   9.731   0.756   9.054
 7568WAT     H122946   9.669   0.827   9.019
 7568WAT     H222947   9.706   0.734   9.149
 7569WAT      O22948   3.743   4.987   5.914
 7569WAT     H122949   3.652   5.026   5.926
 7569WAT     H222950   3.782   5.018   5.827
 7570WAT      O22951   5.274   4.411   0.297
 7570WAT     H122952   5.241   4.431   0.389
 7570WAT     H222953   5.350   4.346   0.302
 7571WAT      O22954   0.174   2.546   9.641
 7571WAT     H122955   0.106   2.549   9.715
 7571WAT     H222956   0.143   2.604   9.566
 7572WAT      O22957   2.789   3.967   5.520
 7572WAT     H122958   2.837   3.979   5.433
 7572WAT     H222959   2.756   4.056   5.551
 7573WAT      O22960   3.689   3.703   0.482
 7573WAT     H122961   3.717   3.617   0.524
 7573WAT     H222962   3.657   3.685   0.388
 7574WAT      O22963   2.756   8.036   4.600
 7574WAT     H122964   2.739   8.118   4.544
 7574WAT     H222965   2.798   8.063   4.686
 7575WAT      O22966   2.524   0.163   0.919
 7575WAT     H122967   2.600   0.223   0.941
 7575WAT     H222968   2.550   0.068   0.936
 7576WAT      O22969   8.942   0.620   9.214
 7576WAT     H122970   8.867   0.562   9.182
 7576WAT     H222971   8.915   0.716   9.210
 7577WAT      O22972   5.977   1.034   1.687
 7577WAT     H122973   6.025   1.084   1.615
 7577WAT     H222974   5.886   1.073   1.700
 7578WAT      O22975   5.735   3.563   9.556
 7578WAT     H122976   5.672   3.512   9.499
 7578WAT     H222977   5.697   3.653   9.577
 7579WAT      O22978   4.651   5.028   0.701
 7579WAT     H122979   4.660   4.929   0.705
 7579WAT     H222980   4.561   5.051   0.663
 7580WAT      O22981   6.750   5.944   2.380
 7580WAT     H122982   6.700   6.027   2.405
 7580WAT     H222983   6.848   5.963   2.377
 7581WAT      O22984   8.106   5.413   7.865
 7581WAT     H122985   8.009   5.399   7.845
 7581WAT     H222986   8.117   5.483   7.935
 7582WAT      O22987   0.063   8.449   2.149
 7582WAT     H122988   0.093   8.370   2.202
 7582WAT     H222989   0.069   8.531   2.206
 7583WAT      O22990   9.587   6.903   6.783
 7583WAT     H122991   9.668   6.958   6.802
 7583WAT     H222992   9.505   6.954   6.810
 7584WAT      O22993   8.933   7.344   2.681
 7584WAT     H122994   8.974   7.262   2.641
 7584WAT     H222995   8.924   7.415   2.611
 7585WAT      O22996   5.400   9.071   5.782
 7585WAT     H122997   5.465   9.069   5.858
 7585WAT     H222998   5.431   9.135   5.713
 7586WAT      O22999   2.117   5.647   3.525
 7586WAT     H123000   2.027   5.677   3.557
 7586WAT     H223001   2.187   5.708   3.561
 7587WAT      O23002   2.434   8.118   8.702
 7587WAT     H123003   2.335   8.113   8.716
 7587WAT     H223004   2.456   8.197   8.644
 7588WAT      O23005   7.875   9.506   3.141
 7588WAT     H123006   7.957   9.518   3.198
 7588WAT     H223007   7.836   9.596   3.121
 7589WAT      O23008   6.164   5.284   3.505
 7589WAT     H123009   6.093   5.342   3.465
 7589WAT     H223010   6.205   5.330   3.583
 7590WAT      O23011   1.444   7.710   4.181
 7590WAT     H123012   1.401   7.789   4.137
 7590WAT     H223013   1.543   7.724   4.183
 7591WAT      O23014   6.638   3.752   1.979
 7591WAT     H123015   6.567   3.750   2.049
 7591WAT     H223016   6.596   3.760   1.888
 7592WAT      O23017   5.472   2.575   4.797
 7592WAT     H123018   5.457   2.556   4.700
 7592WAT     H223019   5.551   2.523   4.830
 7593WAT      O23020   1.386   7.302   6.441
 7593WAT     H123021   1.337   7.335   6.522
 7593WAT     H223022   1.402   7.377   6.378
 7594WAT      O23023   0.097   4.570   7.779
 7594WAT     H123024   0.115   4.495   7.715
 7594WAT     H223025   0.121   4.541   7.872
 7595WAT      O23026   3.913   0.067   7.217
 7595WAT     H123027   3.959   0.054   7.305
 7595WAT     H223028   3.855  -0.012   7.198
 7596WAT      O23029   8.618   7.175   1.903
 7596WAT     H123030   8.613   7.086   1.857
 7596WAT     H223031   8.562   7.172   1.986
 7597WAT      O23032   2.049   6.152   7.852
 7597WAT     H123033   2.102   6.103   7.782
 7597WAT     H223034   2.072   6.249   7.848
 7598WAT      O23035   7.772   1.379   1.974
 7598WAT     H123036   7.844   1.312   1.992
 7598WAT     H223037   7.738   1.368   1.881
 7599WAT      O23038   2.605   5.615   3.873
 7599WAT     H123039   2.585   5.713   3.878
 7599WAT     H223040   2.579   5.572   3.959
 7600WAT      O23041   3.178   9.443   7.091
 7600WAT     H123042   3.163   9.441   6.992
 7600WAT     H223043   3.273   9.420   7.112
 7601WAT      O23044   3.954   0.613   9.713
 7601WAT     H123045   3.949   0.712   9.697
 7601WAT     H223046   4.026   0.595   9.781
 7602WAT      O23047   5.484   9.728   4.486
 7602WAT     H123048   5.528   9.675   4.558
 7602WAT     H223049   5.549   9.795   4.450
 7603WAT      O23050   5.064   3.201   3.301
 7603WAT     H123051   4.965   3.205   3.314
 7603WAT     H223052   5.091   3.107   3.281
 7604WAT      O23053   1.129   2.444   8.139
 7604WAT     H123054   1.119   2.536   8.179
 7604WAT     H223055   1.105   2.448   8.042
 7605WAT      O23056   5.187   4.589   4.936
 7605WAT     H123057   5.111   4.649   4.961
 7605WAT     H223058   5.210   4.602   4.839
 7606WAT      O23059   8.780   0.639   8.018
 7606WAT     H123060   8.762   0.712   7.952
 7606WAT     H223061   8.718   0.563   8.003
 7607WAT      O23062   3.390   6.875   3.390
 7607WAT     H123063   3.440   6.912   3.311
 7607WAT     H223064   3.393   6.775   3.388
 7608WAT      O23065   8.975   7.639   2.016
 7608WAT     H123066   8.997   7.735   2.035
 7608WAT     H223067   9.051   7.596   1.967
 7609WAT      O23068   7.518   6.885   3.409
 7609WAT     H123069   7.426   6.884   3.371
 7609WAT     H223070   7.585   6.874   3.336
 7610WAT      O23071   1.172   8.040   4.046
 7610WAT     H123072   1.256   8.079   4.008
 7610WAT     H223073   1.126   8.108   4.103
 7611WAT      O23074   1.877   3.058   5.087
 7611WAT     H123075   1.934   3.000   5.146
 7611WAT     H223076   1.781   3.034   5.100
 7612WAT      O23077   9.360   4.816   1.961
 7612WAT     H123078   9.348   4.743   1.894
 7612WAT     H223079   9.323   4.902   1.924
 7613WAT      O23080   1.121   0.618   8.446
 7613WAT     H123081   1.132   0.543   8.511
 7613WAT     H223082   1.209   0.638   8.403
 7614WAT      O23083   4.173   7.765   7.315
 7614WAT     H123084   4.267   7.735   7.305
 7614WAT     H223085   4.170   7.865   7.324
 7615WAT      O23086   6.537   2.245   7.051
 7615WAT     H123087   6.540   2.164   6.992
 7615WAT     H223088   6.575   2.222   7.141
 7616WAT      O23089   5.749   1.860   5.699
 7616WAT     H123090   5.834   1.871   5.752
 7616WAT     H223091   5.674   1.904   5.747
 7617WAT      O23092   7.246   0.398   0.286
 7617WAT     H123093   7.242   0.346   0.201
 7617WAT     H223094   7.173   0.368   0.347
 7618WAT      O23095   8.949   0.230   4.933
 7618WAT     H123096   8.906   0.309   4.976
 7618WAT     H223097   8.959   0.157   5.000
 7619WAT      O23098   7.441   7.255   1.561
 7619WAT     H123099   7.538   7.250   1.582
 7619WAT     H223100   7.404   7.343   1.593
 7620WAT      O23101   6.785   9.185   8.128
 7620WAT     H123102   6.757   9.166   8.222
 7620WAT     H223103   6.722   9.251   8.087
 7621WAT      O23104   8.398   3.159   6.045
 7621WAT     H123105   8.409   3.186   6.141
 7621WAT     H223106   8.346   3.074   6.041
 7622WAT      O23107   8.142   2.569   3.634
 7622WAT     H123108   8.141   2.663   3.668
 7622WAT     H223109   8.048   2.541   3.611
 7623WAT      O23110   5.880   0.139   2.394
 7623WAT     H123111   5.806   0.152   2.460
 7623WAT     H223112   5.845   0.151   2.301
 7624WAT      O23113   0.669   0.897   0.330
 7624WAT     H123114   0.708   0.989   0.332
 7624WAT     H223115   0.647   0.868   0.424
 7625WAT      O23116   3.840   6.047   5.400
 7625WAT     H123117   3.805   5.953   5.395
 7625WAT     H223118   3.819   6.086   5.490
 7626WAT      O23119   0.852   1.760   4.113
 7626WAT     H123120   0.857   1.859   4.097
 7626WAT     H223121   0.931   1.731   4.167
 7627WAT      O23122   8.917   6.452   5.918
 7627WAT     H123123   8.975   6.460   5.837
 7627WAT     H223124   8.947   6.517   5.988
 7628WAT      O23125   5.180   3.218   9.610
 7628WAT     H123126   5.232   3.201   9.526
 7628WAT     H223127   5.234   3.274   9.672
 7629WAT      O23128   4.400   3.383   7.054
 7629WAT     H123129   4.373   3.290   7.080
 7629WAT     H223130   4.496   3.398   7.078
 7630WAT      O23131   3.956   3.890   8.313
 7630WAT     H123132   3.920   3.921   8.402
 7630WAT     H223133   3.931   3.956   8.242
 7631WAT      O23134   8.629   5.275   1.079
 7631WAT     H123135   8.549   5.336   1.081
 7631WAT     H223136   8.702   5.315   1.136
 7632WAT      O23137   0.710   2.447   7.362
 7632WAT     H123138   0.624   2.467   7.408
 7632WAT     H223139   0.700   2.364   7.307
 7633WAT      O23140   5.773   5.273   2.407
 7633WAT     H123141   5.776   5.302   2.312
 7633WAT     H223142   5.809   5.346   2.466
 7634WAT      O23143   1.584   3.387   4.724
 7634WAT     H123144   1.597   3.301   4.676
 7634WAT     H223145   1.672   3.423   4.755
 7635WAT      O23146   3.363   8.253   3.709
 7635WAT     H123147   3.267   8.267   3.733
 7635WAT     H223148   3.371   8.172   3.650
 7636WAT      O23149   9.722   9.031   7.178
 7636WAT     H123150   9.756   8.942   7.209
 7636WAT     H223151   9.719   9.094   7.256
 7637WAT      O23152   5.384   0.887   3.691
 7637WAT     H123153   5.444   0.852   3.619
 7637WAT     H223154   5.303   0.928   3.650
 7638WAT      O23155   7.051   4.826   2.019
 7638WAT     H123156   7.134   4.772   2.002
 7638WAT     H223157   7.077   4.919   2.044
 7639WAT      O23158   4.094   6.235   6.911
 7639WAT     H123159   4.172   6.179   6.938
 7639WAT     H223160   4.018   6.175   6.886
 7640WAT      O23161   6.874   1.159   9.130
 7640WAT     H123162   6.948   1.137   9.066
 7640WAT     H223163   6.913   1.184   9.219
 7641WAT      O23164   3.603   5.236   0.966
 7641WAT     H123165   3.636   5.147   0.937
 7641WAT     H223166   3.681   5.297   0.981
 7642WAT      O23167   9.166   7.758   9.777
 7642WAT     H123168   9.178   7.795   9.685
 7642WAT     H223169   9.191   7.829   9.844
 7643WAT      O23170   8.349   4.650   9.601
 7643WAT     H123171   8.255   4.673   9.624
 7643WAT     H223172   8.410   4.723   9.632
 7644WAT      O23173   2.804   0.193   6.664
 7644WAT     H123174   2.747   0.136   6.604
 7644WAT     H223175   2.757   0.279   6.682
 7645WAT      O23176   2.925   5.169   3.198
 7645WAT     H123177   3.005   5.110   3.206
 7645WAT     H223178   2.899   5.178   3.102
 7646WAT      O23179   5.860   5.243   3.228
 7646WAT     H123180   5.916   5.315   3.187
 7646WAT     H223181   5.845   5.263   3.325
 7647WAT      O23182   0.827   1.330   6.957
 7647WAT     H123183   0.877   1.307   7.041
 7647WAT     H223184   0.836   1.256   6.891
 7648WAT      O23185   2.888   9.621   1.515
 7648WAT     H123186   2.900   9.594   1.419
 7648WAT     H223187   2.973   9.660   1.550
 7649WAT      O23188   7.623   3.808   3.122
 7649WAT     H123189   7.552   3.746   3.089
 7649WAT     H223190   7.583   3.895   3.149
 7650WAT      O23191   2.418   9.295   8.869
 7650WAT     H123192   2.368   9.362   8.813
 7650WAT     H223193   2.412   9.320   8.965
 7651WAT      O23194   3.142   5.317   8.501
 7651WAT     H123195   3.142   5.223   8.534
 7651WAT     H223196   3.183   5.377   8.570
 7652WAT      O23197   7.676   9.028   3.582
 7652WAT     H123198   7.725   8.975   3.652
 7652WAT     H223199   7.742   9.077   3.525
 7653WAT      O23200   7.522   3.937   6.618
 7653WAT     H123201   7.515   4.037   6.610
 7653WAT     H223202   7.437   3.895   6.587
 7654WAT      O23203   6.028   6.305   2.135
 7654WAT     H123204   6.079   6.383   2.099
 7654WAT     H223205   5.939   6.300   2.091
 7655WAT      O23206   5.757   6.236   2.102
 7655WAT     H123207   5.689   6.162   2.095
 7655WAT     H223208   5.710   6.323   2.117
 7656WAT      O23209   4.731   9.823   8.624
 7656WAT     H123210   4.755   9.920   8.614
 7656WAT     H223211   4.661   9.813   8.693
 7657WAT      O23212   5.630   7.798   6.191
 7657WAT     H123213   5.532   7.819   6.197
 7657WAT     H223214   5.642   7.709   6.146
 7658WAT      O23215   8.888   6.151   1.551
 7658WAT     H123216   8.975   6.111   1.580
 7658WAT     H223217   8.817   6.127   1.616
 7659WAT      O23218   5.089   3.701   3.414
 7659WAT     H123219   5.179   3.700   3.372
 7659WAT     H223220   5.053   3.608   3.420
 7660WAT      O23221   2.125   8.279   6.814
 7660WAT     H123222   2.098   8.244   6.903
 7660WAT     H223223   2.067   8.357   6.790
 7661WAT      O23224   0.117   5.803   3.358
 7661WAT     H123225   0.178   5.869   3.402
 7661WAT     H223226   0.143   5.793   3.262
 7662WAT      O23227   2.362   1.195   1.931
 7662WAT     H123228   2.382   1.279   1.880
 7662WAT     H223229   2.383   1.116   1.874
 7663WAT      O23230   2.685   6.393   7.123
 7663WAT     H123231   2.603   6.437   7.162
 7663WAT     H223232   2.684   6.403   7.024
 7664WAT      O23233   7.540   4.666   3.475
 7664WAT     H123234   7.499   4.703   3.559
 7664WAT     H223235   7.596   4.587   3.498
 7665WAT      O23236   9.056   9.141   7.898
 7665WAT     H123237   9.145   9.120   7.940
 7665WAT     H223238   8.995   9.178   7.967
 7666WAT      O23239   2.891   0.423   0.366
 7666WAT     H123240   2.987   0.447   0.376
 7666WAT     H223241   2.848   0.422   0.457
 7667WAT      O23242   2.169   8.886   9.420
 7667WAT     H123243   2.224   8.930   9.490
 7667WAT     H223244   2.205   8.794   9.402
 7668WAT      O23245   8.022   3.526   7.436
 7668WAT     H123246   7.994   3.564   7.524
 7668WAT     H223247   8.078   3.593   7.387
 7669WAT      O23248   7.198   3.408   2.380
 7669WAT     H123249   7.182   3.312   2.359
 7669WAT     H223250   7.122   3.463   2.347
 7670WAT      O23251   8.828   3.073   8.196
 7670WAT     H123252   8.879   3.039   8.276
 7670WAT     H223253   8.841   3.010   8.119
 7671WAT      O23254   1.231   1.473   8.551
 7671WAT     H123255   1.213   1.544   8.483
 7671WAT     H223256   1.317   1.427   8.529
 7672WAT      O23257   8.184   2.121   5.867
 7672WAT     H123258   8.219   2.035   5.829
 7672WAT     H223259   8.160   2.107   5.963
 7673WAT      O23260   4.201   6.692   1.292
 7673WAT     H123261   4.234   6.641   1.372
 7673WAT     H223262   4.278   6.740   1.250
 7674WAT      O23263   7.858   5.173   2.620
 7674WAT     H123264   7.921   5.099   2.597
 7674WAT     H223265   7.902   5.236   2.684
 7675WAT      O23266   9.091   8.156   2.317
 7675WAT     H123267   8.993   8.174   2.322
 7675WAT     H223268   9.140   8.241   2.298
 7676WAT      O23269   4.922   8.046   3.126
 7676WAT     H123270   4.892   7.959   3.164
 7676WAT     H223271   5.017   8.038   3.095
 7677WAT      O23272   8.550   1.249   7.613
 7677WAT     H123273   8.545   1.348   7.629
 7677WAT     H223274   8.643   1.217   7.630
 7678WAT      O23275   1.987   7.806   5.275
 7678WAT     H123276   2.027   7.789   5.365
 7678WAT     H223277   1.944   7.896   5.274
 7679WAT      O23278   9.591   3.849   2.996
 7679WAT     H123279   9.582   3.757   2.959
 7679WAT     H223280   9.677   3.889   2.966
 7680WAT      O23281   2.068   1.264   7.254
 7680WAT     H123282   2.118   1.285   7.338
 7680WAT     H223283   1.970   1.277   7.270
 7681WAT      O23284   7.688   4.861   0.980
 7681WAT     H123285   7.649   4.817   0.899
 7681WAT     H223286   7.734   4.946   0.954
 7682WAT      O23287   0.073   3.108   5.017
 7682WAT     H123288   0.070   3.181   4.949
 7682WAT     H223289   0.110   3.143   5.103
 7683WAT      O23290   7.513   2.308   1.135
 7683WAT     H123291   7.439   2.241   1.139
 7683WAT     H223292   7.475   2.400   1.147
 7684WAT      O23293   5.780   1.903   9.234
 7684WAT     H123294   5.838   1.838   9.282
 7684WAT     H223295   5.830   1.987   9.218
 7685WAT      O23296   1.847   0.930   4.480
 7685WAT     H123297   1.900   0.850   4.450
 7685WAT     H223298   1.882   1.012   4.434
 7686WAT      O23299   8.809   3.545   9.174
 7686WAT     H123300   8.790   3.602   9.095
 7686WAT     H223301   8.787   3.596   9.258
 7687WAT      O23302   4.649   8.808   7.876
 7687WAT     H123303   4.560   8.767   7.898
 7687WAT     H223304   4.642   8.907   7.880
 7688WAT      O23305   9.172   6.247   3.227
 7688WAT     H123306   9.128   6.294   3.304
 7688WAT     H223307   9.215   6.315   3.167
 7689WAT      O23308   2.202   6.909   3.979
 7689WAT     H123309   2.254   6.824   3.993
 7689WAT     H223310   2.179   6.919   3.882
 7690WAT      O23311   6.879   2.876   7.371
 7690WAT     H123312   6.846   2.971   7.365
 7690WAT     H223313   6.978   2.875   7.363
 7691WAT      O23314   9.165   4.608   8.762
 7691WAT     H123315   9.087   4.579   8.705
 7691WAT     H223316   9.210   4.528   8.801
 7692WAT      O23317   6.701   5.273   6.305
 7692WAT     H123318   6.704   5.306   6.399
 7692WAT     H223319   6.762   5.195   6.295
 7693WAT      O23320   4.312   3.351   0.841
 7693WAT     H123321   4.235   3.292   0.817
 7693WAT     H223322   4.278   3.443   0.862
 7694WAT      O23323   5.677   1.595   5.663
 7694WAT     H123324   5.615   1.560   5.593
 7694WAT     H223325   5.668   1.695   5.668
 7695WAT      O23326   3.302   8.497   3.083
 7695WAT     H123327   3.314   8.595   3.063
 7695WAT     H223328   3.230   8.460   3.024
 7696WAT      O23329   9.763   0.767   7.183
 7696WAT     H123330   9.853   0.730   7.160
 7696WAT     H223331   9.756   0.781   7.281
 7697WAT      O23332   3.918   8.942   8.746
 7697WAT     H123333   3.977   8.892   8.682
 7697WAT     H223334   3.925   8.900   8.837
 7698WAT      O23335   1.200   0.974   8.984
 7698WAT     H123336   1.162   1.037   9.051
 7698WAT     H223337   1.161   0.883   8.999
 7699WAT      O23338   9.850   8.696   5.460
 7699WAT     H123339   9.910   8.757   5.409
 7699WAT     H223340   9.761   8.741   5.475
 7700WAT      O23341   1.133   7.538   1.367
 7700WAT     H123342   1.044   7.495   1.377
 7700WAT     H223343   1.149   7.563   1.272
 7701WAT      O23344   0.265   0.544   2.652
 7701WAT     H123345   0.335   0.527   2.583
 7701WAT     H223346   0.192   0.601   2.613
 7702WAT      O23347   5.686   2.922   6.308
 7702WAT     H123348   5.692   2.885   6.401
 7702WAT     H223349   5.601   2.891   6.266
 7703WAT      O23350   6.450   7.813   7.044
 7703WAT     H123351   6.431   7.793   7.140
 7703WAT     H223352   6.549   7.807   7.027
 7704WAT      O23353   8.628   2.085   3.833
 7704WAT     H123354   8.696   2.073   3.761
 7704WAT     H223355   8.563   2.008   3.831
 7705WAT      O23356   0.057   2.762   4.126
 7705WAT     H123357   0.028   2.679   4.076
 7705WAT     H223358  -0.012   2.785   4.194
 7706WAT      O23359   3.525   4.084   9.746
 7706WAT     H123360   3.539   4.088   9.845
 7706WAT     H223361   3.493   4.173   9.714
 7707WAT      O23362   5.584   8.029   7.978
 7707WAT     H123363   5.564   8.082   8.061
 7707WAT     H223364   5.533   7.943   7.980
 7708WAT      O23365   7.654   0.604   2.710
 7708WAT     H123366   7.566   0.648   2.693
 7708WAT     H223367   7.698   0.646   2.789
 7709WAT      O23368   0.144   6.223   7.577
 7709WAT     H123369   0.106   6.303   7.532
 7709WAT     H223370   0.218   6.185   7.522
 7710WAT      O23371   5.887   1.918   0.466
 7710WAT     H123372   5.872   1.988   0.396
 7710WAT     H223373   5.930   1.960   0.546
 7711WAT      O23374   1.923   2.329   3.023
 7711WAT     H123375   1.941   2.325   2.924
 7711WAT     H223376   2.001   2.371   3.069
 7712WAT      O23377   8.211   3.690   4.160
 7712WAT     H123378   8.295   3.646   4.191
 7712WAT     H223379   8.172   3.745   4.234
 7713WAT      O23380   4.860   2.694   4.434
 7713WAT     H123381   4.837   2.669   4.340
 7713WAT     H223382   4.777   2.691   4.490
 7714WAT      O23383   8.728   3.267   3.668
 7714WAT     H123384   8.703   3.172   3.686
 7714WAT     H223385   8.683   3.327   3.734
 7715WAT      O23386   6.702   2.053   5.297
 7715WAT     H123387   6.677   2.110   5.218
 7715WAT     H223388   6.665   1.961   5.285
 7716WAT      O23389   5.696   6.612   1.060
 7716WAT     H123390   5.644   6.693   1.032
 7716WAT     H223391   5.683   6.598   1.158
 7717WAT      O23392   0.851   5.771   5.372
 7717WAT     H123393   0.902   5.694   5.334
 7717WAT     H223394   0.753   5.759   5.353
 7718WAT      O23395   1.233   1.409   7.970
 7718WAT     H123396   1.296   1.424   8.047
 7718WAT     H223397   1.275   1.442   7.886
 7719WAT      O23398   7.209   2.710   5.254
 7719WAT     H123399   7.169   2.658   5.178
 7719WAT     H223400   7.279   2.771   5.219
 7720WAT      O23401   6.986   7.897   3.438
 7720WAT     H123402   7.066   7.893   3.497
 7720WAT     H223403   7.003   7.960   3.363
 7721WAT      O23404   7.806   0.356   9.385
 7721WAT     H123405   7.711   0.346   9.358
 7721WAT     H223406   7.832   0.280   9.445
 7722WAT      O23407   9.518   4.045   5.820
 7722WAT     H123408   9.510   4.142   5.795
 7722WAT     H223409   9.600   4.006   5.778
 7723WAT      O23410   5.341   3.121   0.009
 7723WAT     H123411   5.385   3.100  -0.078
 7723WAT     H223412   5.410   3.141   0.079
 7724WAT      O23413   5.036   5.303   8.833
 7724WAT     H123414   5.040   5.311   8.734
 7724WAT     H223415   5.116   5.254   8.867
 7725WAT      O23416   0.882   6.310   8.003
 7725WAT     H123417   0.896   6.237   8.069
 7725WAT     H223418   0.870   6.397   8.051
 7726WAT      O23419   0.230   5.758   5.149
 7726WAT     H123420   0.130   5.760   5.143
 7726WAT     H223421   0.269   5.777   5.059
 7727WAT      O23422   4.959   4.773   1.536
 7727WAT     H123423   4.986   4.685   1.574
 7727WAT     H223424   5.034   4.839   1.546
 7728WAT      O23425   2.090   7.818   5.810
 7728WAT     H123426   2.189   7.804   5.805
 7728WAT     H223427   2.069   7.915   5.801
 7729WAT      O23428   8.288   8.387   0.968
 7729WAT     H123429   8.220   8.319   0.993
 7729WAT     H223430   8.378   8.343   0.959
 7730WAT      O23431   8.000   4.397   5.494
 7730WAT     H123432   8.088   4.363   5.528
 7730WAT     H223433   7.943   4.319   5.468
 7731WAT      O23434   8.601   5.233   1.409
 7731WAT     H123435   8.518   5.238   1.353
 7731WAT     H223436   8.643   5.143   1.399
 7732WAT      O23437   7.084   4.692   1.380
 7732WAT     H123438   7.085   4.695   1.479
 7732WAT     H223439   7.033   4.770   1.344
 7733WAT      O23440   6.448   2.249   1.629
 7733WAT     H123441   6.483   2.255   1.722
 7733WAT     H223442   6.389   2.327   1.610
 7734WAT      O23443   3.748   6.858   7.586
 7734WAT     H123444   3.821   6.910   7.542
 7734WAT     H223445   3.787   6.803   7.660
 7735WAT      O23446   5.763   0.444   0.198
 7735WAT     H123447   5.671   0.479   0.178
 7735WAT     H223448   5.831   0.506   0.161
 7736WAT      O23449   9.026   0.783   8.007
 7736WAT     H123450   8.939   0.733   8.005
 7736WAT     H223451   9.044   0.814   8.101
 7737WAT      O23452   7.077   8.852   3.831
 7737WAT     H123453   7.027   8.903   3.901
 7737WAT     H223454   7.175   8.871   3.840
 7738WAT      O23455   8.441   3.982   1.817
 7738WAT     H123456   8.374   3.932   1.873
 7738WAT     H223457   8.508   4.026   1.877
 7739WAT      O23458   2.507   5.451   4.090
 7739WAT     H123459   2.473   5.453   4.185
 7739WAT     H223460   2.543   5.360   4.070
 7740WAT      O23461   6.428   7.541   8.471
 7740WAT     H123462   6.379   7.490   8.400
 7740WAT     H223463   6.364   7.599   8.520
 7741WAT      O23464   5.494   5.816   8.325
 7741WAT     H123465   5.482   5.722   8.359
 7741WAT     H223466   5.451   5.880   8.388
 7742WAT      O23467   0.402   1.982   1.839
 7742WAT     H123468   0.392   1.914   1.912
 7742WAT     H223469   0.323   1.977   1.778
 7743WAT      O23470   1.904   0.108   6.609
 7743WAT     H123471   1.943   0.062   6.529
 7743WAT     H223472   1.807   0.087   6.615
 7744WAT      O23473   8.162   3.246   5.200
 7744WAT     H123474   8.176   3.159   5.247
 7744WAT     H223475   8.163   3.231   5.101
 7745WAT      O23476   2.416   0.558   8.231
 7745WAT     H123477   2.508   0.574   8.267
 7745WAT     H223478   2.349   0.564   8.304
 7746WAT      O23479   4.741   4.971   3.747
 7746WAT     H123480   4.835   5.005   3.751
 7746WAT     H223481   4.741   4.872   3.753
 7747WAT      O23482   3.524   7.014   7.463
 7747WAT     H123483   3.526   7.008   7.563
 7747WAT     H223484   3.596   6.956   7.425
 7748WAT      O23485   9.658   8.051   4.726
 7748WAT     H123486   9.628   7.956   4.722
 7748WAT     H223487   9.583   8.109   4.757
 7749WAT      O23488   5.106   9.682   2.315
 7749WAT     H123489   5.073   9.593   2.347
 7749WAT     H223490   5.030   9.748   2.316
 7750WAT      O23491   4.313   5.310   6.047
 7750WAT     H123492   4.342   5.338   6.138
 7750WAT     H223493   4.214   5.293   6.047
 7751WAT      O23494   0.455   9.720   8.197
 7751WAT     H123495   0.429   9.810   8.230
 7751WAT     H223496   0.374   9.661   8.192
 7752WAT      O23497   9.177   3.238   5.438
 7752WAT     H123498   9.221   3.148   5.433
 7752WAT     H223499   9.081   3.227   5.463
 7753WAT      O23500   6.151   1.976   6.214
 7753WAT     H123501   6.137   2.066   6.174
 7753WAT     H223502   6.249   1.958   6.223
 7754WAT      O23503   7.790   2.729   1.010
 7754WAT     H123504   7.876   2.708   0.964
 7754WAT     H223505   7.713   2.696   0.955
 7755WAT      O23506   8.920   9.156   5.766
 7755WAT     H123507   8.987   9.214   5.813
 7755WAT     H223508   8.900   9.195   5.676
 7756WAT      O23509   3.391   3.737   1.581
 7756WAT     H123510   3.389   3.639   1.598
 7756WAT     H223511   3.399   3.785   1.669
 7757WAT      O23512   7.817   5.662   4.562
 7757WAT     H123513   7.796   5.721   4.483
 7757WAT     H223514   7.758   5.687   4.638
 7758WAT      O23515   1.514   8.973   8.265
 7758WAT     H123516   1.421   9.010   8.274
 7758WAT     H223517   1.509   8.880   8.229
 7759WAT      O23518   2.256   4.850   1.060
 7759WAT     H123519   2.319   4.780   1.025
 7759WAT     H223520   2.306   4.911   1.122
 7760WAT      O23521   0.408   1.259   5.249
 7760WAT     H123522   0.435   1.196   5.176
 7760WAT     H223523   0.394   1.350   5.211
 7761WAT      O23524   4.862   7.783   9.733
 7761WAT     H123525   4.786   7.761   9.672
 7761WAT     H223526   4.857   7.880   9.758
 7762WAT      O23527   1.391   5.917   7.299
 7762WAT     H123528   1.403   5.984   7.226
 7762WAT     H223529   1.409   5.960   7.387
 7763WAT      O23530   2.825   5.822   0.692
 7763WAT     H123531   2.792   5.909   0.727
 7763WAT     H223532   2.749   5.771   0.652
 7764WAT      O23533   8.984   7.223   8.036
 7764WAT     H123534   9.061   7.169   8.069
 7764WAT     H223535   9.018   7.305   7.990
 7765WAT      O23536   7.970   8.707   5.553
 7765WAT     H123537   7.999   8.796   5.518
 7765WAT     H223538   7.889   8.676   5.503
 7766WAT      O23539   2.465   3.971   5.710
 7766WAT     H123540   2.411   4.005   5.633
 7766WAT     H223541   2.435   3.878   5.733
 7767WAT      O23542   8.029   8.577   8.095
 7767WAT     H123543   8.114   8.629   8.103
 7767WAT     H223544   8.049   8.485   8.061
 7768WAT      O23545   9.268   3.868   6.174
 7768WAT     H123546   9.219   3.783   6.155
 7768WAT     H223547   9.342   3.850   6.240
 7769WAT      O23548   3.499   2.824   2.578
 7769WAT     H123549   3.517   2.726   2.571
 7769WAT     H223550   3.563   2.865   2.643
 7770WAT      O23551   0.352   6.496   9.442
 7770WAT     H123552   0.448   6.469   9.442
 7770WAT     H223553   0.335   6.560   9.516
 7771WAT      O23554   5.297   2.620   2.172
 7771WAT     H123555   5.228   2.606   2.244
 7771WAT     H223556   5.253   2.614   2.082
 7772WAT      O23557   0.627   4.586   7.024
 7772WAT     H123558   0.621   4.525   6.945
 7772WAT     H223559   0.542   4.639   7.031
 7773WAT      O23560   0.516   4.626   6.666
 7773WAT     H123561   0.506   4.551   6.733
 7773WAT     H223562   0.566   4.593   6.586
 7774WAT      O23563   0.811   8.111   7.691
 7774WAT     H123564   0.732   8.078   7.639
 7774WAT     H223565   0.803   8.210   7.706
 7775WAT      O23566   1.608   9.409   7.509
 7775WAT     H123567   1.628   9.316   7.539
 7775WAT     H223568   1.658   9.474   7.565
 7776WAT      O23569   4.705   9.007   9.411
 7776WAT     H123570   4.641   8.967   9.476
 7776WAT     H223571   4.785   9.041   9.460
 7777WAT      O23572   7.188   4.482   0.117
 7777WAT     H123573   7.139   4.484   0.204
 7777WAT     H223574   7.139   4.537   0.049
 7778WAT      O23575   7.576   9.703   9.307
 7778WAT     H123576   7.624   9.729   9.391
 7778WAT     H223577   7.500   9.643   9.330
 7779WAT      O23578   6.855   8.801   1.856
 7779WAT     H123579   6.850   8.820   1.954
 7779WAT     H223580   6.781   8.850   1.809
 7780WAT      O23581   4.261   2.332   1.004
 7780WAT     H123582   4.219   2.388   1.075
 7780WAT     H223583   4.325   2.388   0.952
 7781WAT      O23584   9.155   1.580   3.018
 7781WAT     H123585   9.200   1.526   2.947
 7781WAT     H223586   9.185   1.548   3.108
 7782WAT      O23587   1.536   0.104   1.986
 7782WAT     H123588   1.444   0.066   1.977
 7782WAT     H223589   1.533   0.183   2.047
 7783WAT      O23590   7.419   4.905   1.133
 7783WAT     H123591   7.411   4.917   1.232
 7783WAT     H223592   7.515   4.912   1.106
 7784WAT      O23593   2.872   8.760   4.577
 7784WAT     H123594   2.797   8.787   4.517
 7784WAT     H223595   2.951   8.819   4.561
 7785WAT      O23596   1.189   4.803   7.102
 7785WAT     H123597   1.276   4.821   7.148
 7785WAT     H223598   1.159   4.711   7.124
 7786WAT      O23599   7.489   2.320   6.204
 7786WAT     H123600   7.408   2.379   6.203
 7786WAT     H223601   7.571   2.377   6.215
 7787WAT      O23602   4.383   1.192   3.571
 7787WAT     H123603   4.306   1.146   3.616
 7787WAT     H223604   4.460   1.129   3.561
 7788WAT      O23605   6.960   4.550   0.908
 7788WAT     H123606   6.882   4.537   0.846
 7788WAT     H223607   6.969   4.647   0.929
 7789WAT      O23608   1.534   6.128   9.806
 7789WAT     H123609   1.497   6.219   9.792
 7789WAT     H223610   1.524   6.103   9.903
 7790WAT      O23611   2.106   0.043   9.895
 7790WAT     H123612   2.068   0.134   9.878
 7790WAT     H223613   2.045  -0.026   9.857
 7791WAT      O23614   9.185   9.340   9.091
 7791WAT     H123615   9.203   9.435   9.116
 7791WAT     H223616   9.271   9.290   9.087
 7792WAT      O23617   5.807   0.828   9.076
 7792WAT     H123618   5.827   0.755   9.011
 7792WAT     H223619   5.718   0.812   9.118
 7793WAT      O23620   8.569   5.983   4.628
 7793WAT     H123621   8.492   5.984   4.565
 7793WAT     H223622   8.594   6.077   4.652
 7794WAT      O23623   8.072   4.487   1.861
 7794WAT     H123624   8.137   4.421   1.823
 7794WAT     H223625   7.982   4.472   1.819
 7795WAT      O23626   2.538   9.587   2.566
 7795WAT     H123627   2.622   9.624   2.526
 7795WAT     H223628   2.525   9.623   2.658
 7796WAT      O23629   9.079   1.706   2.434
 7796WAT     H123630   9.143   1.661   2.496
 7796WAT     H223631   9.021   1.637   2.391
 7797WAT      O23632   4.392   1.061   5.193
 7797WAT     H123633   4.292   1.065   5.188
 7797WAT     H223634   4.431   1.146   5.157
 7798WAT      O23635   8.100   0.095   8.700
 7798WAT     H123636   8.055   0.174   8.740
 7798WAT     H223637   8.039   0.052   8.634
 7799WAT      O23638   8.760   2.399   1.702
 7799WAT     H123639   8.853   2.415   1.734
 7799WAT     H223640   8.732   2.474   1.642
 7800WAT      O23641   9.520   6.086   5.639
 7800WAT     H123642   9.581   6.143   5.694
 7800WAT     H223643   9.520   5.993   5.675
 7801WAT      O23644   7.766   2.587   7.438
 7801WAT     H123645   7.858   2.589   7.398
 7801WAT     H223646   7.700   2.556   7.369
 7802WAT      O23647   5.320   7.974   2.360
 7802WAT     H123648   5.378   8.011   2.432
 7802WAT     H223649   5.231   7.949   2.398
 7803WAT      O23650   3.125   0.535   4.955
 7803WAT     H123651   3.064   0.593   5.009
 7803WAT     H223652   3.219   0.568   4.964
 7804WAT      O23653   6.938   1.976   0.653
 7804WAT     H123654   6.949   1.993   0.555
 7804WAT     H223655   6.942   1.877   0.670
 7805WAT      O23656   8.264   4.066   0.425
 7805WAT     H123657   8.342   4.081   0.364
 7805WAT     H223658   8.179   4.088   0.377
 7806WAT      O23659   3.896   5.794   7.852
 7806WAT     H123660   3.973   5.738   7.821
 7806WAT     H223661   3.885   5.784   7.950
 7807WAT      O23662   3.373   3.276   9.363
 7807WAT     H123663   3.332   3.298   9.274
 7807WAT     H223664   3.373   3.358   9.420
 7808WAT      O23665   7.955   3.211   1.005
 7808WAT     H123666   7.952   3.268   1.087
 7808WAT     H223667   7.994   3.122   1.027
 7809WAT      O23668   5.877   8.567   8.124
 7809WAT     H123669   5.928   8.485   8.147
 7809WAT     H223670   5.779   8.546   8.121
 7810WAT      O23671   2.864   7.128   9.139
 7810WAT     H123672   2.918   7.202   9.101
 7810WAT     H223673   2.832   7.154   9.230
 7811WAT      O23674   4.435   5.563   2.125
 7811WAT     H123675   4.528   5.587   2.152
 7811WAT     H223676   4.404   5.625   2.052
 7812WAT      O23677   6.673   7.977   8.448
 7812WAT     H123678   6.616   8.057   8.468
 7812WAT     H223679   6.615   7.902   8.415
 7813WAT      O23680   6.796   6.327   1.970
 7813WAT     H123681   6.760   6.418   1.990
 7813WAT     H223682   6.794   6.272   2.054
 7814WAT      O23683   1.792   0.833   5.118
 7814WAT     H123684   1.741   0.914   5.146
 7814WAT     H223685   1.737   0.779   5.054
 7815WAT      O23686   4.175   1.861   5.968
 7815WAT     H123687   4.155   1.915   6.049
 7815WAT     H223688   4.089   1.839   5.920
 7816WAT      O23689   0.628   7.671   3.251
 7816WAT     H123690   0.591   7.668   3.158
 7816WAT     H223691   0.554   7.659   3.317
 7817WAT      O23692   1.586   6.227   1.357
 7817WAT     H123693   1.547   6.303   1.305
 7817WAT     H223694   1.663   6.188   1.307
 7818WAT      O23695   6.952   6.151   9.263
 7818WAT     H123696   6.965   6.112   9.355
 7818WAT     H223697   6.918   6.245   9.271
 7819WAT      O23698   9.058   9.314   7.306
 7819WAT     H123699   9.153   9.286   7.316
 7819WAT     H223700   9.016   9.321   7.397
 7820WAT      O23701   0.997   6.470   0.200
 7820WAT     H123702   1.037   6.539   0.140
 7820WAT     H223703   0.996   6.505   0.294
 7821WAT      O23704   1.935   8.649   6.721
 7821WAT     H123705   1.985   8.699   6.651
 7821WAT     H223706   1.866   8.709   6.762
 7822WAT      O23707   9.460   2.791   1.263
 7822WAT     H123708   9.536   2.851   1.290
 7822WAT     H223709   9.496   2.700   1.244
 7823WAT      O23710   3.984   6.132   0.535
 7823WAT     H123711   3.948   6.222   0.560
 7823WAT     H223712   3.917   6.084   0.479
 7824WAT      O23713   8.751   9.825   9.876
 7824WAT     H123714   8.824   9.892   9.867
 7824WAT     H223715   8.749   9.767   9.794
 7825WAT      O23716   4.467   5.127   1.182
 7825WAT     H123717   4.530   5.064   1.227
 7825WAT     H223718   4.511   5.166   1.101
 7826WAT      O23719   7.800   3.441   9.321
 7826WAT     H123720   7.735   3.417   9.393
 7826WAT     H223721   7.758   3.507   9.259
 7827WAT      O23722   7.320   7.925   5.496
 7827WAT     H123723   7.300   7.986   5.573
 7827WAT     H223724   7.402   7.872   5.517
 7828WAT      O23725   9.740   6.263   3.007
 7828WAT     H123726   9.723   6.351   2.963
 7828WAT     H223727   9.839   6.251   3.020
 7829WAT      O23728   2.993   3.213   0.981
 7829WAT     H123729   2.917   3.214   0.915
 7829WAT     H223730   3.049   3.294   0.968
 7830WAT      O23731   6.956   7.738   4.502
 7830WAT     H123732   7.024   7.783   4.559
 7830WAT     H223733   6.868   7.783   4.514
 7831WAT      O23734   6.972   3.199   8.709
 7831WAT     H123735   7.066   3.231   8.717
 7831WAT     H223736   6.962   3.143   8.627
 7832WAT      O23737   6.534   7.578   5.240
 7832WAT     H123738   6.559   7.544   5.331
 7832WAT     H223739   6.482   7.508   5.191
 7833WAT      O23740   2.681   5.759   6.949
 7833WAT     H123741   2.722   5.703   6.876
 7833WAT     H223742   2.681   5.855   6.922
 7834WAT      O23743   6.764   3.988   9.121
 7834WAT     H123744   6.667   3.970   9.138
 7834WAT     H223745   6.802   4.041   9.197
 7835WAT      O23746   9.010   3.727   8.196
 7835WAT     H123747   8.932   3.713   8.135
 7835WAT     H223748   9.041   3.822   8.189
 7836WAT      O23749   9.232   3.585   1.391
 7836WAT     H123750   9.314   3.578   1.448
 7836WAT     H223751   9.225   3.677   1.353
 7837WAT      O23752   6.255   9.377   1.891
 7837WAT     H123753   6.352   9.356   1.904
 7837WAT     H223754   6.237   9.471   1.917
 7838WAT      O23755   2.556   2.600   4.869
 7838WAT     H123756   2.514   2.610   4.779
 7838WAT     H223757   2.488   2.565   4.934
 7839WAT      O23758   8.696   2.565   1.515
 7839WAT     H123759   8.772   2.556   1.450
 7839WAT     H223760   8.685   2.661   1.539
 7840WAT      O23761   2.344   1.573   4.386
 7840WAT     H123762   2.423   1.517   4.362
 7840WAT     H223763   2.279   1.519   4.438
 7841WAT      O23764   1.964   0.982   8.842
 7841WAT     H123765   2.017   0.975   8.758
 7841WAT     H223766   2.012   1.040   8.907
 7842WAT      O23767   0.885   5.290   0.890
 7842WAT     H123768   0.820   5.221   0.859
 7842WAT     H223769   0.913   5.270   0.984
 7843WAT      O23770   9.264   7.214   7.219
 7843WAT     H123771   9.315   7.168   7.292
 7843WAT     H223772   9.204   7.284   7.258
 7844WAT      O23773   1.918   0.131   9.429
 7844WAT     H123774   1.845   0.097   9.488
 7844WAT     H223775   2.006   0.123   9.476
 7845WAT      O23776   1.077   1.840   8.077
 7845WAT     H123777   1.129   1.890   8.146
 7845WAT     H223778   1.013   1.777   8.123
 7846WAT      O23779   8.734   4.242   2.524
 7846WAT     H123780   8.682   4.328   2.527
 7846WAT     H223781   8.672   4.167   2.504
 7847WAT      O23782   6.646   9.272   6.766
 7847WAT     H123783   6.690   9.282   6.676
 7847WAT     H223784   6.547   9.287   6.756
 7848WAT      O23785   6.577   3.571   5.729
 7848WAT     H123786   6.608   3.666   5.724
 7848WAT     H223787   6.645   3.516   5.779
 7849WAT      O23788   9.105   3.587   5.298
 7849WAT     H123789   9.165   3.541   5.363
 7849WAT     H223790   9.083   3.524   5.223
 7850WAT      O23791   7.547   9.313   3.709
 7850WAT     H123792   7.494   9.232   3.685
 7850WAT     H223793   7.552   9.374   3.630
 7851WAT      O23794   2.768   3.699   5.560
 7851WAT     H123795   2.768   3.677   5.463
 7851WAT     H223796   2.761   3.798   5.572
 7852WAT      O23797   0.565   4.865   4.723
 7852WAT     H123798   0.633   4.793   4.739
 7852WAT     H223799   0.478   4.837   4.763
 7853WAT      O23800   7.654   5.165   0.340
 7853WAT     H123801   7.651   5.072   0.378
 7853WAT     H223802   7.628   5.162   0.244
 7854WAT      O23803   5.564   3.020   7.921
 7854WAT     H123804   5.606   2.929   7.924
 7854WAT     H223805   5.471   3.015   7.958
 7855WAT      O23806   3.293   7.298   8.955
 7855WAT     H123807   3.338   7.386   8.939
 7855WAT     H223808   3.195   7.308   8.942
 7856WAT      O23809   5.163   9.634   9.170
 7856WAT     H123810   5.243   9.654   9.113
 7856WAT     H223811   5.192   9.589   9.255
 7857WAT      O23812   5.505   4.999   6.999
 7857WAT     H123813   5.437   4.941   7.044
 7857WAT     H223814   5.487   5.095   7.020
 7858WAT      O23815   3.622   6.299   7.178
 7858WAT     H123816   3.721   6.313   7.172
 7858WAT     H223817   3.603   6.215   7.228
 7859WAT      O23818   7.645   0.904   5.093
 7859WAT     H123819   7.569   0.905   5.157
 7859WAT     H223820   7.691   0.993   5.094
 7860WAT      O23821   2.914   4.019   0.490
 7860WAT     H123822   2.946   4.105   0.452
 7860WAT     H223823   2.844   3.979   0.431
 7861WAT      O23824   5.361   4.202   7.849
 7861WAT     H123825   5.436   4.252   7.891
 7861WAT     H223826   5.280   4.209   7.907
 7862WAT      O23827   7.950   5.898   2.164
 7862WAT     H123828   7.934   5.827   2.233
 7862WAT     H223829   7.928   5.987   2.203
 7863WAT      O23830   9.276   4.824   5.342
 7863WAT     H123831   9.223   4.768   5.279
 7863WAT     H223832   9.330   4.891   5.291
 7864WAT      O23833   6.268   7.527   2.420
 7864WAT     H123834   6.321   7.447   2.391
 7864WAT     H223835   6.185   7.533   2.365
 7865WAT      O23836   4.601   3.852   8.576
 7865WAT     H123837   4.507   3.826   8.599
 7865WAT     H223838   4.659   3.771   8.573
 7866WAT      O23839   3.738   7.653   7.191
 7866WAT     H123840   3.816   7.608   7.236
 7866WAT     H223841   3.723   7.611   7.102
 7867WAT      O23842   9.738   5.599   0.993
 7867WAT     H123843   9.728   5.673   1.059
 7867WAT     H223844   9.787   5.632   0.912
 7868WAT      O23845   5.071   5.164   0.504
 7868WAT     H123846   5.059   5.199   0.597
 7868WAT     H223847   5.001   5.094   0.486
 7869WAT      O23848   8.642   9.783   7.438
 7869WAT     H123849   8.730   9.779   7.390
 7869WAT     H223850   8.594   9.696   7.425
 7870WAT      O23851   5.136   1.859   4.011
 7870WAT     H123852   5.118   1.812   3.925
 7870WAT     H223853   5.206   1.929   3.996
 7871WAT      O23854   0.401   0.481   6.012
 7871WAT     H123855   0.367   0.485   6.106
 7871WAT     H223856   0.331   0.516   5.950
 7872WAT      O23857   9.623   3.640   0.614
 7872WAT     H123858   9.609   3.546   0.583
 7872WAT     H223859   9.715   3.670   0.587
 7873WAT      O23860   5.352   2.395   4.052
 7873WAT     H123861   5.422   2.442   4.105
 7873WAT     H223862   5.307   2.327   4.110
 7874WAT      O23863   1.538   4.932   0.782
 7874WAT     H123864   1.490   5.000   0.837
 7874WAT     H223865   1.574   4.975   0.699
 7875WAT      O23866   8.846   4.141   1.695
 7875WAT     H123867   8.835   4.064   1.758
 7875WAT     H223868   8.828   4.111   1.602
 7876WAT      O23869   3.783   7.815   8.876
 7876WAT     H123870   3.793   7.742   8.808
 7876WAT     H223871   3.736   7.779   8.956
 7877WAT      O23872   9.373   9.625   8.164
 7877WAT     H123873   9.460   9.609   8.117
 7877WAT     H223874   9.302   9.568   8.122
 7878WAT      O23875   9.340   1.486   4.632
 7878WAT     H123876   9.416   1.421   4.627
 7878WAT     H223877   9.362   1.558   4.698
 7879WAT      O23878   9.476   0.283   4.772
 7879WAT     H123879   9.453   0.279   4.675
 7879WAT     H223880   9.404   0.238   4.825
 7880WAT      O23881   6.940   3.279   7.622
 7880WAT     H123882   6.939   3.378   7.609
 7880WAT     H223883   7.035   3.247   7.629
 7881WAT      O23884   3.958   7.955   9.691
 7881WAT     H123885   3.951   8.055   9.699
 7881WAT     H223886   3.995   7.932   9.601
 7882WAT      O23887   9.140   7.548   6.257
 7882WAT     H123888   9.128   7.640   6.293
 7882WAT     H223889   9.237   7.525   6.253
 7883WAT      O23890   5.402   4.855   8.264
 7883WAT     H123891   5.397   4.832   8.167
 7883WAT     H223892   5.311   4.846   8.306
 7884WAT      O23893   1.050   6.866   9.119
 7884WAT     H123894   1.091   6.882   9.209
 7884WAT     H223895   1.123   6.855   9.051
 7885WAT      O23896   0.131   2.082   0.489
 7885WAT     H123897   0.050   2.026   0.469
 7885WAT     H223898   0.205   2.056   0.429
 7886WAT      O23899   3.254   7.191   0.248
 7886WAT     H123900   3.317   7.113   0.249
 7886WAT     H223901   3.203   7.192   0.163
 7887WAT      O23902   0.227   4.781   1.270
 7887WAT     H123903   0.141   4.831   1.279
 7887WAT     H223904   0.296   4.824   1.328
 7888WAT      O23905   1.739   2.129   7.484
 7888WAT     H123906   1.779   2.209   7.529
 7888WAT     H223907   1.668   2.091   7.543
 7889WAT      O23908   4.043   8.213   8.253
 7889WAT     H123909   3.995   8.260   8.327
 7889WAT     H223910   3.998   8.235   8.166
 7890WAT      O23911   8.050   4.926   4.980
 7890WAT     H123912   8.143   4.915   5.015
 7890WAT     H223913   7.993   4.970   5.049
 7891WAT      O23914   9.587   5.396   3.675
 7891WAT     H123915   9.539   5.482   3.693
 7891WAT     H223916   9.587   5.340   3.757
 7892WAT      O23917   2.178   4.989   3.288
 7892WAT     H123918   2.266   4.951   3.318
 7892WAT     H223919   2.126   4.918   3.240
 7893WAT      O23920   2.041   7.631   2.029
 7893WAT     H123921   1.953   7.601   1.993
 7893WAT     H223922   2.032   7.723   2.067
 7894WAT      O23923   0.280   3.034   4.535
 7894WAT     H123924   0.194   3.030   4.585
 7894WAT     H223925   0.316   2.941   4.522
 7895WAT      O23926   9.098   2.756   6.466
 7895WAT     H123927   9.026   2.767   6.398
 7895WAT     H223928   9.082   2.674   6.519
 7896WAT      O23929   9.641   5.615   7.271
 7896WAT     H123930   9.583   5.697   7.275
 7896WAT     H223931   9.671   5.600   7.177
 7897WAT      O23932   6.777   0.321   5.087
 7897WAT     H123933   6.835   0.335   5.168
 7897WAT     H223934   6.701   0.261   5.111
 7898WAT      O23935   5.510   2.712   0.006
 7898WAT     H123936   5.594   2.656   0.008
 7898WAT     H223937   5.495   2.752   0.097
 7899WAT      O23938   9.407   0.255   4.492
 7899WAT     H123939   9.319   0.299   4.472
 7899WAT     H223940   9.464   0.257   4.410
 7900WAT      O23941   5.008   9.371   0.570
 7900WAT     H123942   5.018   9.272   0.560
 7900WAT     H223943   4.966   9.392   0.659
 7901WAT      O23944   6.007   2.420   8.272
 7901WAT     H123945   5.959   2.473   8.202
 7901WAT     H223946   6.105   2.443   8.269
 7902WAT      O23947   0.338   4.281   8.377
 7902WAT     H123948   0.306   4.367   8.419
 7902WAT     H223949   0.283   4.262   8.296
 7903WAT      O23950   5.824   4.271   7.257
 7903WAT     H123951   5.806   4.209   7.333
 7903WAT     H223952   5.739   4.313   7.226
 7904WAT      O23953   9.669   3.118   7.505
 7904WAT     H123954   9.711   3.062   7.575
 7904WAT     H223955   9.608   3.062   7.450
 7905WAT      O23956   7.308   7.585   6.352
 7905WAT     H123957   7.375   7.516   6.325
 7905WAT     H223958   7.273   7.631   6.271
 7906WAT      O23959   1.261   6.092   4.113
 7906WAT     H123960   1.332   6.028   4.083
 7906WAT     H223961   1.262   6.173   4.054
 7907WAT      O23962   6.825   6.127   8.153
 7907WAT     H123963   6.812   6.221   8.185
 7907WAT     H223964   6.903   6.086   8.202
 7908WAT      O23965   2.829   3.033   0.023
 7908WAT     H123966   2.730   3.026   0.006
 7908WAT     H223967   2.864   3.118  -0.017
 7909WAT      O23968   6.299   9.592   7.965
 7909WAT     H123969   6.356   9.666   7.999
 7909WAT     H223970   6.348   9.542   7.894
 7910WAT      O23971   2.704   6.506   6.244
 7910WAT     H123972   2.676   6.460   6.328
 7910WAT     H223973   2.799   6.481   6.222
 7911WAT      O23974   7.182   8.960   4.593
 7911WAT     H123975   7.097   8.963   4.646
 7911WAT     H223976   7.212   9.054   4.574
 7912WAT      O23977   4.675   0.048   2.081
 7912WAT     H123978   4.628  -0.000   2.007
 7912WAT     H223979   4.647   0.011   2.169
 7913WAT      O23980   9.342   5.036   8.935
 7913WAT     H123981   9.293   5.120   8.912
 7913WAT     H223982   9.314   4.963   8.874
 7914WAT      O23983   4.118   4.887   6.728
 7914WAT     H123984   4.141   4.795   6.760
 7914WAT     H223985   4.026   4.886   6.687
 7915WAT      O23986   2.520   0.678   9.226
 7915WAT     H123987   2.546   0.726   9.310
 7915WAT     H223988   2.601   0.634   9.188
 7916WAT      O23989   6.948   2.072   2.448
 7916WAT     H123990   6.924   2.073   2.351
 7916WAT     H223991   6.873   2.110   2.502
 7917WAT      O23992   7.296   0.604   4.471
 7917WAT     H123993   7.293   0.611   4.371
 7917WAT     H223994   7.207   0.631   4.509
 7918WAT      O23995   7.155   3.782   6.331
 7918WAT     H123996   7.195   3.841   6.261
 7918WAT     H223997   7.058   3.770   6.313
 7919WAT      O23998   6.996   4.239   3.277
 7919WAT     H123999   6.964   4.295   3.201
 7919WAT     H224000   6.949   4.151   3.276
 7920WAT      O24001   5.836   8.884   3.041
 7920WAT     H124002   5.868   8.811   3.102
 7920WAT     H224003   5.815   8.845   2.952
 7921WAT      O24004   9.187   1.122   1.007
 7921WAT     H124005   9.119   1.058   0.971
 7921WAT     H224006   9.179   1.127   1.107
 7922WAT      O24007   1.148   8.262   7.024
 7922WAT     H124008   1.056   8.296   7.043
 7922WAT     H224009   1.215   8.326   7.060
 7923WAT      O24010   2.535   9.210   1.472
 7923WAT     H124011   2.547   9.165   1.560
 7923WAT     H224012   2.570   9.304   1.477
 7924WAT      O24013   8.988   9.404   2.918
 7924WAT     H124014   8.919   9.470   2.945
 7924WAT     H224015   9.043   9.441   2.843
 7925WAT      O24016   4.082   1.525   9.405
 7925WAT     H124017   4.169   1.489   9.373
 7925WAT     H224018   4.060   1.609   9.356
 7926WAT      O24019   1.111   0.994   9.401
 7926WAT     H124020   1.120   0.960   9.495
 7926WAT     H224021   1.199   0.992   9.355
 7927WAT      O24022   1.842   4.330   5.239
 7927WAT     H124023   1.806   4.302   5.150
 7927WAT     H224024   1.766   4.359   5.297
 7928WAT      O24025   4.449   3.761   8.975
 7928WAT     H124026   4.399   3.692   8.922
 7928WAT     H224027   4.385   3.810   9.034
 7929WAT      O24028   7.400   8.171   4.175
 7929WAT     H124029   7.393   8.072   4.161
 7929WAT     H224030   7.402   8.218   4.086
 7930WAT      O24031   7.113   3.745   1.300
 7930WAT     H124032   7.068   3.806   1.235
 7930WAT     H224033   7.147   3.664   1.252
 7931WAT      O24034   0.783   4.682   4.779
 7931WAT     H124035   0.880   4.674   4.760
 7931WAT     H224036   0.743   4.591   4.787
 7932WAT      O24037   4.836   7.146   4.327
 7932WAT     H124038   4.768   7.091   4.278
 7932WAT     H224039   4.903   7.182   4.262
 7933WAT      O24040   8.538   3.729   1.077
 7933WAT     H124041   8.512   3.633   1.075
 7933WAT     H224042   8.488   3.776   1.150
 7934WAT      O24043   8.981   4.647   3.258
 7934WAT     H124044   9.013   4.741   3.245
 7934WAT     H224045   8.911   4.625   3.191
 7935WAT      O24046   7.570   7.304   8.808
 7935WAT     H124047   7.648   7.245   8.829
 7935WAT     H224048   7.522   7.328   8.893
 7936WAT      O24049   9.410   7.253   4.771
 7936WAT     H124050   9.434   7.278   4.865
 7936WAT     H224051   9.398   7.154   4.765
 7937WAT      O24052   8.449   8.612   8.326
 7937WAT     H124053   8.539   8.574   8.306
 7937WAT     H224054   8.455   8.676   8.402
 7938WAT      O24055   6.861   7.345   6.528
 7938WAT     H124056   6.789   7.406   6.496
 7938WAT     H224057   6.947   7.368   6.482
 7939WAT      O24058   5.772   6.358   5.502
 7939WAT     H124059   5.836   6.434   5.488
 7939WAT     H224060   5.823   6.277   5.532
 7940WAT      O24061   8.406   9.435   9.552
 7940WAT     H124062   8.325   9.393   9.592
 7940WAT     H224063   8.486   9.414   9.609
 7941WAT      O24064   4.576   4.296   1.952
 7941WAT     H124065   4.635   4.309   2.032
 7941WAT     H224066   4.483   4.276   1.982
 7942WAT      O24067   5.417   0.253   6.285
 7942WAT     H124068   5.452   0.336   6.242
 7942WAT     H224069   5.319   0.246   6.268
 7943WAT      O24070   3.979   3.418   8.495
 7943WAT     H124071   3.894   3.368   8.479
 7943WAT     H224072   3.987   3.493   8.430
 7944WAT      O24073   8.031   0.055   7.608
 7944WAT     H124074   7.945   0.059   7.658
 7944WAT     H224075   8.047   0.142   7.561
 7945WAT      O24076   4.356   5.119   2.724
 7945WAT     H124077   4.389   5.173   2.646
 7945WAT     H224078   4.431   5.065   2.762
 7946WAT      O24079   9.073   4.659   1.488
 7946WAT     H124080   9.001   4.591   1.502
 7946WAT     H224081   9.160   4.613   1.473
 7947WAT      O24082   1.773   0.461   0.853
 7947WAT     H124083   1.705   0.534   0.858
 7947WAT     H224084   1.836   0.468   0.930
 7948WAT      O24085   0.190   4.501   2.777
 7948WAT     H124086   0.159   4.587   2.736
 7948WAT     H224087   0.270   4.520   2.834
 7949WAT      O24088   8.403   0.836   6.558
 7949WAT     H124089   8.391   0.811   6.462
 7949WAT     H224090   8.375   0.931   6.572
 7950WAT      O24091   8.999   6.728   6.031
 7950WAT     H124092   9.007   6.725   5.931
 7950WAT     H224093   8.925   6.791   6.056
 7951WAT      O24094   0.899   1.562   7.230
 7951WAT     H124095   0.822   1.513   7.271
 7951WAT     H224096   0.865   1.625   7.160
 7952WAT      O24097   6.674   4.128   3.324
 7952WAT     H124098   6.671   4.114   3.423
 7952WAT     H224099   6.769   4.126   3.293
 7953WAT      O24100   4.041   5.924   6.662
 7953WAT     H124101   3.965   5.925   6.597
 7953WAT     H224102   4.044   5.836   6.709
 7954WAT      O24103   2.283   8.958   9.662
 7954WAT     H124104   2.184   8.968   9.677
 7954WAT     H224105   2.313   8.870   9.700
 7955WAT      O24106   9.435   7.440   1.826
 7955WAT     H124107   9.504   7.430   1.898
 7955WAT     H224108   9.457   7.379   1.750
 7956WAT      O24109   6.542   4.960   1.258
 7956WAT     H124110   6.610   4.931   1.191
 7956WAT     H224111   6.451   4.960   1.216
 7957WAT      O24112   2.045   7.113   6.021
 7957WAT     H124113   2.048   7.065   6.108
 7957WAT     H224114   1.951   7.140   6.001
 7958WAT      O24115   8.282   0.006   3.239
 7958WAT     H124116   8.191   0.006   3.281
 7958WAT     H224117   8.280   0.060   3.155
 7959WAT      O24118   7.403   0.735   3.665
 7959WAT     H124119   7.475   0.790   3.708
 7959WAT     H224120   7.355   0.683   3.735
 7960WAT      O24121   7.782   0.373   4.551
 7960WAT     H124122   7.753   0.446   4.488
 7960WAT     H224123   7.870   0.336   4.521
 7961WAT      O24124   5.182   4.732   2.314
 7961WAT     H124125   5.118   4.779   2.375
 7961WAT     H224126   5.263   4.790   2.300
 7962WAT      O24127   4.880   3.888   7.208
 7962WAT     H124128   4.821   3.942   7.266
 7962WAT     H224129   4.835   3.870   7.120
 7963WAT      O24130   2.752   7.251   6.619
 7963WAT     H124131   2.750   7.351   6.628
 7963WAT     H224132   2.749   7.210   6.710
 7964WAT      O24133   5.947   0.012   4.365
 7964WAT     H124134   5.959   0.111   4.356
 7964WAT     H224135   5.961  -0.031   4.276
 7965WAT      O24136   8.032   5.273   3.019
 7965WAT     H124137   8.056   5.183   2.981
 7965WAT     H224138   8.098   5.298   3.089
 7966WAT      O24139   5.017   5.122   2.620
 7966WAT     H124140   4.990   5.167   2.534
 7966WAT     H224141   4.997   5.183   2.697
 7967WAT      O24142   8.796   2.548   0.236
 7967WAT     H124143   8.836   2.509   0.319
 7967WAT     H224144   8.811   2.647   0.236
 7968WAT      O24145   1.325   9.308   6.058
 7968WAT     H124146   1.285   9.216   6.058
 7968WAT     H224147   1.325   9.344   5.965
 7969WAT      O24148   6.721   7.669   6.860
 7969WAT     H124149   6.632   7.626   6.845
 7969WAT     H224150   6.751   7.714   6.776
 7970WAT      O24151   8.285   3.610   4.447
 7970WAT     H124152   8.194   3.621   4.488
 7970WAT     H224153   8.353   3.656   4.505
 7971WAT      O24154   9.498   1.022   3.825
 7971WAT     H124155   9.554   1.086   3.878
 7971WAT     H224156   9.423   0.987   3.883
 7972WAT      O24157   7.610   9.597   7.986
 7972WAT     H124158   7.681   9.551   8.038
 7972WAT     H224159   7.652   9.650   7.912
 7973WAT      O24160   0.753   0.288   9.156
 7973WAT     H124161   0.821   0.359   9.171
 7973WAT     H224162   0.754   0.223   9.232
 7974WAT      O24163   2.578   4.602   8.026
 7974WAT     H124164   2.484   4.623   7.999
 7974WAT     H224165   2.581   4.514   8.072
 7975WAT      O24166   3.352   5.382   6.661
 7975WAT     H124167   3.361   5.285   6.686
 7975WAT     H224168   3.413   5.437   6.719
 7976WAT      O24169   2.272   3.303   4.862
 7976WAT     H124170   2.250   3.367   4.789
 7976WAT     H224171   2.228   3.215   4.844
 7977WAT      O24172   6.138   4.164   0.187
 7977WAT     H124173   6.190   4.122   0.261
 7977WAT     H224174   6.182   4.250   0.160
 7978WAT      O24175   4.778   0.813   4.144
 7978WAT     H124176   4.869   0.845   4.116
 7978WAT     H224177   4.783   0.716   4.167
 7979WAT      O24178   5.745   9.835   7.031
 7979WAT     H124179   5.718   9.814   6.937
 7979WAT     H224180   5.695   9.915   7.063
 7980WAT      O24181   4.913   6.813   5.126
 7980WAT     H124182   4.877   6.834   5.035
 7980WAT     H224183   4.841   6.774   5.182
 7981WAT      O24184   0.661   8.401   0.941
 7981WAT     H124185   0.696   8.308   0.956
 7981WAT     H224186   0.591   8.398   0.870
 7982WAT      O24187   7.872   9.591   2.622
 7982WAT     H124188   7.823   9.531   2.559
 7982WAT     H224189   7.960   9.551   2.645
 7983WAT      O24190   2.668   1.102   1.188
 7983WAT     H124191   2.695   1.195   1.166
 7983WAT     H224192   2.739   1.058   1.243
 7984WAT      O24193   6.290   9.638   1.955
 7984WAT     H124194   6.284   9.660   1.858
 7984WAT     H224195   6.386   9.642   1.983
 7985WAT      O24196   7.419   4.753   9.349
 7985WAT     H124197   7.429   4.852   9.361
 7985WAT     H224198   7.493   4.719   9.291
 7986WAT      O24199   2.275   5.248   2.029
 7986WAT     H124200   2.334   5.232   1.950
 7986WAT     H224201   2.187   5.284   1.998
 7987WAT      O24202   3.619   1.230   7.507
 7987WAT     H124203   3.630   1.330   7.505
 7987WAT     H224204   3.689   1.189   7.449
 7988WAT      O24205   1.848   8.094   5.208
 7988WAT     H124206   1.866   8.149   5.289
 7988WAT     H224207   1.908   8.124   5.133
 7989WAT      O24208   5.983   6.169   4.392
 7989WAT     H124209   5.984   6.084   4.339
 7989WAT     H224210   5.917   6.161   4.467
 7990WAT      O24211   3.072   2.965   5.390
 7990WAT     H124212   3.062   2.922   5.300
 7990WAT     H224213   2.991   2.946   5.445
 7991WAT      O24214   2.392   2.559   9.599
 7991WAT     H124215   2.401   2.626   9.673
 7991WAT     H224216   2.314   2.583   9.542
 7992WAT      O24217   9.800   1.707   6.342
 7992WAT     H124218   9.813   1.610   6.362
 7992WAT     H224219   9.754   1.717   6.254
 7993WAT      O24220   3.176   2.690   7.480
 7993WAT     H124221   3.184   2.664   7.576
 7993WAT     H224222   3.087   2.732   7.464
 7994WAT      O24223   8.406   9.196   3.395
 7994WAT     H124224   8.419   9.260   3.320
 7994WAT     H224225   8.495   9.160   3.424
 7995WAT      O24226   5.402   2.216   3.622
 7995WAT     H124227   5.335   2.144   3.640
 7995WAT     H224228   5.361   2.305   3.642
 7996WAT      O24229   8.597   9.308   6.009
 7996WAT     H124230   8.657   9.229   6.006
 7996WAT     H224231   8.545   9.308   6.095
 7997WAT      O24232   5.908   5.379   9.838
 7997WAT     H124233   5.866   5.438   9.769
 7997WAT     H224234   5.840   5.352   9.905
 7998WAT      O24235   6.428   2.801   9.387
 7998WAT     H124236   6.456   2.896   9.399
 7998WAT     H224237   6.336   2.797   9.348
 7999WAT      O24238   8.710   8.208   7.216
 7999WAT     H124239   8.804   8.195   7.248
 7999WAT     H224240   8.646   8.177   7.287
 8000WAT      O24241   1.267   7.279   4.718
 8000WAT     H124242   1.355   7.297   4.763
 8000WAT     H224243   1.276   7.295   4.620
 8001WAT      O24244   7.593   3.926   7.338
 8001WAT     H124245   7.610   3.999   7.404
 8001WAT     H224246   7.533   3.960   7.265
 8002WAT      O24247   7.751   8.390   3.168
 8002WAT     H124248   7.787   8.437   3.249
 8002WAT     H224249   7.705   8.456   3.109
 8003WAT      O24250   4.373   4.989   5.236
 8003WAT     H124251   4.459   4.995   5.187
 8003WAT     H224252   4.389   4.958   5.330
 8004WAT      O24253   7.139   7.792   2.123
 8004WAT     H124254   7.201   7.766   2.197
 8004WAT     H224255   7.069   7.854   2.159
 8005WAT      O24256   5.005   4.741   6.784
 8005WAT     H124257   4.951   4.721   6.866
 8005WAT     H224258   5.065   4.819   6.803
 8006WAT      O24259   1.751   9.052   6.428
 8006WAT     H124260   1.674   9.100   6.470
 8006WAT     H224261   1.751   8.957   6.459
 8007WAT      O24262   8.062   8.619   6.485
 8007WAT     H124263   7.983   8.603   6.544
 8007WAT     H224264   8.071   8.543   6.420
 8008WAT      O24265   9.021   2.970   6.136
 8008WAT     H124266   9.033   3.035   6.062
 8008WAT     H224267   9.040   3.016   6.224
 8009WAT      O24268   6.640   0.181   3.451
 8009WAT     H124269   6.688   0.100   3.418
 8009WAT     H224270   6.563   0.154   3.509
 8010WAT      O24271   9.818   7.151   4.934
 8010WAT     H124272   9.801   7.134   4.837
 8010WAT     H224273   9.738   7.126   4.987
 8011WAT      O24274   5.622   9.735   8.839
 8011WAT     H124275   5.631   9.666   8.767
 8011WAT     H224276   5.710   9.781   8.852
 8012WAT      O24277   0.532   6.889   8.007
 8012WAT     H124278   0.539   6.829   8.087
 8012WAT     H224279   0.437   6.893   7.977
 8013WAT      O24280   2.495   2.382   6.288
 8013WAT     H124281   2.479   2.479   6.270
 8013WAT     H224282   2.467   2.360   6.381
 8014WAT      O24283   5.012   5.429   9.851
 8014WAT     H124284   5.016   5.362   9.925
 8014WAT     H224285   5.016   5.522   9.889
 8015WAT      O24286   8.144   0.034   2.770
 8015WAT     H124287   8.222   0.021   2.709
 8015WAT     H224288   8.174   0.080   2.854
 8016WAT      O24289   5.093   8.084   4.231
 8016WAT     H124290   5.165   8.154   4.224
 8016WAT     H224291   5.130   8.003   4.276
 8017WAT      O24292   5.939   9.247   4.058
 8017WAT     H124293   5.962   9.325   4.116
 8017WAT     H224294   5.841   9.247   4.038
 8018WAT      O24295   4.797   7.674   5.921
 8018WAT     H124296   4.711   7.695   5.967
 8018WAT     H224297   4.863   7.747   5.940
 8019WAT      O24298   6.951   1.162   4.233
 8019WAT     H124299   6.977   1.213   4.151
 8019WAT     H224300   6.889   1.088   4.208
 8020WAT      O24301   1.275   5.025   4.681
 8020WAT     H124302   1.353   5.049   4.623
 8020WAT     H224303   1.295   5.051   4.776
 8021WAT      O24304   1.402   5.600   4.013
 8021WAT     H124305   1.471   5.567   3.948
 8021WAT     H224306   1.369   5.524   4.069
 8022WAT      O24307   4.730   4.702   5.474
 8022WAT     H124308   4.645   4.673   5.430
 8022WAT     H224309   4.770   4.778   5.423
 8023WAT      O24310   9.661   7.928   0.714
 8023WAT     H124311   9.627   7.877   0.635
 8023WAT     H224312   9.756   7.901   0.733
 8024WAT      O24313   3.907   3.916   0.951
 8024WAT     H124314   3.873   3.823   0.956
 8024WAT     H224315   3.897   3.951   0.858
 8025WAT      O24316   0.655   2.340   0.404
 8025WAT     H124317   0.631   2.379   0.493
 8025WAT     H224318   0.587   2.271   0.379
 8026WAT      O24319   6.338   1.704   2.089
 8026WAT     H124320   6.383   1.695   2.000
 8026WAT     H224321   6.382   1.776   2.142
 8027WAT      O24322   8.657   0.870   4.211
 8027WAT     H124323   8.661   0.946   4.146
 8027WAT     H224324   8.676   0.904   4.303
 8028WAT      O24325   9.167   1.413   9.605
 8028WAT     H124326   9.144   1.418   9.508
 8028WAT     H224327   9.141   1.499   9.650
 8029WAT      O24328   7.913   2.813   2.453
 8029WAT     H124329   7.818   2.840   2.434
 8029WAT     H224330   7.932   2.823   2.551
 8030WAT      O24331   4.933   0.074   2.251
 8030WAT     H124332   4.965   0.121   2.334
 8030WAT     H224333   4.921   0.141   2.178
 8031WAT      O24334   7.618   7.877   6.115
 8031WAT     H124335   7.670   7.944   6.167
 8031WAT     H224336   7.579   7.920   6.034
 8032WAT      O24337   4.075   3.530   9.616
 8032WAT     H124338   4.083   3.543   9.517
 8032WAT     H224339   4.150   3.578   9.662
 8033WAT      O24340   6.258   4.942   8.382
 8033WAT     H124341   6.186   4.875   8.363
 8033WAT     H224342   6.223   5.012   8.444
 8034WAT      O24343   2.420   2.566   3.428
 8034WAT     H124344   2.343   2.550   3.490
 8034WAT     H224345   2.479   2.638   3.465
 8035WAT      O24346   8.531   8.593   7.493
 8035WAT     H124347   8.577   8.509   7.465
 8035WAT     H224348   8.567   8.623   7.581
 8036WAT      O24349   8.819   1.275   1.776
 8036WAT     H124350   8.878   1.300   1.853
 8036WAT     H224351   8.724   1.293   1.800
 8037WAT      O24352   2.832   3.501   4.215
 8037WAT     H124353   2.745   3.542   4.190
 8037WAT     H224354   2.852   3.523   4.311
 8038WAT      O24355   0.516   7.071   9.409
 8038WAT     H124356   0.426   7.096   9.446
 8038WAT     H224357   0.571   7.027   9.481
 8039WAT      O24358   4.338   5.816   4.182
 8039WAT     H124359   4.392   5.872   4.246
 8039WAT     H224360   4.248   5.798   4.222
 8040WAT      O24361   5.163   2.466   7.810
 8040WAT     H124362   5.161   2.483   7.711
 8040WAT     H224363   5.087   2.407   7.835
 8041WAT      O24364   6.124   6.915   2.884
 8041WAT     H124365   6.160   6.938   2.974
 8041WAT     H224366   6.025   6.905   2.889
 8042WAT      O24367   7.853   5.065   7.062
 8042WAT     H124368   7.763   5.027   7.086
 8042WAT     H224369   7.916   4.991   7.041
 8043WAT      O24370   6.469   4.837   0.339
 8043WAT     H124371   6.481   4.881   0.428
 8043WAT     H224372   6.395   4.769   0.346
 8044WAT      O24373   4.329   1.122   0.851
 8044WAT     H124374   4.345   1.037   0.800
 8044WAT     H224375   4.264   1.105   0.924
 8045WAT      O24376   0.471   9.526   3.942
 8045WAT     H124377   0.514   9.616   3.950
 8045WAT     H224378   0.531   9.465   3.891
 8046WAT      O24379   7.055   5.058   7.741
 8046WAT     H124380   6.960   5.060   7.773
 8046WAT     H224381   7.103   4.981   7.783
 8047WAT      O24382   4.294   6.810   6.775
 8047WAT     H124383   4.229   6.826   6.701
 8047WAT     H224384   4.381   6.852   6.753
 8048WAT      O24385   0.059   2.090   4.888
 8048WAT     H124386   0.126   2.102   4.962
 8048WAT     H224387   0.096   2.127   4.803
 8049WAT      O24388   3.452   9.326   7.982
 8049WAT     H124389   3.523   9.374   7.929
 8049WAT     H224390   3.362   9.355   7.950
 8050WAT      O24391   7.330   7.067   4.822
 8050WAT     H124392   7.247   7.011   4.824
 8050WAT     H224393   7.390   7.036   4.748
 8051WAT      O24394   3.069   9.445   4.728
 8051WAT     H124395   3.024   9.397   4.803
 8051WAT     H224396   3.032   9.413   4.641
 8052WAT      O24397   0.904   5.971   5.875
 8052WAT     H124398   0.999   5.989   5.902
 8052WAT     H224399   0.903   5.933   5.783
 8053WAT      O24400   6.938   8.810   0.600
 8053WAT     H124401   6.931   8.873   0.678
 8053WAT     H224402   6.943   8.863   0.515
 8054WAT      O24403   9.295   6.382   6.696
 8054WAT     H124404   9.231   6.347   6.765
 8054WAT     H224405   9.249   6.451   6.640
 8055WAT      O24406   4.150   9.319   4.256
 8055WAT     H124407   4.217   9.253   4.222
 8055WAT     H224408   4.154   9.402   4.200
 8056WAT      O24409   7.686   7.509   2.463
 8056WAT     H124410   7.751   7.480   2.392
 8056WAT     H224411   7.732   7.569   2.529
 8057WAT      O24412   7.863   5.004   3.854
 8057WAT     H124413   7.925   5.082   3.852
 8057WAT     H224414   7.851   4.973   3.948
 8058WAT      O24415   4.438   7.976   6.777
 8058WAT     H124416   4.368   8.002   6.710
 8058WAT     H224417   4.395   7.927   6.853
 8059WAT      O24418   2.282   5.542   6.714
 8059WAT     H124419   2.245   5.621   6.665
 8059WAT     H224420   2.221   5.464   6.703
 8060WAT      O24421   8.309   9.029   6.609
 8060WAT     H124422   8.220   9.007   6.648
 8060WAT     H224423   8.377   9.036   6.682
 8061WAT      O24424   9.590   2.058   1.275
 8061WAT     H124425   9.535   2.101   1.203
 8061WAT     H224426   9.542   1.978   1.309
 8062WAT      O24427   4.686   7.493   3.455
 8062WAT     H124428   4.636   7.552   3.519
 8062WAT     H224429   4.718   7.548   3.378
 8063WAT      O24430   8.464   4.991   0.917
 8063WAT     H124431   8.542   4.988   0.979
 8063WAT     H224432   8.497   4.990   0.823
 8064WAT      O24433   7.522   0.790   4.536
 8064WAT     H124434   7.470   0.872   4.509
 8064WAT     H224435   7.459   0.721   4.571
 8065WAT      O24436   0.192   5.074   5.105
 8065WAT     H124437   0.164   5.076   5.201
 8065WAT     H224438   0.292   5.078   5.099
 8066WAT      O24439   9.369   6.435   8.541
 8066WAT     H124440   9.351   6.348   8.587
 8066WAT     H224441   9.466   6.440   8.517
 8067WAT      O24442   3.248   2.586   0.743
 8067WAT     H124443   3.217   2.647   0.670
 8067WAT     H224444   3.323   2.529   0.709
 8068WAT      O24445   6.017   6.349   4.881
 8068WAT     H124446   6.061   6.388   4.800
 8068WAT     H224447   6.056   6.259   4.901
 8069WAT      O24448   0.931   7.650   3.643
 8069WAT     H124449   0.974   7.578   3.699
 8069WAT     H224450   1.000   7.718   3.619
 8070WAT      O24451   1.296   4.493   0.081
 8070WAT     H124452   1.235   4.440   0.139
 8070WAT     H224453   1.307   4.585   0.119
 8071WAT      O24454   2.049   2.963   0.291
 8071WAT     H124455   2.057   3.007   0.381
 8071WAT     H224456   2.098   2.876   0.291
 8072WAT      O24457   2.865   9.487   9.704
 8072WAT     H124458   2.891   9.534   9.789
 8072WAT     H224459   2.770   9.507   9.683
 8073WAT      O24460   3.334   8.491   9.290
 8073WAT     H124461   3.279   8.538   9.220
 8073WAT     H224462   3.419   8.542   9.304
 8074WAT      O24463   5.712   5.547   5.236
 8074WAT     H124464   5.755   5.633   5.263
 8074WAT     H224465   5.723   5.480   5.309
 8075WAT      O24466   5.394   1.627   4.373
 8075WAT     H124467   5.439   1.538   4.371
 8075WAT     H224468   5.327   1.632   4.299
 8076WAT      O24469   6.012   3.092   0.506
 8076WAT     H124470   6.111   3.094   0.496
 8076WAT     H224471   5.982   3.166   0.566
 8077WAT      O24472   0.353   7.066   2.706
 8077WAT     H124473   0.345   7.154   2.753
 8077WAT     H224474   0.338   7.079   2.608
 8078WAT      O24475   8.385   5.895   5.836
 8078WAT     H124476   8.319   5.903   5.762
 8078WAT     H224477   8.451   5.823   5.815
 8079WAT      O24478   1.795   3.023   2.201
 8079WAT     H124479   1.890   3.006   2.177
 8079WAT     H224480   1.774   2.980   2.289
 8080WAT      O24481   4.552   2.002   5.419
 8080WAT     H124482   4.575   1.970   5.511
 8080WAT     H224483   4.567   1.928   5.354
 8081WAT      O24484   7.015   3.668   3.607
 8081WAT     H124485   6.926   3.689   3.649
 8081WAT     H224486   7.033   3.570   3.615
 8082WAT      O24487   2.957   4.631   9.020
 8082WAT     H124488   3.042   4.587   8.993
 8082WAT     H224489   2.976   4.725   9.049
 8083WAT      O24490   6.978   2.593   7.621
 8083WAT     H124491   6.937   2.672   7.577
 8083WAT     H224492   6.907   2.531   7.653
 8084WAT      O24493   5.645   6.734   9.108
 8084WAT     H124494   5.598   6.705   9.025
 8084WAT     H224495   5.694   6.820   9.091
 8085WAT      O24496   2.385   6.038   0.765
 8085WAT     H124497   2.464   6.037   0.827
 8085WAT     H224498   2.303   6.015   0.817
 8086WAT      O24499   1.206   0.176   2.234
 8086WAT     H124500   1.242   0.245   2.171
 8086WAT     H224501   1.171   0.098   2.181
 8087WAT      O24502   7.261   0.251   5.660
 8087WAT     H124503   7.235   0.155   5.659
 8087WAT     H224504   7.232   0.294   5.574
 8088WAT      O24505   1.921   9.283   6.576
 8088WAT     H124506   1.935   9.234   6.491
 8088WAT     H224507   1.899   9.379   6.556
 8089WAT      O24508   3.252   4.047   2.083
 8089WAT     H124509   3.316   3.992   2.138
 8089WAT     H224510   3.291   4.065   1.993
 8090WAT      O24511   8.117   1.051   9.775
 8090WAT     H124512   8.036   1.001   9.744
 8090WAT     H224513   8.138   1.026   9.869
 8091WAT      O24514   6.690   6.202   0.151
 8091WAT     H124515   6.595   6.187   0.124
 8091WAT     H224516   6.738   6.251   0.078
 8092WAT      O24517   3.721   2.775   2.083
 8092WAT     H124518   3.723   2.682   2.120
 8092WAT     H224519   3.655   2.829   2.134
 8093WAT      O24520   1.157   4.138   0.059
 8093WAT     H124521   1.067   4.177   0.076
 8093WAT     H224522   1.149   4.040   0.045
 8094WAT      O24523   0.978   7.337   9.286
 8094WAT     H124524   0.929   7.251   9.271
 8094WAT     H224525   0.955   7.373   9.376
 8095WAT      O24526   6.339   9.188   2.315
 8095WAT     H124527   6.376   9.233   2.234
 8095WAT     H224528   6.353   9.247   2.395
 8096WAT      O24529   3.769   0.351   2.605
 8096WAT     H124530   3.812   0.438   2.581
 8096WAT     H224531   3.824   0.276   2.568
 8097WAT      O24532   2.760   4.033   9.168
 8097WAT     H124533   2.711   4.113   9.202
 8097WAT     H224534   2.831   4.007   9.233
 8098WAT      O24535   9.560   0.995   7.826
 8098WAT     H124536   9.483   0.965   7.883
 8098WAT     H224537   9.636   0.931   7.836
 8099WAT      O24538   1.274   8.353   1.923
 8099WAT     H124539   1.219   8.418   1.977
 8099WAT     H224540   1.235   8.261   1.933
 8100WAT      O24541   4.487   7.273   4.427
 8100WAT     H124542   4.470   7.178   4.401
 8100WAT     H224543   4.578   7.282   4.466
 8101WAT      O24544   4.573   7.661   4.247
 8101WAT     H124545   4.605   7.605   4.171
 8101WAT     H224546   4.526   7.603   4.313
 8102WAT      O24547   4.758   6.543   0.775
 8102WAT     H124548   4.702   6.463   0.755
 8102WAT     H224549   4.797   6.578   0.690
 8103WAT      O24550   6.051   2.732   3.762
 8103WAT     H124551   6.031   2.688   3.850
 8103WAT     H224552   6.143   2.772   3.765
 8104WAT      O24553   1.262   2.747   6.718
 8104WAT     H124554   1.200   2.791   6.653
 8104WAT     H224555   1.357   2.765   6.691
 8105WAT      O24556   2.591   9.367   5.495
 8105WAT     H124557   2.498   9.396   5.473
 8105WAT     H224558   2.654   9.403   5.426
 8106WAT      O24559   0.495   1.574   7.682
 8106WAT     H124560   0.521   1.489   7.635
 8106WAT     H224561   0.508   1.562   7.780
 8107WAT      O24562   0.417   6.760   2.025
 8107WAT     H124563   0.355   6.722   2.094
 8107WAT     H224564   0.364   6.800   1.951
 8108WAT      O24565   0.321   1.272   2.193
 8108WAT     H124566   0.371   1.229   2.118
 8108WAT     H224567   0.375   1.347   2.230
 8109WAT      O24568   6.680   6.245   9.011
 8109WAT     H124569   6.620   6.249   8.931
 8109WAT     H224570   6.650   6.170   9.071
 8110WAT      O24571   9.529   9.817   6.206
 8110WAT     H124572   9.476   9.852   6.128
 8110WAT     H224573   9.568   9.729   6.181
 8111WAT      O24574   8.594   6.834   5.017
 8111WAT     H124575   8.623   6.908   4.957
 8111WAT     H224576   8.657   6.827   5.094
 8112WAT      O24577   5.143   6.593   2.559
 8112WAT     H124578   5.149   6.671   2.496
 8112WAT     H224579   5.152   6.508   2.508
 8113WAT      O24580   8.535   6.246   4.485
 8113WAT     H124581   8.501   6.165   4.437
 8113WAT     H224582   8.477   6.325   4.463
 8114WAT      O24583   1.987   8.288   0.629
 8114WAT     H124584   1.974   8.201   0.676
 8114WAT     H224585   2.058   8.279   0.560
 8115WAT      O24586   7.079   1.568   7.915
 8115WAT     H124587   7.166   1.534   7.950
 8115WAT     H224588   7.083   1.668   7.907
 8116WAT      O24589   0.282   8.096   8.186
 8116WAT     H124590   0.213   8.138   8.245
 8116WAT     H224591   0.269   8.128   8.092
 8117WAT      O24592   1.332   6.273   9.316
 8117WAT     H124593   1.413   6.235   9.271
 8117WAT     H224594   1.306   6.214   9.392
 8118WAT      O24595   8.880   1.123   3.962
 8118WAT     H124596   8.862   1.025   3.967
 8118WAT     H224597   8.869   1.154   3.867
 8119WAT      O24598   2.527   8.413   6.690
 8119WAT     H124599   2.571   8.416   6.600
 8119WAT     H224600   2.520   8.505   6.728
 8120WAT      O24601   7.702   4.374   5.851
 8120WAT     H124602   7.624   4.410   5.798
 8120WAT     H224603   7.717   4.279   5.826
 8121WAT      O24604   1.033   8.189   7.289
 8121WAT     H124605   0.960   8.257   7.279
 8121WAT     H224606   1.044   8.140   7.202
 8122WAT      O24607   0.378   9.496   3.162
 8122WAT     H124608   0.396   9.498   3.063
 8122WAT     H224609   0.461   9.465   3.210
 8123WAT      O24610   0.120   1.412   5.508
 8123WAT     H124611   0.180   1.477   5.555
 8123WAT     H224612   0.104   1.443   5.415
 8124WAT      O24613   8.323   0.917   5.471
 8124WAT     H124614   8.348   0.903   5.375
 8124WAT     H224615   8.366   1.001   5.505
 8125WAT      O24616   8.443   3.238   6.307
 8125WAT     H124617   8.469   3.329   6.337
 8125WAT     H224618   8.526   3.182   6.296
 8126WAT      O24619   9.559   0.930   4.469
 8126WAT     H124620   9.594   0.868   4.538
 8126WAT     H224621   9.461   0.946   4.484
 8127WAT      O24622   7.619   7.929   8.155
 8127WAT     H124623   7.670   7.879   8.225
 8127WAT     H224624   7.682   7.978   8.095
 8128WAT      O24625   0.378   2.260   1.928
 8128WAT     H124626   0.401   2.167   1.900
 8128WAT     H224627   0.294   2.289   1.884
 8129WAT      O24628   2.559   9.762   8.045
 8129WAT     H124629   2.637   9.817   8.014
 8129WAT     H224630   2.483   9.822   8.070
 8130WAT      O24631   7.525   7.816   7.933
 8130WAT     H124632   7.453   7.751   7.957
 8130WAT     H224633   7.550   7.869   8.014
 8131WAT      O24634   0.449   2.611   7.310
 8131WAT     H124635   0.483   2.543   7.245
 8131WAT     H224636   0.403   2.564   7.385
 8132WAT      O24637   7.682   7.255   4.663
 8132WAT     H124638   7.770   7.211   4.644
 8132WAT     H224639   7.608   7.190   4.647
 8133WAT      O24640   6.801   9.470   0.213
 8133WAT     H124641   6.847   9.469   0.124
 8133WAT     H224642   6.808   9.379   0.255
 8134WAT      O24643   7.067   7.639   2.816
 8134WAT     H124644   7.100   7.546   2.802
 8134WAT     H224645   6.967   7.640   2.811
 8135WAT      O24646   6.532   7.783   5.957
 8135WAT     H124647   6.476   7.700   5.953
 8135WAT     H224648   6.628   7.758   5.949
 8136WAT      O24649   4.848   6.110   0.586
 8136WAT     H124650   4.866   6.014   0.608
 8136WAT     H224651   4.927   6.148   0.537
 8137WAT      O24652   7.723   9.101   1.401
 8137WAT     H124653   7.783   9.157   1.457
 8137WAT     H224654   7.682   9.157   1.329
 8138WAT      O24655   5.004   5.018   8.319
 8138WAT     H124656   4.920   4.985   8.277
 8138WAT     H224657   5.051   4.943   8.364
 8139WAT      O24658   1.905   0.794   1.628
 8139WAT     H124659   1.888   0.740   1.546
 8139WAT     H224660   1.895   0.736   1.709
 8140WAT      O24661   6.138   3.847   0.725
 8140WAT     H124662   6.172   3.753   0.726
 8140WAT     H224663   6.040   3.847   0.705
 8141WAT      O24664   1.715   2.110   3.670
 8141WAT     H124665   1.771   2.104   3.587
 8141WAT     H224666   1.619   2.116   3.644
 8142WAT      O24667   8.737   0.242   0.454
 8142WAT     H124668   8.792   0.312   0.499
 8142WAT     H224669   8.788   0.205   0.376
 8143WAT      O24670   9.641   8.689   3.029
 8143WAT     H124671   9.729   8.643   3.020
 8143WAT     H224672   9.619   8.737   2.944
 8144WAT      O24673   4.745   0.971   0.838
 8144WAT     H124674   4.694   1.007   0.917
 8144WAT     H224675   4.805   0.898   0.869
 8145WAT      O24676   3.362   8.119   7.862
 8145WAT     H124677   3.440   8.060   7.841
 8145WAT     H224678   3.349   8.123   7.961
 8146WAT      O24679   9.165   3.085   1.308
 8146WAT     H124680   9.237   3.142   1.269
 8146WAT     H224681   9.180   2.990   1.282
 8147WAT      O24682   5.944   1.285   2.438
 8147WAT     H124683   6.004   1.365   2.430
 8147WAT     H224684   5.996   1.207   2.471
 8148WAT      O24685   1.716   8.245   8.600
 8148WAT     H124686   1.651   8.187   8.649
 8148WAT     H224687   1.748   8.197   8.518
 8149WAT      O24688   7.847   3.367   9.005
 8149WAT     H124689   7.864   3.421   9.087
 8149WAT     H224690   7.762   3.397   8.962
 8150WAT      O24691   7.145   7.325   2.843
 8150WAT     H124692   7.225   7.307   2.786
 8150WAT     H224693   7.173   7.330   2.939
 8151WAT      O24694   5.553   4.969   5.195
 8151WAT     H124695   5.550   4.982   5.096
 8151WAT     H224696   5.469   4.925   5.225
 8152WAT      O24697   0.314   1.627   0.216
 8152WAT     H124698   0.256   1.552   0.247
 8152WAT     H224699   0.376   1.654   0.289
 8153WAT      O24700   9.111   3.207   9.166
 8153WAT     H124701   9.041   3.265   9.126
 8153WAT     H224702   9.167   3.260   9.229
 8154WAT      O24703   0.307   5.025   1.752
 8154WAT     H124704   0.331   5.055   1.844
 8154WAT     H224705   0.310   5.103   1.689
 8155WAT      O24706   1.235   7.440   7.585
 8155WAT     H124707   1.271   7.371   7.522
 8155WAT     H224708   1.138   7.423   7.600
 8156WAT      O24709   4.014   2.439   9.235
 8156WAT     H124710   4.054   2.461   9.324
 8156WAT     H224711   4.088   2.422   9.169
 8157WAT      O24712   9.873   0.753   3.729
 8157WAT     H124713   9.864   0.662   3.688
 8157WAT     H224714   9.850   0.823   3.661
 8158WAT      O24715   0.679   0.730   8.329
 8158WAT     H124716   0.777   0.747   8.336
 8158WAT     H224717   0.652   0.727   8.233
 8159WAT      O24718   5.319   3.668   7.112
 8159WAT     H124719   5.379   3.598   7.150
 8159WAT     H224720   5.240   3.680   7.172
 8160WAT      O24721   2.039   2.892   9.172
 8160WAT     H124722   2.081   2.808   9.138
 8160WAT     H224723   2.039   2.891   9.272
 8161WAT      O24724   0.834   9.721   3.182
 8161WAT     H124725   0.906   9.776   3.139
 8161WAT     H224726   0.745   9.756   3.154
 8162WAT      O24727   7.822   5.357   5.409
 8162WAT     H124728   7.789   5.349   5.503
 8162WAT     H224729   7.922   5.363   5.410
 8163WAT      O24730   3.984   4.238   0.462
 8163WAT     H124731   4.022   4.172   0.527
 8163WAT     H224732   3.990   4.202   0.370
 8164WAT      O24733   1.074   3.290   5.368
 8164WAT     H124734   1.124   3.218   5.320
 8164WAT     H224735   1.120   3.378   5.352
 8165WAT      O24736   9.344   9.071   2.018
 8165WAT     H124737   9.425   9.031   2.061
 8165WAT     H224738   9.361   9.079   1.919
 8166WAT      O24739   5.438   5.318   0.045
 8166WAT     H124740   5.454   5.222   0.021
 8166WAT     H224741   5.344   5.329   0.078
 8167WAT      O24742   4.054   7.606   6.466
 8167WAT     H124743   4.108   7.550   6.402
 8167WAT     H224744   4.030   7.551   6.546
 8168WAT      O24745   6.511   5.373   0.670
 8168WAT     H124746   6.478   5.466   0.656
 8168WAT     H224747   6.597   5.376   0.721
 8169WAT      O24748   3.230   0.566   5.792
 8169WAT     H124749   3.302   0.601   5.852
 8169WAT     H224750   3.272   0.520   5.713
 8170WAT      O24751   6.785   9.690   1.485
 8170WAT     H124752   6.817   9.783   1.467
 8170WAT     H224753   6.806   9.665   1.579
 8171WAT      O24754   8.123   5.679   8.307
 8171WAT     H124755   8.197   5.735   8.271
 8171WAT     H224756   8.092   5.716   8.394
 8172WAT      O24757   6.930   8.568   2.722
 8172WAT     H124758   6.840   8.540   2.754
 8172WAT     H224759   6.945   8.532   2.630
 8173WAT      O24760   4.384   8.448   7.087
 8173WAT     H124761   4.432   8.411   7.008
 8173WAT     H224762   4.338   8.533   7.062
 8174WAT      O24763   5.883   7.227   4.130
 8174WAT     H124764   5.907   7.130   4.138
 8174WAT     H224765   5.875   7.251   4.033
 8175WAT      O24766   5.097   7.969   7.950
 8175WAT     H124767   5.113   7.904   8.024
 8175WAT     H224768   5.075   7.919   7.866
 8176WAT      O24769   0.358   1.772   7.229
 8176WAT     H124770   0.321   1.727   7.147
 8176WAT     H224771   0.458   1.766   7.227
 8177WAT      O24772   6.415   2.748   7.782
 8177WAT     H124773   6.468   2.706   7.709
 8177WAT     H224774   6.388   2.841   7.755
 8178WAT      O24775   7.064   4.523   1.825
 8178WAT     H124776   7.045   4.484   1.916
 8178WAT     H224777   7.160   4.549   1.819
 8179WAT      O24778   8.911   8.157   0.465
 8179WAT     H124779   8.829   8.103   0.448
 8179WAT     H224780   8.981   8.099   0.506
 8180WAT      O24781   3.192   1.520   4.240
 8180WAT     H124782   3.210   1.428   4.274
 8180WAT     H224783   3.260   1.583   4.278
 8181WAT      O24784   2.913   7.667   1.516
 8181WAT     H124785   2.937   7.583   1.565
 8181WAT     H224786   2.859   7.726   1.576
 8182WAT      O24787   0.161   7.504   9.777
 8182WAT     H124788   0.227   7.535   9.709
 8182WAT     H224789   0.136   7.409   9.758
 8183WAT      O24790   9.475   4.444   4.021
 8183WAT     H124791   9.446   4.366   4.077
 8183WAT     H224792   9.562   4.479   4.055
 8184WAT      O24793   3.664   5.307   9.464
 8184WAT     H124794   3.682   5.381   9.528
 8184WAT     H224795   3.655   5.344   9.372
 8185WAT      O24796   7.189   3.661   6.938
 8185WAT     H124797   7.205   3.759   6.946
 8185WAT     H224798   7.100   3.638   6.979
 8186WAT      O24799   1.445   6.651   5.052
 8186WAT     H124800   1.533   6.605   5.042
 8186WAT     H224801   1.461   6.746   5.081
 8187WAT      O24802   8.793   2.778   9.773
 8187WAT     H124803   8.835   2.690   9.752
 8187WAT     H224804   8.796   2.793   9.872
 8188WAT      O24805   6.856   5.120   4.961
 8188WAT     H124806   6.927   5.139   4.893
 8188WAT     H224807   6.766   5.141   4.923
 8189WAT      O24808   0.820   1.025   4.697
 8189WAT     H124809   0.892   1.086   4.730
 8189WAT     H224810   0.804   0.952   4.763
 8190WAT      O24811   0.296   6.509   5.326
 8190WAT     H124812   0.387   6.532   5.359
 8190WAT     H224813   0.238   6.482   5.403
 8191WAT      O24814   8.763   0.083   7.101
 8191WAT     H124815   8.839   0.069   7.165
 8191WAT     H224816   8.701   0.152   7.137
 8192WAT      O24817   9.202   8.708   3.992
 8192WAT     H124818   9.263   8.764   4.048
 8192WAT     H224819   9.223   8.721   3.895
 8193WAT      O24820   7.965   3.573   1.108
 8193WAT     H124821   7.912   3.657   1.115
 8193WAT     H224822   8.063   3.596   1.101
 8194WAT      O24823   3.483   3.162   3.891
 8194WAT     H124824   3.558   3.096   3.886
 8194WAT     H224825   3.450   3.168   3.985
 8195WAT      O24826   8.263   9.129   3.951
 8195WAT     H124827   8.241   9.154   4.045
 8195WAT     H224828   8.354   9.087   3.948
 8196WAT      O24829   4.768   3.319   2.207
 8196WAT     H124830   4.668   3.318   2.209
 8196WAT     H224831   4.802   3.227   2.189
 8197WAT      O24832   9.279   3.907   6.832
 8197WAT     H124833   9.191   3.864   6.815
 8197WAT     H224834   9.271   4.006   6.822
 8198WAT      O24835   2.122   2.482   1.395
 8198WAT     H124836   2.203   2.469   1.338
 8198WAT     H224837   2.080   2.393   1.413
 8199WAT      O24838   2.273   0.505   8.461
 8199WAT     H124839   2.223   0.559   8.528
 8199WAT     H224840   2.291   0.414   8.497
 8200WAT      O24841   6.590   9.348   6.416
 8200WAT     H124842   6.514   9.289   6.389
 8200WAT     H224843   6.667   9.290   6.445
 8201WAT      O24844   9.392   7.063   8.538
 8201WAT     H124845   9.435   7.018   8.460
 8201WAT     H224846   9.437   7.150   8.556
 8202WAT      O24847   8.843   6.931   2.305
 8202WAT     H124848   8.905   6.939   2.227
 8202WAT     H224849   8.847   6.838   2.341
 8203WAT      O24850   1.899   2.691   0.167
 8203WAT     H124851   1.983   2.687   0.221
 8203WAT     H224852   1.842   2.767   0.198
 8204WAT      O24853   6.612   8.203   2.050
 8204WAT     H124854   6.689   8.220   2.112
 8204WAT     H224855   6.546   8.144   2.096
 8205WAT      O24856   2.268   8.408   1.833
 8205WAT     H124857   2.279   8.334   1.766
 8205WAT     H224858   2.305   8.379   1.921
 8206WAT      O24859   7.236   3.572   3.884
 8206WAT     H124860   7.235   3.643   3.954
 8206WAT     H224861   7.319   3.517   3.893
 8207WAT      O24862   0.534   8.428   3.896
 8207WAT     H124863   0.497   8.346   3.852
 8207WAT     H224864   0.628   8.442   3.868
 8208WAT      O24865   0.910   3.685   2.294
 8208WAT     H124866   0.978   3.637   2.239
 8208WAT     H224867   0.847   3.734   2.233
 8209WAT      O24868   7.148   6.829   0.401
 8209WAT     H124869   7.131   6.927   0.397
 8209WAT     H224870   7.246   6.812   0.410
 8210WAT      O24871   4.622   3.515   6.805
 8210WAT     H124872   4.555   3.580   6.842
 8210WAT     H224873   4.581   3.424   6.799
 8211WAT      O24874   7.344   0.051   2.775
 8211WAT     H124875   7.315   0.134   2.728
 8211WAT     H224876   7.411   0.075   2.846
 8212WAT      O24877   3.206   8.803   7.322
 8212WAT     H124878   3.202   8.772   7.418
 8212WAT     H224879   3.160   8.736   7.264
 8213WAT      O24880   5.045   9.583   7.941
 8213WAT     H124881   5.015   9.488   7.950
 8213WAT     H224882   4.982   9.632   7.880
 8214WAT      O24883   2.148   3.608   2.466
 8214WAT     H124884   2.170   3.560   2.551
 8214WAT     H224885   2.049   3.618   2.458
 8215WAT      O24886   5.298   3.517   4.904
 8215WAT     H124887   5.232   3.590   4.889
 8215WAT     H224888   5.282   3.444   4.837
 8216WAT      O24889   6.557   7.962   4.379
 8216WAT     H124890   6.620   7.950   4.457
 8216WAT     H224891   6.495   7.884   4.374
 8217WAT      O24892   8.563   7.200   8.646
 8217WAT     H124893   8.583   7.104   8.626
 8217WAT     H224894   8.469   7.220   8.620
 8218WAT      O24895   6.277   1.839   9.185
 8218WAT     H124896   6.365   1.812   9.147
 8218WAT     H224897   6.284   1.848   9.284
 8219WAT      O24898   7.847   9.047   1.985
 8219WAT     H124899   7.802   9.005   1.906
 8219WAT     H224900   7.909   9.119   1.954
 8220WAT      O24901   0.657   5.918   2.431
 8220WAT     H124902   0.563   5.934   2.463
 8220WAT     H224903   0.677   5.820   2.434
 8221WAT      O24904   5.201   0.983   2.130
 8221WAT     H124905   5.164   0.935   2.051
 8221WAT     H224906   5.267   1.052   2.100
 8222WAT      O24907   8.619   1.383   7.244
 8222WAT     H124908   8.691   1.355   7.306
 8222WAT     H224909   8.532   1.343   7.273
 8223WAT      O24910   1.028   0.802   5.929
 8223WAT     H124911   1.044   0.735   6.002
 8223WAT     H224912   0.930   0.823   5.925
 8224WAT      O24913   8.555   6.072   0.419
 8224WAT     H124914   8.587   6.139   0.487
 8224WAT     H224915   8.606   6.084   0.334
 8225WAT      O24916   1.350   9.645   8.104
 8225WAT     H124917   1.386   9.617   8.015
 8225WAT     H224918   1.254   9.617   8.112
 8226WAT      O24919   8.099   4.565   5.913
 8226WAT     H124920   8.044   4.543   5.832
 8226WAT     H224921   8.168   4.633   5.888
 8227WAT      O24922   1.496   4.750   6.742
 8227WAT     H124923   1.583   4.770   6.788
 8227WAT     H224924   1.468   4.656   6.762
 8228WAT      O24925   7.300   8.519   3.920
 8228WAT     H124926   7.249   8.543   3.837
 8228WAT     H224927   7.380   8.578   3.928
 8229WAT      O24928   7.692   5.241   6.328
 8229WAT     H124929   7.730   5.265   6.417
 8229WAT     H224930   7.758   5.186   6.277
 8230WAT      O24931   7.451   8.158   6.067
 8230WAT     H124932   7.408   8.126   6.152
 8230WAT     H224933   7.537   8.204   6.089
 8231WAT      O24934   4.208   7.314   7.600
 8231WAT     H124935   4.127   7.259   7.620
 8231WAT     H224936   4.246   7.349   7.685
 8232WAT      O24937   1.800   0.198   4.888
 8232WAT     H124938   1.833   0.283   4.929
 8232WAT     H224939   1.731   0.158   4.948
 8233WAT      O24940   3.764   5.693   8.276
 8233WAT     H124941   3.836   5.726   8.215
 8233WAT     H224942   3.744   5.597   8.257
 8234WAT      O24943   2.631   9.430   3.128
 8234WAT     H124944   2.551   9.479   3.162
 8234WAT     H224945   2.611   9.389   3.039
 8235WAT      O24946   8.554   7.882   8.339
 8235WAT     H124947   8.640   7.871   8.289
 8235WAT     H224948   8.561   7.960   8.401
 8236WAT      O24949   7.881   4.903   1.905
 8236WAT     H124950   7.887   4.995   1.867
 8236WAT     H224951   7.920   4.838   1.840
 8237WAT      O24952   2.341   0.433   6.673
 8237WAT     H124953   2.346   0.490   6.591
 8237WAT     H224954   2.365   0.339   6.649
 8238WAT      O24955   5.156   9.194   5.787
 8238WAT     H124956   5.101   9.183   5.870
 8238WAT     H224957   5.239   9.139   5.795
 8239WAT      O24958   9.456   7.123   7.417
 8239WAT     H124959   9.461   7.037   7.467
 8239WAT     H224960   9.543   7.141   7.372
 8240WAT      O24961   8.849   0.405   7.105
 8240WAT     H124962   8.777   0.471   7.127
 8240WAT     H224963   8.850   0.333   7.174
 8241WAT      O24964   5.570   4.861   7.823
 8241WAT     H124965   5.580   4.938   7.760
 8241WAT     H224966   5.506   4.885   7.895
 8242WAT      O24967   0.791   4.041   9.289
 8242WAT     H124968   0.789   3.945   9.262
 8242WAT     H224969   0.703   4.083   9.267
 8243WAT      O24970   4.692   2.299   0.943
 8243WAT     H124971   4.645   2.350   1.015
 8243WAT     H224972   4.630   2.284   0.866
 8244WAT      O24973   1.527   4.799   5.512
 8244WAT     H124974   1.563   4.715   5.470
 8244WAT     H224975   1.547   4.797   5.610
 8245WAT      O24976   6.976   6.985   8.468
 8245WAT     H124977   7.030   7.063   8.436
 8245WAT     H224978   6.879   7.009   8.468
 8246WAT      O24979   0.667   2.716   5.494
 8246WAT     H124980   0.651   2.621   5.519
 8246WAT     H224981   0.669   2.725   5.394
 8247WAT      O24982   7.572   0.084   0.947
 8247WAT     H124983   7.634   0.010   0.921
 8247WAT     H224984   7.481   0.066   0.910
 8248WAT      O24985   2.121   3.735   1.439
 8248WAT     H124986   2.119   3.788   1.354
 8248WAT     H224987   2.066   3.653   1.429
 8249WAT      O24988   7.162   9.796   8.083
 8249WAT     H124989   7.184   9.862   8.155
 8249WAT     H224990   7.230   9.723   8.082
 8250WAT      O24991   5.524   5.063   2.856
 8250WAT     H124992   5.600   5.018   2.810
 8250WAT     H224993   5.505   5.016   2.942
 8251WAT      O24994   8.077   2.862   3.769
 8251WAT     H124995   8.061   2.922   3.691
 8251WAT     H224996   8.004   2.793   3.774
 8252WAT      O24997   5.845   7.431   0.080
 8252WAT     H124998   5.928   7.463   0.127
 8252WAT     H224999   5.780   7.506   0.072
 8253WAT      O25000   6.058   7.494   8.101
 8253WAT     H125001   6.030   7.398   8.094
 8253WAT     H225002   6.025   7.544   8.021
 8254WAT      O25003   1.546   8.448   3.525
 8254WAT     H125004   1.606   8.395   3.464
 8254WAT     H225005   1.594   8.464   3.612
 8255WAT      O25006   2.145   3.819   7.295
 8255WAT     H125007   2.190   3.754   7.234
 8255WAT     H225008   2.131   3.777   7.385
 8256WAT      O25009   1.037   1.309   9.428
 8256WAT     H125010   0.943   1.333   9.451
 8256WAT     H225011   1.070   1.369   9.355
 8257WAT      O25012   6.632   8.542   3.969
 8257WAT     H125013   6.655   8.619   3.909
 8257WAT     H225014   6.678   8.554   4.057
 8258WAT      O25015   6.072   6.751   3.638
 8258WAT     H125016   6.030   6.819   3.577
 8258WAT     H225017   6.159   6.787   3.672
 8259WAT      O25018   8.935   3.518   2.627
 8259WAT     H125019   8.860   3.465   2.667
 8259WAT     H225020   8.999   3.545   2.700
 8260WAT      O25021   0.141   5.332   5.074
 8260WAT     H125022   0.201   5.405   5.105
 8260WAT     H225023   0.180   5.243   5.100
 8261WAT      O25024   9.224   3.281   0.944
 8261WAT     H125025   9.168   3.199   0.945
 8261WAT     H225026   9.204   3.337   1.025
 8262WAT      O25027   2.281   7.367   7.429
 8262WAT     H125028   2.247   7.459   7.446
 8262WAT     H225029   2.327   7.365   7.340
 8263WAT      O25030   1.815   7.657   0.072
 8263WAT     H125031   1.807   7.743   0.122
 8263WAT     H225032   1.814   7.581   0.136
 8264WAT      O25033   3.754   1.156   0.783
 8264WAT     H125034   3.819   1.080   0.788
 8264WAT     H225035   3.666   1.122   0.749
 8265WAT      O25036   5.832   8.926   7.977
 8265WAT     H125037   5.739   8.934   8.013
 8265WAT     H225038   5.847   8.996   7.907
 8266WAT      O25039   9.451   3.542   6.215
 8266WAT     H125040   9.484   3.591   6.135
 8266WAT     H225041   9.381   3.476   6.188
 8267WAT      O25042   0.304   5.981   5.271
 8267WAT     H125043   0.303   5.893   5.224
 8267WAT     H225044   0.218   6.029   5.254
 8268WAT      O25045   1.604   7.799   7.994
 8268WAT     H125046   1.507   7.785   8.009
 8268WAT     H225047   1.618   7.839   7.903
 8269WAT      O25048   5.999   2.590   8.027
 8269WAT     H125049   5.995   2.498   7.988
 8269WAT     H225050   6.094   2.615   8.043
 8270WAT      O25051   6.338   4.901   4.923
 8270WAT     H125052   6.286   4.853   4.853
 8270WAT     H225053   6.424   4.853   4.940
 8271WAT      O25054   8.952   9.452   1.879
 8271WAT     H125055   9.031   9.404   1.915
 8271WAT     H225056   8.926   9.413   1.791
 8272WAT      O25057   2.907   5.567   7.600
 8272WAT     H125058   2.819   5.552   7.556
 8272WAT     H225059   2.897   5.564   7.699
 8273WAT      O25060   2.577   7.825   0.582
 8273WAT     H125061   2.509   7.874   0.528
 8273WAT     H225062   2.591   7.872   0.669
 8274WAT      O25063   8.391   7.222   6.288
 8274WAT     H125064   8.325   7.194   6.219
 8274WAT     H225065   8.353   7.295   6.344
 8275WAT      O25066   0.483   0.685   7.269
 8275WAT     H125067   0.441   0.604   7.308
 8275WAT     H225068   0.459   0.692   7.172
 8276WAT      O25069   6.701   1.764   3.233
 8276WAT     H125070   6.760   1.691   3.268
 8276WAT     H225071   6.757   1.836   3.194
 8277WAT      O25072   3.180   0.717   6.911
 8277WAT     H125073   3.177   0.738   7.008
 8277WAT     H225074   3.096   0.671   6.884
 8278WAT      O25075   9.578   6.097   0.890
 8278WAT     H125076   9.496   6.044   0.871
 8278WAT     H225077   9.559   6.163   0.963
 8279WAT      O25078   2.588   1.803   2.192
 8279WAT     H125079   2.580   1.753   2.106
 8279WAT     H225080   2.504   1.792   2.245
 8280WAT      O25081   4.460   7.328   9.715
 8280WAT     H125082   4.372   7.297   9.679
 8280WAT     H225083   4.499   7.396   9.654
 8281WAT      O25084   9.601   6.036   2.701
 8281WAT     H125085   9.580   5.951   2.751
 8281WAT     H225086   9.545   6.110   2.737
 8282WAT      O25087   3.572   5.137   0.274
 8282WAT     H125088   3.537   5.225   0.304
 8282WAT     H225089   3.590   5.079   0.354
 8283WAT      O25090   5.454   3.141   3.544
 8283WAT     H125091   5.413   3.193   3.619
 8283WAT     H225092   5.553   3.154   3.545
 8284WAT      O25093   7.539   7.157   3.398
 8284WAT     H125094   7.500   7.079   3.447
 8284WAT     H225095   7.638   7.148   3.394
 8285WAT      O25096   1.533   2.157   9.877
 8285WAT     H125097   1.457   2.110   9.832
 8285WAT     H225098   1.559   2.237   9.823
 8286WAT      O25099   6.327   1.123   5.494
 8286WAT     H125100   6.423   1.111   5.518
 8286WAT     H225101   6.320   1.151   5.398
 8287WAT      O25102   2.433   1.943   4.579
 8287WAT     H125103   2.368   1.935   4.504
 8287WAT     H225104   2.514   1.888   4.559
 8288WAT      O25105   4.162   3.212   8.548
 8288WAT     H125106   4.132   3.305   8.530
 8288WAT     H225107   4.219   3.210   8.630
 8289WAT      O25108   4.552   3.681   7.188
 8289WAT     H125109   4.588   3.598   7.231
 8289WAT     H225110   4.457   3.664   7.160
 8290WAT      O25111   2.322   5.164   6.810
 8290WAT     H125112   2.306   5.099   6.884
 8290WAT     H225113   2.419   5.187   6.806
 8291WAT      O25114   6.960   1.440   5.491
 8291WAT     H125115   6.930   1.516   5.550
 8291WAT     H225116   7.033   1.472   5.431
 8292WAT      O25117   6.713   1.631   5.829
 8292WAT     H125118   6.718   1.542   5.784
 8292WAT     H225119   6.765   1.628   5.914
 8293WAT      O25120   8.579   6.103   3.479
 8293WAT     H125121   8.484   6.108   3.511
 8293WAT     H225122   8.593   6.019   3.427
 8294WAT      O25123   6.927   9.594   6.931
 8294WAT     H125124   6.870   9.552   7.001
 8294WAT     H225125   6.885   9.679   6.901
 8295WAT      O25126   7.734   1.228   5.474
 8295WAT     H125127   7.648   1.182   5.449
 8295WAT     H225128   7.806   1.198   5.412
 8296WAT      O25129   4.804   9.280   3.783
 8296WAT     H125130   4.867   9.339   3.835
 8296WAT     H225131   4.848   9.251   3.698
 8297WAT      O25132   9.199   2.075   7.093
 8297WAT     H125133   9.294   2.102   7.082
 8297WAT     H225134   9.190   2.015   7.173
 8298WAT      O25135   4.092   5.801   4.312
 8298WAT     H125136   4.033   5.738   4.361
 8298WAT     H225137   4.037   5.855   4.248
 8299WAT      O25138   4.546   9.206   9.300
 8299WAT     H125139   4.622   9.146   9.327
 8299WAT     H225140   4.536   9.204   9.201
 8300WAT      O25141   1.559   0.997   5.126
 8300WAT     H125142   1.553   1.057   5.206
 8300WAT     H225143   1.528   0.905   5.151
 8301WAT      O25144   2.470   3.070   5.680
 8301WAT     H125145   2.527   3.138   5.633
 8301WAT     H225146   2.492   3.071   5.777
 8302WAT      O25147   2.652   5.428   3.142
 8302WAT     H125148   2.662   5.449   3.239
 8302WAT     H225149   2.670   5.331   3.126
 8303WAT      O25150   9.265   1.422   5.373
 8303WAT     H125151   9.343   1.442   5.313
 8303WAT     H225152   9.181   1.454   5.330
 8304WAT      O25153   2.704   0.174   5.656
 8304WAT     H125154   2.772   0.189   5.728
 8304WAT     H225155   2.674   0.262   5.620
 8305WAT      O25156   7.721   5.249   8.424
 8305WAT     H125157   7.694   5.335   8.380
 8305WAT     H225158   7.667   5.235   8.506
 8306WAT      O25159   2.767   5.634   7.184
 8306WAT     H125160   2.755   5.536   7.168
 8306WAT     H225161   2.763   5.682   7.097
 8307WAT      O25162   5.699   2.469   3.745
 8307WAT     H125163   5.748   2.384   3.728
 8307WAT     H225164   5.700   2.489   3.843
 8308WAT      O25165   5.333   5.388   9.105
 8308WAT     H125166   5.421   5.373   9.151
 8308WAT     H225167   5.290   5.470   9.142
 8309WAT      O25168   8.867   0.743   3.537
 8309WAT     H125169   8.814   0.701   3.462
 8309WAT     H225170   8.833   0.835   3.553
 8310WAT      O25171   7.400   5.297   4.064
 8310WAT     H125172   7.419   5.228   4.134
 8310WAT     H225173   7.485   5.323   4.019
 8311WAT      O25174   2.846   6.858   8.861
 8311WAT     H125175   2.826   6.956   8.850
 8311WAT     H225176   2.818   6.828   8.952
 8312WAT      O25177   6.062   7.625   4.281
 8312WAT     H125178   6.104   7.686   4.348
 8312WAT     H225179   6.004   7.679   4.220
 8313WAT      O25180   7.848   6.470   4.949
 8313WAT     H125181   7.891   6.486   4.861
 8313WAT     H225182   7.749   6.476   4.940
 8314WAT      O25183   3.284   9.333   1.814
 8314WAT     H125184   3.226   9.388   1.754
 8314WAT     H225185   3.242   9.328   1.905
 8315WAT      O25186   6.093   1.437   6.380
 8315WAT     H125187   6.096   1.533   6.408
 8315WAT     H225188   6.018   1.391   6.427
 8316WAT      O25189   9.148   7.822   1.015
 8316WAT     H125190   9.185   7.737   0.977
 8316WAT     H225191   9.200   7.846   1.098
 8317WAT      O25192   0.919   8.078   4.521
 8317WAT     H125193   0.957   7.986   4.528
 8317WAT     H225194   0.862   8.084   4.439
 8318WAT      O25195   4.121   6.953   4.538
 8318WAT     H125196   4.048   7.008   4.577
 8318WAT     H225197   4.131   6.976   4.441
 8319WAT      O25198   1.126   7.986   2.375
 8319WAT     H125199   1.123   8.085   2.365
 8319WAT     H225200   1.033   7.951   2.389
 8320WAT      O25201   5.340   5.996   1.304
 8320WAT     H125202   5.299   5.905   1.304
 8320WAT     H225203   5.432   5.991   1.266
 8321WAT      O25204   7.597   0.239   0.139
 8321WAT     H125205   7.615   0.312   0.072
 8321WAT     H225206   7.633   0.265   0.228
 8322WAT      O25207   1.275   7.708   7.239
 8322WAT     H125208   1.286   7.610   7.222
 8322WAT     H225209   1.365   7.751   7.248
 8323WAT      O25210   1.441   3.197   7.685
 8323WAT     H125211   1.520   3.140   7.662
 8323WAT     H225212   1.447   3.284   7.635
 8324WAT      O25213   0.846   5.100   6.598
 8324WAT     H125214   0.844   5.070   6.694
 8324WAT     H225215   0.921   5.165   6.585
 8325WAT      O25216   1.807   4.413   8.214
 8325WAT     H125217   1.866   4.479   8.261
 8325WAT     H225218   1.822   4.420   8.115
 8326WAT      O25219   3.608   1.694   8.946
 8326WAT     H125220   3.572   1.648   9.028
 8326WAT     H225221   3.534   1.702   8.878
 8327WAT      O25222   3.171   5.491   3.044
 8327WAT     H125223   3.243   5.422   3.043
 8327WAT     H225224   3.209   5.578   3.076
 8328WAT      O25225   1.427   0.378   3.667
 8328WAT     H125226   1.400   0.474   3.670
 8328WAT     H225227   1.460   0.349   3.757
 8329WAT      O25228   0.641   8.762   2.954
 8329WAT     H125229   0.706   8.800   2.889
 8329WAT     H225230   0.610   8.834   3.016
 8330WAT      O25231   7.442   9.207   5.745
 8330WAT     H125232   7.538   9.195   5.771
 8330WAT     H225233   7.414   9.301   5.765
 8331WAT      O25234   5.730   7.937   7.540
 8331WAT     H125235   5.709   7.965   7.446
 8331WAT     H225236   5.823   7.967   7.563
 8332WAT      O25237   5.598   4.964   7.381
 8332WAT     H125238   5.566   4.872   7.357
 8332WAT     H225239   5.598   4.975   7.480
 8333WAT      O25240   2.738   7.130   5.516
 8333WAT     H125241   2.671   7.071   5.472
 8333WAT     H225242   2.773   7.197   5.450
 8334WAT      O25243   2.329   2.175   9.483
 8334WAT     H125244   2.274   2.242   9.432
 8334WAT     H225245   2.274   2.094   9.501
 8335WAT      O25246   8.549   3.691   2.123
 8335WAT     H125247   8.467   3.692   2.180
 8335WAT     H225248   8.524   3.688   2.027
 8336WAT      O25249   6.798   7.914   9.476
 8336WAT     H125250   6.735   7.990   9.494
 8336WAT     H225251   6.844   7.889   9.561
 8337WAT      O25252   4.801   8.169   7.544
 8337WAT     H125253   4.877   8.185   7.606
 8337WAT     H225254   4.716   8.201   7.586
 8338WAT      O25255   4.122   4.460   0.814
 8338WAT     H125256   4.104   4.508   0.729
 8338WAT     H225257   4.186   4.513   0.870
 8339WAT      O25258   0.370   7.003   3.386
 8339WAT     H125259   0.299   7.044   3.328
 8339WAT     H225260   0.333   6.986   3.477
 8340WAT      O25261   1.420   3.274   2.950
 8340WAT     H125262   1.458   3.184   2.932
 8340WAT     H225263   1.384   3.313   2.865
 8341WAT      O25264   7.125   3.168   7.109
 8341WAT     H125265   7.201   3.218   7.068
 8341WAT     H225266   7.059   3.233   7.148
 8342WAT      O25267   7.654   5.324   7.975
 8342WAT     H125268   7.668   5.350   8.070
 8342WAT     H225269   7.627   5.228   7.970
 8343WAT      O25270   1.339   1.810   2.277
 8343WAT     H125271   1.333   1.766   2.367
 8343WAT     H225272   1.253   1.797   2.228
 8344WAT      O25273   3.499   0.250   9.002
 8344WAT     H125274   3.442   0.327   9.031
 8344WAT     H225275   3.471   0.221   8.911
 8345WAT      O25276   1.614   7.001   2.587
 8345WAT     H125277   1.619   6.976   2.491
 8345WAT     H225278   1.618   6.919   2.644
 8346WAT      O25279   7.810   4.303   4.183
 8346WAT     H125280   7.727   4.283   4.132
 8346WAT     H225281   7.789   4.314   4.279
 8347WAT      O25282   9.511   7.350   5.030
 8347WAT     H125283   9.438   7.397   5.080
 8347WAT     H225284   9.599   7.370   5.074
 8348WAT      O25285   8.726   2.795   7.583
 8348WAT     H125286   8.673   2.756   7.508
 8348WAT     H225287   8.811   2.835   7.546
 8349WAT      O25288   6.297   8.256   8.622
 8349WAT     H125289   6.242   8.231   8.542
 8349WAT     H225290   6.325   8.352   8.615
 8350WAT      O25291   4.294   6.503   5.554
 8350WAT     H125292   4.331   6.474   5.642
 8350WAT     H225293   4.196   6.484   5.550
 8351WAT      O25294   7.853   9.381   2.858
 8351WAT     H125295   7.760   9.344   2.860
 8351WAT     H225296   7.874   9.424   2.946
 8352WAT      O25297   7.252   9.594   9.644
 8352WAT     H125298   7.164   9.590   9.598
 8352WAT     H225299   7.305   9.672   9.607
 8353WAT      O25300   6.498   4.169   5.996
 8353WAT     H125301   6.503   4.073   5.967
 8353WAT     H225302   6.465   4.174   6.090
 8354WAT      O25303   1.848   7.813   1.202
 8354WAT     H125304   1.894   7.902   1.199
 8354WAT     H225305   1.848   7.772   1.111
 8355WAT      O25306   5.765   6.037   0.853
 8355WAT     H125307   5.864   6.050   0.851
 8355WAT     H225308   5.725   6.098   0.922
 8356WAT      O25309   6.845   2.035   3.408
 8356WAT     H125310   6.807   2.036   3.316
 8356WAT     H225311   6.901   2.116   3.422
 8357WAT      O25312   4.017   8.153   3.038
 8357WAT     H125313   4.085   8.139   3.110
 8357WAT     H225314   3.925   8.151   3.078
 8358WAT      O25315   8.827   1.435   8.193
 8358WAT     H125316   8.817   1.532   8.170
 8358WAT     H225317   8.866   1.386   8.115
 8359WAT      O25318   0.797   7.778   9.479
 8359WAT     H125319   0.724   7.756   9.543
 8359WAT     H225320   0.816   7.877   9.483
 8360WAT      O25321   7.248   7.473   5.874
 8360WAT     H125322   7.290   7.563   5.868
 8360WAT     H225323   7.268   7.422   5.790
 8361WAT      O25324   4.330   5.898   2.185
 8361WAT     H125325   4.370   5.972   2.131
 8361WAT     H225326   4.275   5.839   2.125
 8362WAT      O25327   3.108   1.902   0.897
 8362WAT     H125328   3.125   1.921   0.994
 8362WAT     H225329   3.044   1.970   0.861
 8363WAT      O25330   1.231   3.749   0.542
 8363WAT     H125331   1.243   3.817   0.614
 8363WAT     H225332   1.136   3.747   0.513
 8364WAT      O25333   2.420   7.522   5.611
 8364WAT     H125334   2.463   7.611   5.601
 8364WAT     H225335   2.444   7.464   5.532
 8365WAT      O25336   4.858   8.918   6.969
 8365WAT     H125337   4.899   8.996   7.016
 8365WAT     H225338   4.776   8.947   6.919
 8366WAT      O25339   4.211   8.246   3.534
 8366WAT     H125340   4.206   8.320   3.467
 8366WAT     H225341   4.306   8.228   3.557
 8367WAT      O25342   8.747   3.109   9.783
 8367WAT     H125343   8.710   3.066   9.866
 8367WAT     H225344   8.709   3.201   9.773
 8368WAT      O25345   7.303   4.396   9.120
 8368WAT     H125346   7.219   4.390   9.174
 8368WAT     H225347   7.325   4.307   9.081
 8369WAT      O25348   3.618   2.468   0.952
 8369WAT     H125349   3.537   2.465   1.010
 8369WAT     H225350   3.606   2.404   0.875
 8370WAT      O25351   0.780   9.070   5.566
 8370WAT     H125352   0.740   9.099   5.653
 8370WAT     H225353   0.823   8.980   5.578
 8371WAT      O25354   2.970   3.518   0.130
 8371WAT     H125355   2.949   3.491   0.224
 8371WAT     H225356   2.929   3.607   0.110
 8372WAT      O25357   7.851   2.593   1.241
 8372WAT     H125358   7.813   2.652   1.169
 8372WAT     H225359   7.783   2.581   1.313
 8373WAT      O25360   8.054   6.056   6.781
 8373WAT     H125361   8.153   6.041   6.774
 8373WAT     H225362   8.035   6.122   6.853
 8374WAT      O25363   5.473   3.332   8.034
 8374WAT     H125364   5.431   3.311   8.123
 8374WAT     H225365   5.403   3.366   7.972
 8375WAT      O25366   6.055   6.895   7.021
 8375WAT     H125367   6.113   6.869   6.944
 8375WAT     H225368   5.994   6.970   6.992
 8376WAT      O25369   7.092   2.573   7.865
 8376WAT     H125370   7.088   2.476   7.890
 8376WAT     H225371   7.064   2.585   7.770
 8377WAT      O25372   8.078   6.028   8.318
 8377WAT     H125373   8.106   5.944   8.363
 8377WAT     H225374   7.979   6.041   8.329
 8378WAT      O25375   0.922   9.691   0.550
 8378WAT     H125376   0.981   9.648   0.618
 8378WAT     H225377   0.978   9.721   0.472
 8379WAT      O25378   6.984   3.288   0.992
 8379WAT     H125379   7.052   3.341   0.942
 8379WAT     H225380   6.918   3.349   1.034
 8380WAT      O25381   1.306   2.734   0.591
 8380WAT     H125382   1.258   2.646   0.589
 8380WAT     H225383   1.286   2.781   0.676
 8381WAT      O25384   6.332   3.908   5.521
 8381WAT     H125385   6.266   3.833   5.531
 8381WAT     H225386   6.322   3.972   5.597
 8382WAT      O25387   2.717   7.076   1.478
 8382WAT     H125388   2.749   6.982   1.490
 8382WAT     H225389   2.664   7.082   1.392
 8383WAT      O25390   6.621   6.434   5.026
 8383WAT     H125391   6.534   6.483   5.017
 8383WAT     H225392   6.607   6.336   5.013
 8384WAT      O25393   1.264   9.080   8.264
 8384WAT     H125394   1.229   9.000   8.215
 8384WAT     H225395   1.256   9.161   8.205
 8385WAT      O25396   0.994   5.011   4.960
 8385WAT     H125397   1.034   5.020   5.052
 8385WAT     H225398   1.060   4.967   4.899
 8386WAT      O25399   5.760   0.249   3.318
 8386WAT     H125400   5.768   0.193   3.400
 8386WAT     H225401   5.678   0.306   3.324
 8387WAT      O25402   7.368   1.455   3.438
 8387WAT     H125403   7.446   1.394   3.430
 8387WAT     H225404   7.313   1.451   3.355
 8388WAT      O25405   7.646   7.524   8.244
 8388WAT     H125406   7.677   7.544   8.151
 8388WAT     H225407   7.647   7.425   8.259
 8389WAT      O25408   4.948   0.022   3.292
 8389WAT     H125409   4.938  -0.003   3.388
 8389WAT     H225410   4.886   0.097   3.270
 8390WAT      O25411   9.203   5.078   7.926
 8390WAT     H125412   9.301   5.057   7.917
 8390WAT     H225413   9.159   5.006   7.980
 8391WAT      O25414   1.164   4.653   3.204
 8391WAT     H125415   1.228   4.606   3.143
 8391WAT     H225416   1.204   4.739   3.235
 8392WAT      O25417   1.842   5.147   1.473
 8392WAT     H125418   1.914   5.106   1.417
 8392WAT     H225419   1.858   5.124   1.569
 8393WAT      O25420   8.590   3.957   2.428
 8393WAT     H125421   8.613   3.860   2.429
 8393WAT     H225422   8.522   3.975   2.357
 8394WAT      O25423   3.931   5.039   5.149
 8394WAT     H125424   3.997   4.995   5.211
 8394WAT     H225425   3.909   4.976   5.075
 8395WAT      O25426   6.704   7.604   3.080
 8395WAT     H125427   6.630   7.616   3.013
 8395WAT     H225428   6.677   7.645   3.167
 8396WAT      O25429   6.726   2.404   2.006
 8396WAT     H125430   6.727   2.499   2.036
 8396WAT     H225431   6.774   2.395   1.919
 8397WAT      O25432   1.198   3.525   8.162
 8397WAT     H125433   1.283   3.497   8.206
 8397WAT     H225434   1.127   3.457   8.182
 8398WAT      O25435   3.551   4.077   3.393
 8398WAT     H125436   3.551   4.019   3.312
 8398WAT     H225437   3.513   4.026   3.470
 8399WAT      O25438   2.259   3.882   1.907
 8399WAT     H125439   2.237   3.853   1.814
 8399WAT     H225440   2.175   3.892   1.960
 8400WAT      O25441   5.073   0.911   4.362
 8400WAT     H125442   5.165   0.944   4.385
 8400WAT     H225443   5.067   0.897   4.263
 8401WAT      O25444   6.796   1.496   3.274
 8401WAT     H125445   6.774   1.453   3.361
 8401WAT     H225446   6.747   1.449   3.200
 8402WAT      O25447   8.775   4.621   2.089
 8402WAT     H125448   8.857   4.624   2.031
 8402WAT     H225449   8.702   4.675   2.046
 8403WAT      O25450   3.289   6.121   6.313
 8403WAT     H125451   3.338   6.208   6.310
 8403WAT     H225452   3.260   6.096   6.220
 8404WAT      O25453   1.679   6.736   8.250
 8404WAT     H125454   1.622   6.748   8.331
 8404WAT     H225455   1.730   6.650   8.258
 8405WAT      O25456   1.629   0.392   1.170
 8405WAT     H125457   1.593   0.340   1.092
 8405WAT     H225458   1.598   0.487   1.163
 8406WAT      O25459   3.896   3.922   3.458
 8406WAT     H125460   3.846   3.955   3.378
 8406WAT     H225461   3.963   3.992   3.485
 8407WAT      O25462   8.480   7.553   9.382
 8407WAT     H125463   8.547   7.531   9.311
 8407WAT     H225464   8.403   7.489   9.377
 8408WAT      O25465   6.683   2.197   4.642
 8408WAT     H125466   6.774   2.216   4.607
 8408WAT     H225467   6.667   2.098   4.641
 8409WAT      O25468   5.109   9.786   5.802
 8409WAT     H125469   5.113   9.736   5.889
 8409WAT     H225470   5.174   9.861   5.804
 8410WAT      O25471   7.860   1.512   9.422
 8410WAT     H125472   7.796   1.438   9.406
 8410WAT     H225473   7.815   1.585   9.473
 8411WAT      O25474   9.783   0.975   2.022
 8411WAT     H125475   9.880   0.952   2.017
 8411WAT     H225476   9.728   0.893   2.009
 8412WAT      O25477   1.432   8.517   8.846
 8412WAT     H125478   1.518   8.516   8.898
 8412WAT     H225479   1.409   8.612   8.823
 8413WAT      O25480   9.431   1.210   8.741
 8413WAT     H125481   9.367   1.216   8.817
 8413WAT     H225482   9.387   1.245   8.658
 8414WAT      O25483   4.761   1.446   1.989
 8414WAT     H125484   4.729   1.354   2.009
 8414WAT     H225485   4.843   1.440   1.930
 8415WAT      O25486   3.032   6.772   4.535
 8415WAT     H125487   3.026   6.699   4.603
 8415WAT     H225488   3.085   6.848   4.573
 8416WAT      O25489   7.458   8.698   0.674
 8416WAT     H125490   7.516   8.757   0.617
 8416WAT     H225491   7.363   8.727   0.666
 8417WAT      O25492   1.067   7.726   5.905
 8417WAT     H125493   1.005   7.754   5.979
 8417WAT     H225494   1.044   7.634   5.875
 8418WAT      O25495   9.562   6.707   6.169
 8418WAT     H125496   9.621   6.767   6.223
 8418WAT     H225497   9.484   6.759   6.135
 8419WAT      O25498   1.355   5.375   4.929
 8419WAT     H125499   1.385   5.382   4.834
 8419WAT     H225500   1.390   5.452   4.981
 8420WAT      O25501   3.051   5.559   4.934
 8420WAT     H125502   3.010   5.616   5.006
 8420WAT     H225503   2.980   5.533   4.868
 8421WAT      O25504   7.425   5.962   4.649
 8421WAT     H125505   7.461   5.912   4.570
 8421WAT     H225506   7.501   5.990   4.708
 8422WAT      O25507   2.317   8.159   2.458
 8422WAT     H125508   2.385   8.086   2.463
 8422WAT     H225509   2.347   8.236   2.513
 8423WAT      O25510   6.011   0.602   8.127
 8423WAT     H125511   5.998   0.677   8.192
 8423WAT     H225512   6.007   0.515   8.176
 8424WAT      O25513   1.197   0.098   7.757
 8424WAT     H125514   1.233   0.107   7.664
 8424WAT     H225515   1.143   0.014   7.764
 8425WAT      O25516   1.216   4.283   0.608
 8425WAT     H125517   1.149   4.312   0.676
 8425WAT     H225518   1.187   4.195   0.569
 8426WAT      O25519   0.217   6.608   2.631
 8426WAT     H125520   0.127   6.650   2.617
 8426WAT     H225521   0.272   6.667   2.689
 8427WAT      O25522   0.577   3.454   7.240
 8427WAT     H125523   0.516   3.378   7.266
 8427WAT     H225524   0.542   3.497   7.157
 8428WAT      O25525   6.533   1.238   8.599
 8428WAT     H125526   6.483   1.323   8.618
 8428WAT     H225527   6.629   1.259   8.579
 8429WAT      O25528   1.712   1.266   8.091
 8429WAT     H125529   1.679   1.325   8.017
 8429WAT     H225530   1.791   1.213   8.059
 8430WAT      O25531   3.741   6.748   0.675
 8430WAT     H125532   3.742   6.835   0.723
 8430WAT     H225533   3.833   6.726   0.643
 8431WAT      O25534   5.416   2.441   8.920
 8431WAT     H125535   5.402   2.503   8.997
 8431WAT     H225536   5.495   2.471   8.866
 8432WAT      O25537   0.995   0.130   0.786
 8432WAT     H125538   0.923   0.140   0.717
 8432WAT     H225539   1.078   0.097   0.742
 8433WAT      O25540   5.302   6.046   7.110
 8433WAT     H125541   5.394   6.051   7.069
 8433WAT     H225542   5.236   6.023   7.039
 8434WAT      O25543   2.825   8.905   3.743
 8434WAT     H125544   2.855   8.815   3.712
 8434WAT     H225545   2.729   8.900   3.770
 8435WAT      O25546   5.595   0.075   1.610
 8435WAT     H125547   5.508   0.079   1.658
 8435WAT     H225548   5.590   0.007   1.537
 8436WAT      O25549   4.556   6.921   2.616
 8436WAT     H125550   4.654   6.926   2.594
 8436WAT     H225551   4.510   7.002   2.582
 8437WAT      O25552   1.363   7.474   7.097
 8437WAT     H125553   1.351   7.542   7.024
 8437WAT     H225554   1.319   7.389   7.071
 8438WAT      O25555   4.747   5.719   0.749
 8438WAT     H125556   4.831   5.757   0.712
 8438WAT     H225557   4.770   5.651   0.820
 8439WAT      O25558   7.609   6.465   4.438
 8439WAT     H125559   7.613   6.559   4.471
 8439WAT     H225560   7.560   6.462   4.351
 8440WAT      O25561   5.519   8.054   2.571
 8440WAT     H125562   5.480   8.144   2.557
 8440WAT     H225563   5.615   8.054   2.541
 8441WAT      O25564   5.378   7.558   9.420
 8441WAT     H125565   5.333   7.475   9.451
 8441WAT     H225566   5.477   7.543   9.414
 8442WAT      O25567   9.423   0.629   0.639
 8442WAT     H125568   9.373   0.546   0.614
 8442WAT     H225569   9.360   0.695   0.680
 8443WAT      O25570   8.326   2.227   4.401
 8443WAT     H125571   8.270   2.295   4.353
 8443WAT     H225572   8.387   2.182   4.336
 8444WAT      O25573   8.293   0.347   0.944
 8444WAT     H125574   8.280   0.329   0.846
 8444WAT     H225575   8.209   0.387   0.982
 8445WAT      O25576   0.857   2.226   1.527
 8445WAT     H125577   0.807   2.159   1.474
 8445WAT     H225578   0.896   2.183   1.609
 8446WAT      O25579   0.281   6.951   7.177
 8446WAT     H125580   0.260   6.869   7.230
 8446WAT     H225581   0.356   6.932   7.114
 8447WAT      O25582   5.057   0.344   0.119
 8447WAT     H125583   5.090   0.438   0.121
 8447WAT     H225584   5.059   0.311   0.024
 8448WAT      O25585   8.736   3.914   3.995
 8448WAT     H125586   8.762   3.878   3.906
 8448WAT     H225587   8.817   3.946   4.043
 8449WAT      O25588   3.739   3.951   8.045
 8449WAT     H125589   3.795   4.010   8.102
 8449WAT     H225590   3.796   3.908   7.975
 8450WAT      O25591   7.350   7.005   6.426
 8450WAT     H125592   7.254   7.022   6.448
 8450WAT     H225593   7.405   7.086   6.450
 8451WAT      O25594   9.794   3.688   1.671
 8451WAT     H125595   9.823   3.641   1.587
 8451WAT     H225596   9.769   3.621   1.740
 8452WAT      O25597   9.624   3.519   6.850
 8452WAT     H125598   9.539   3.472   6.828
 8452WAT     H225599   9.701   3.455   6.844
 8453WAT      O25600   3.284   1.109   6.979
 8453WAT     H125601   3.227   1.044   7.030
 8453WAT     H225602   3.380   1.094   7.001
 8454WAT      O25603   6.605   2.445   2.503
 8454WAT     H125604   6.563   2.429   2.414
 8454WAT     H225605   6.564   2.527   2.544
 8455WAT      O25606   5.208   9.270   2.765
 8455WAT     H125607   5.188   9.353   2.713
 8455WAT     H225608   5.170   9.278   2.857
 8456WAT      O25609   1.453   7.672   0.369
 8456WAT     H125610   1.379   7.681   0.435
 8456WAT     H225611   1.449   7.748   0.304
 8457WAT      O25612   5.694   3.062   5.285
 8457WAT     H125613   5.760   3.086   5.214
 8457WAT     H225614   5.686   2.962   5.290
 8458WAT      O25615   5.311   3.996   2.536
 8458WAT     H125616   5.221   4.040   2.532
 8458WAT     H225617   5.359   4.010   2.449
 8459WAT      O25618   4.118   6.086   8.739
 8459WAT     H125619   4.061   6.070   8.820
 8459WAT     H225620   4.072   6.151   8.678
 8460WAT      O25621   5.926   8.433   0.892
 8460WAT     H125622   5.973   8.514   0.927
 8460WAT     H225623   5.898   8.375   0.969
 8461WAT      O25624   1.136   2.350   5.081
 8461WAT     H125625   1.104   2.429   5.132
 8461WAT     H225626   1.203   2.379   5.013
 8462WAT      O25627   3.038   6.554   9.812
 8462WAT     H125628   2.983   6.512   9.884
 8462WAT     H225629   3.097   6.624   9.851
 8463WAT      O25630   5.450   6.158   9.157
 8463WAT     H125631   5.461   6.178   9.254
 8463WAT     H225632   5.454   6.243   9.104
 8464WAT      O25633   8.902   7.661   9.453
 8464WAT     H125634   8.954   7.603   9.516
 8464WAT     H225635   8.812   7.680   9.492
 8465WAT      O25636   1.404   3.021   3.642
 8465WAT     H125637   1.348   3.103   3.631
 8465WAT     H225638   1.500   3.044   3.630
 8466WAT      O25639   5.419   4.762   5.429
 8466WAT     H125640   5.442   4.857   5.448
 8466WAT     H225641   5.324   4.757   5.396
 8467WAT      O25642   3.539   6.080   7.306
 8467WAT     H125643   3.493   6.019   7.242
 8467WAT     H225644   3.471   6.132   7.357
 8468WAT      O25645   5.514   1.114   3.855
 8468WAT     H125646   5.460   1.075   3.779
 8468WAT     H225647   5.489   1.209   3.868
 8469WAT      O25648   7.460   6.107   7.648
 8469WAT     H125649   7.473   6.123   7.550
 8469WAT     H225650   7.416   6.187   7.689
 8470WAT      O25651   8.382   5.079   7.185
 8470WAT     H125652   8.392   5.179   7.191
 8470WAT     H225653   8.360   5.043   7.276
 8471WAT      O25654   2.603   8.937   5.527
 8471WAT     H125655   2.703   8.939   5.525
 8471WAT     H225656   2.567   8.991   5.451
 8472WAT      O25657   9.044   5.971   2.713
 8472WAT     H125658   9.080   5.880   2.730
 8472WAT     H225659   9.114   6.039   2.733
 8473WAT      O25660   5.318   0.398   7.291
 8473WAT     H125661   5.408   0.382   7.249
 8473WAT     H225662   5.319   0.487   7.337
 8474WAT      O25663   7.834   2.394   3.061
 8474WAT     H125664   7.779   2.385   2.978
 8474WAT     H225665   7.813   2.320   3.124
 8475WAT      O25666   2.927   7.419   8.366
 8475WAT     H125667   2.980   7.400   8.449
 8475WAT     H225668   2.838   7.373   8.371
 8476WAT      O25669   1.953   7.354   6.806
 8476WAT     H125670   1.917   7.279   6.751
 8476WAT     H225671   1.879   7.419   6.827
 8477WAT      O25672   2.827   1.720   9.424
 8477WAT     H125673   2.763   1.721   9.501
 8477WAT     H225674   2.895   1.649   9.437
 8478WAT      O25675   5.809   6.638   7.574
 8478WAT     H125676   5.738   6.663   7.509
 8478WAT     H225677   5.899   6.657   7.535
 8479WAT      O25678   2.009   9.503   9.543
 8479WAT     H125679   1.962   9.469   9.461
 8479WAT     H225680   1.962   9.469   9.625
 8480WAT      O25681   9.101   7.874   6.774
 8480WAT     H125682   9.134   7.962   6.808
 8480WAT     H225683   9.079   7.883   6.676
 8481WAT      O25684   1.403   3.572   8.765
 8481WAT     H125685   1.318   3.625   8.772
 8481WAT     H225686   1.471   3.627   8.716
 8482WAT      O25687   8.370   7.760   0.317
 8482WAT     H125688   8.363   7.794   0.223
 8482WAT     H225689   8.370   7.838   0.380
 8483WAT      O25690   8.450   7.403   2.974
 8483WAT     H125691   8.459   7.369   2.880
 8483WAT     H225692   8.371   7.359   3.017
 8484WAT      O25693   9.328   4.213   1.753
 8484WAT     H125694   9.388   4.135   1.737
 8484WAT     H225695   9.281   4.237   1.668
 8485WAT      O25696   6.661   8.147   9.278
 8485WAT     H125697   6.616   8.088   9.345
 8485WAT     H225698   6.717   8.090   9.217
 8486WAT      O25699   0.136   3.035   1.001
 8486WAT     H125700   0.211   3.062   0.940
 8486WAT     H225701   0.172   3.010   1.090
 8487WAT      O25702   2.256   8.851   2.643
 8487WAT     H125703   2.263   8.831   2.741
 8487WAT     H225704   2.317   8.791   2.592
 8488WAT      O25705   6.422   7.477   1.182
 8488WAT     H125706   6.340   7.439   1.226
 8488WAT     H225707   6.434   7.433   1.093
 8489WAT      O25708   7.702   6.605   7.428
 8489WAT     H125709   7.667   6.697   7.411
 8489WAT     H225710   7.642   6.538   7.384
 8490WAT      O25711   2.528   0.572   4.880
 8490WAT     H125712   2.459   0.594   4.949
 8490WAT     H225713   2.484   0.531   4.801
 8491WAT      O25714   0.885   3.281   2.670
 8491WAT     H125715   0.863   3.302   2.574
 8491WAT     H225716   0.968   3.332   2.696
 8492WAT      O25717   4.409   2.226   8.839
 8492WAT     H125718   4.386   2.314   8.881
 8492WAT     H225719   4.487   2.185   8.886
 8493WAT      O25720   2.586   9.328   7.412
 8493WAT     H125721   2.530   9.276   7.348
 8493WAT     H225722   2.527   9.387   7.467
 8494WAT      O25723   1.700   2.294   2.706
 8494WAT     H125724   1.671   2.253   2.793
 8494WAT     H225725   1.631   2.276   2.636
 8495WAT      O25726   7.856   4.760   0.687
 8495WAT     H125727   7.759   4.785   0.691
 8495WAT     H225728   7.911   4.843   0.671
 8496WAT      O25729   8.089   0.089   6.353
 8496WAT     H125730   8.181   0.058   6.333
 8496WAT     H225731   8.028   0.062   6.278
 8497WAT      O25732   3.436   5.094   7.484
 8497WAT     H125733   3.416   5.055   7.574
 8497WAT     H225734   3.524   5.140   7.486
 8498WAT      O25735   3.347   8.084   6.116
 8498WAT     H125736   3.344   8.125   6.207
 8498WAT     H225737   3.331   7.985   6.124
 8499WAT      O25738   3.600   3.490   8.557
 8499WAT     H125739   3.502   3.504   8.543
 8499WAT     H225740   3.651   3.566   8.515
 8500WAT      O25741   9.656   0.700   1.360
 8500WAT     H125742   9.678   0.604   1.377
 8500WAT     H225743   9.670   0.753   1.444
 8501WAT      O25744   4.544   2.034   4.684
 8501WAT     H125745   4.602   1.954   4.700
 8501WAT     H225746   4.451   2.015   4.716
 8502WAT      O25747   7.372   4.924   1.399
 8502WAT     H125748   7.339   4.873   1.478
 8502WAT     H225749   7.392   5.018   1.425
 8503WAT      O25750   2.301   8.910   1.138
 8503WAT     H125751   2.397   8.909   1.111
 8503WAT     H225752   2.283   8.989   1.197
 8504WAT      O25753   7.350   9.038   0.430
 8504WAT     H125754   7.323   9.051   0.335
 8504WAT     H225755   7.414   8.961   0.436
 8505WAT      O25756   1.712   3.832   4.564
 8505WAT     H125757   1.751   3.855   4.653
 8505WAT     H225758   1.612   3.833   4.570
 8506WAT      O25759   2.921   4.481   9.309
 8506WAT     H125760   2.860   4.461   9.386
 8506WAT     H225761   2.878   4.449   9.224
 8507WAT      O25762   3.792   4.339   0.989
 8507WAT     H125763   3.719   4.270   0.988
 8507WAT     H225764   3.877   4.298   0.956
 8508WAT      O25765   8.139   8.348   6.029
 8508WAT     H125766   8.061   8.285   6.034
 8508WAT     H225767   8.207   8.312   5.965
 8509WAT      O25768   0.961   9.314   4.597
 8509WAT     H125769   1.030   9.241   4.599
 8509WAT     H225770   0.994   9.393   4.648
 8510WAT      O25771   8.390   5.822   6.452
 8510WAT     H125772   8.323   5.769   6.505
 8510WAT     H225773   8.477   5.773   6.450
 8511WAT      O25774   0.922   2.572   9.820
 8511WAT     H125775   0.843   2.618   9.862
 8511WAT     H225776   0.981   2.640   9.777
 8512WAT      O25777   4.271   6.954   0.168
 8512WAT     H125778   4.262   6.936   0.266
 8512WAT     H225779   4.344   7.022   0.153
 8513WAT      O25780   3.434   1.934   4.644
 8513WAT     H125781   3.372   1.983   4.706
 8513WAT     H225782   3.380   1.885   4.576
 8514WAT      O25783   9.231   5.088   3.342
 8514WAT     H125784   9.239   5.187   3.347
 8514WAT     H225785   9.307   5.050   3.289
 8515WAT      O25786   0.811   4.651   8.913
 8515WAT     H125787   0.829   4.741   8.952
 8515WAT     H225788   0.718   4.623   8.938
 8516WAT      O25789   7.172   9.552   0.259
 8516WAT     H125790   7.113   9.507   0.326
 8516WAT     H225791   7.210   9.635   0.299
 8517WAT      O25792   1.165   2.386   9.856
 8517WAT     H125793   1.075   2.429   9.863
 8517WAT     H225794   1.170   2.331   9.773
 8518WAT      O25795   0.176   6.558   6.307
 8518WAT     H125796   0.244   6.629   6.326
 8518WAT     H225797   0.150   6.514   6.393
 8519WAT      O25798   0.706   8.867   3.687
 8519WAT     H125799   0.701   8.813   3.603
 8519WAT     H225800   0.666   8.815   3.763
 8520WAT      O25801   3.092   0.629   9.694
 8520WAT     H125802   3.021   0.698   9.690
 8520WAT     H225803   3.114   0.598   9.602
 8521WAT      O25804   3.337   5.245   4.479
 8521WAT     H125805   3.287   5.168   4.518
 8521WAT     H225806   3.431   5.246   4.513
 8522WAT      O25807   7.084   9.555   1.063
 8522WAT     H125808   7.006   9.494   1.050
 8522WAT     H225809   7.058   9.628   1.127
 8523WAT      O25810   5.140   3.616   6.875
 8523WAT     H125811   5.095   3.703   6.856
 8523WAT     H225812   5.205   3.627   6.950
 8524WAT      O25813   7.029   7.137   2.301
 8524WAT     H125814   7.113   7.125   2.355
 8524WAT     H225815   6.969   7.202   2.347
 8525WAT      O25816   0.410   6.373   9.869
 8525WAT     H125817   0.488   6.374   9.807
 8525WAT     H225818   0.347   6.300   9.841
 8526WAT      O25819   5.530   4.574   4.219
 8526WAT     H125820   5.550   4.658   4.169
 8526WAT     H225821   5.564   4.495   4.168
 8527WAT      O25822   6.085   2.551   2.963
 8527WAT     H125823   5.988   2.548   2.939
 8527WAT     H225824   6.140   2.535   2.881
 8528WAT      O25825   4.053   4.966   3.483
 8528WAT     H125826   4.101   4.897   3.537
 8528WAT     H225827   4.085   4.962   3.388
 8529WAT      O25828   2.797   4.312   1.569
 8529WAT     H125829   2.787   4.257   1.652
 8529WAT     H225830   2.814   4.407   1.594
 8530WAT      O25831   0.106   3.807   9.018
 8530WAT     H125832   0.112   3.738   8.947
 8530WAT     H225833   0.107   3.763   9.108
 8531WAT      O25834   9.615   3.793   5.269
 8531WAT     H125835   9.674   3.818   5.192
 8531WAT     H225836   9.557   3.871   5.292
 8532WAT      O25837   6.123   7.695   9.819
 8532WAT     H125838   6.140   7.601   9.848
 8532WAT     H225839   6.176   7.757   9.876
 8533WAT      O25840   9.025   5.639   3.205
 8533WAT     H125841   8.961   5.649   3.282
 8533WAT     H225842   8.976   5.602   3.127
 8534WAT      O25843   7.948   4.778   1.017
 8534WAT     H125844   8.003   4.818   0.943
 8534WAT     H225845   7.851   4.797   1.000
 8535WAT      O25846   7.544   0.664   1.408
 8535WAT     H125847   7.602   0.745   1.416
 8535WAT     H225848   7.452   0.686   1.440
 8536WAT      O25849   2.873   3.856   2.844
 8536WAT     H125850   2.947   3.885   2.783
 8536WAT     H225851   2.884   3.759   2.867
 8537WAT      O25852   1.598   1.261   2.699
 8537WAT     H125853   1.567   1.299   2.786
 8537WAT     H225854   1.532   1.285   2.627
 8538WAT      O25855   0.776   0.129   1.191
 8538WAT     H125856   0.855   0.096   1.139
 8538WAT     H225857   0.757   0.224   1.168
 8539WAT      O25858   2.437   0.147   5.632
 8539WAT     H125859   2.419   0.050   5.649
 8539WAT     H225860   2.536   0.163   5.633
 8540WAT      O25861   5.198   0.926   7.602
 8540WAT     H125862   5.118   0.926   7.542
 8540WAT     H225863   5.276   0.968   7.555
 8541WAT      O25864   0.417   1.751   0.643
 8541WAT     H125865   0.486   1.723   0.710
 8541WAT     H225866   0.331   1.705   0.663
 8542WAT      O25867   3.822   7.975   0.195
 8542WAT     H125868   3.770   7.893   0.170
 8542WAT     H225869   3.790   8.052   0.140
 8543WAT      O25870   1.598   3.713   3.210
 8543WAT     H125871   1.597   3.660   3.295
 8543WAT     H225872   1.545   3.666   3.140
 8544WAT      O25873   0.724   0.852   3.696
 8544WAT     H125874   0.715   0.835   3.794
 8544WAT     H225875   0.730   0.950   3.680
 8545WAT      O25876   1.990   4.146   6.721
 8545WAT     H125877   2.048   4.189   6.652
 8545WAT     H225878   2.002   4.192   6.808
 8546WAT      O25879   1.340   0.686   3.737
 8546WAT     H125880   1.319   0.696   3.834
 8546WAT     H225881   1.271   0.732   3.682
 8547WAT      O25882   7.704   6.215   0.730
 8547WAT     H125883   7.776   6.157   0.693
 8547WAT     H225884   7.744   6.294   0.777
 8548WAT      O25885   1.361   8.668   0.860
 8548WAT     H125886   1.296   8.744   0.861
 8548WAT     H225887   1.354   8.620   0.772
 8549WAT      O25888   2.656   8.307   9.642
 8549WAT     H125889   2.585   8.361   9.597
 8549WAT     H225890   2.708   8.365   9.705
 8550WAT      O25891   1.199   8.097   9.304
 8550WAT     H125892   1.145   8.129   9.227
 8550WAT     H225893   1.218   7.999   9.294
 8551WAT      O25894   0.224   2.221   2.266
 8551WAT     H125895   0.224   2.175   2.355
 8551WAT     H225896   0.153   2.182   2.208
 8552WAT      O25897   0.390   0.842   1.697
 8552WAT     H125898   0.402   0.776   1.770
 8552WAT     H225899   0.296   0.877   1.698
 8553WAT      O25900   4.947   0.881   1.501
 8553WAT     H125901   4.996   0.871   1.414
 8553WAT     H225902   4.998   0.834   1.573
 8554WAT      O25903   5.923   8.523   8.639
 8554WAT     H125904   5.975   8.437   8.642
 8554WAT     H225905   5.890   8.538   8.546
 8555WAT      O25906   1.250   2.133   5.804
 8555WAT     H125907   1.260   2.075   5.885
 8555WAT     H225908   1.326   2.117   5.742
 8556WAT      O25909   4.439   7.023   7.901
 8556WAT     H125910   4.500   7.055   7.974
 8556WAT     H225911   4.363   7.087   7.890
 8557WAT      O25912   6.280   3.466   4.533
 8557WAT     H125913   6.254   3.372   4.555
 8557WAT     H225914   6.198   3.523   4.527
 8558WAT      O25915   0.008   6.852   9.142
 8558WAT     H125916  -0.001   6.947   9.170
 8558WAT     H225917  -0.079   6.820   9.102
 8559WAT      O25918   3.346   5.899   9.671
 8559WAT     H125919   3.248   5.905   9.652
 8559WAT     H225920   3.368   5.808   9.707
 8560WAT      O25921   4.656   4.929   4.752
 8560WAT     H125922   4.661   5.014   4.805
 8560WAT     H225923   4.594   4.866   4.797
 8561WAT      O25924   5.947   9.691   6.404
 8561WAT     H125925   5.955   9.712   6.502
 8561WAT     H225926   5.853   9.708   6.374
 8562WAT      O25927   1.541   0.608   0.892
 8562WAT     H125928   1.584   0.693   0.860
 8562WAT     H225929   1.451   0.598   0.852
 8563WAT      O25930   5.244   1.255   3.729
 8563WAT     H125931   5.289   1.288   3.646
 8563WAT     H225932   5.167   1.315   3.752
 8564WAT      O25933   0.691   8.688   0.932
 8564WAT     H125934   0.688   8.589   0.918
 8564WAT     H225935   0.702   8.707   1.029
 8565WAT      O25936   9.471   8.014   7.248
 8565WAT     H125937   9.412   7.941   7.280
 8565WAT     H225938   9.530   8.046   7.322
 8566WAT      O25939   5.133   5.000   4.734
 8566WAT     H125940   5.155   5.042   4.646
 8566WAT     H225941   5.050   5.042   4.771
 8567WAT      O25942   6.933   1.954   3.880
 8567WAT     H125943   6.991   1.966   3.960
 8567WAT     H225944   6.990   1.932   3.801
 8568WAT      O25945   9.721   6.156   3.422
 8568WAT     H125946   9.815   6.188   3.437
 8568WAT     H225947   9.681   6.204   3.344
 8569WAT      O25948   7.613   8.932   3.299
 8569WAT     H125949   7.647   8.941   3.393
 8569WAT     H225950   7.526   8.980   3.292
 8570WAT      O25951   7.737   1.435   2.622
 8570WAT     H125952   7.785   1.350   2.600
 8570WAT     H225953   7.662   1.417   2.686
 8571WAT      O25954   4.392   2.634   2.674
 8571WAT     H125955   4.470   2.583   2.710
 8571WAT     H225956   4.376   2.608   2.579
 8572WAT      O25957   7.425   7.788   0.825
 8572WAT     H125958   7.481   7.843   0.888
 8572WAT     H225959   7.400   7.843   0.746
 8573WAT      O25960   8.240   2.085   1.680
 8573WAT     H125961   8.295   2.159   1.643
 8573WAT     H225962   8.256   2.002   1.627
 8574WAT      O25963   0.391   5.791   3.762
 8574WAT     H125964   0.477   5.805   3.712
 8574WAT     H225965   0.409   5.735   3.843
 8575WAT      O25966   5.210   4.312   1.954
 8575WAT     H125967   5.183   4.230   1.904
 8575WAT     H225968   5.238   4.383   1.890
 8576WAT      O25969   4.852   8.111   1.234
 8576WAT     H125970   4.787   8.090   1.307
 8576WAT     H225971   4.911   8.032   1.219
 8577WAT      O25972   6.416   3.694   9.298
 8577WAT     H125973   6.362   3.655   9.372
 8577WAT     H225974   6.508   3.657   9.301
 8578WAT      O25975   7.600   7.129   3.857
 8578WAT     H125976   7.623   7.044   3.810
 8578WAT     H225977   7.501   7.134   3.870
 8579WAT      O25978   9.368   6.954   4.745
 8579WAT     H125979   9.341   6.879   4.684
 8579WAT     H225980   9.444   6.923   4.802
 8580WAT      O25981   1.754   9.771   6.967
 8580WAT     H125982   1.693   9.819   6.905
 8580WAT     H225983   1.844   9.815   6.967
 8581WAT      O25984   5.421   7.073   0.692
 8581WAT     H125985   5.392   7.085   0.787
 8581WAT     H225986   5.341   7.076   0.632
 8582WAT      O25987   9.003   4.623   6.353
 8582WAT     H125988   9.034   4.531   6.330
 8582WAT     H225989   8.907   4.633   6.328
 8583WAT      O25990   9.225   5.792   9.674
 8583WAT     H125991   9.253   5.873   9.623
 8583WAT     H225992   9.286   5.779   9.752
 8584WAT      O25993   2.099   1.779   0.948
 8584WAT     H125994   2.005   1.746   0.942
 8584WAT     H225995   2.156   1.726   0.885
 8585WAT      O25996   8.414   0.021   3.931
 8585WAT     H125997   8.507   0.053   3.916
 8585WAT     H225998   8.350   0.097   3.924
 8586WAT      O25999   8.103   2.743   5.645
 8586WAT     H126000   8.193   2.701   5.633
 8586WAT     H226001   8.052   2.738   5.559
 8587WAT      O26002   0.392   3.252   0.462
 8587WAT     H126003   0.452   3.324   0.495
 8587WAT     H226004   0.313   3.292   0.415
 8588WAT      O26005   0.765   7.589   9.283
 8588WAT     H126006   0.768   7.670   9.342
 8588WAT     H226007   0.755   7.507   9.340
 8589WAT      O26008   1.711   0.618   2.427
 8589WAT     H126009   1.662   0.704   2.441
 8589WAT     H226010   1.808   0.637   2.416
 8590WAT      O26011   8.694   9.539   4.238
 8590WAT     H126012   8.687   9.565   4.335
 8590WAT     H226013   8.787   9.507   4.219
 8591WAT      O26014   7.861   7.721   6.518
 8591WAT     H126015   7.762   7.721   6.530
 8591WAT     H226016   7.906   7.708   6.606
 8592WAT      O26017   6.710   9.728   7.477
 8592WAT     H126018   6.787   9.701   7.418
 8592WAT     H226019   6.739   9.802   7.538
 8593WAT      O26020   5.938   7.502   5.442
 8593WAT     H126021   5.889   7.442   5.379
 8593WAT     H226022   5.923   7.597   5.417
 8594WAT      O26023   7.912   6.268   5.595
 8594WAT     H126024   7.985   6.298   5.533
 8594WAT     H226025   7.846   6.213   5.544
 8595WAT      O26026   1.933   2.741   2.899
 8595WAT     H126027   1.844   2.711   2.933
 8595WAT     H226028   2.005   2.708   2.959
 8596WAT      O26029   0.163   6.106   4.322
 8596WAT     H126030   0.161   6.012   4.356
 8596WAT     H226031   0.200   6.166   4.393
 8597WAT      O26032   4.540   9.319   1.572
 8597WAT     H126033   4.570   9.294   1.480
 8597WAT     H226034   4.472   9.253   1.603
 8598WAT      O26035   0.394   0.298   9.533
 8598WAT     H126036   0.302   0.271   9.503
 8598WAT     H226037   0.435   0.358   9.465
 8599WAT      O26038   6.525   7.393   1.582
 8599WAT     H126039   6.593   7.381   1.509
 8599WAT     H226040   6.543   7.327   1.655
 8600WAT      O26041   9.289   4.002   5.960
 8600WAT     H126042   9.281   3.945   6.042
 8600WAT     H226043   9.376   3.983   5.915
 8601WAT      O26044   1.010   0.218   4.025
 8601WAT     H126045   1.031   0.146   3.959
 8601WAT     H226046   0.961   0.178   4.103
 8602WAT      O26047   8.613   7.638   8.928
 8602WAT     H126048   8.603   7.733   8.896
 8602WAT     H226049   8.700   7.601   8.897
 8603WAT      O26050   2.146   9.222   5.092
 8603WAT     H126051   2.175   9.154   5.159
 8603WAT     H226052   2.165   9.314   5.127
 8604WAT      O26053   8.815   7.910   3.796
 8604WAT     H126054   8.826   7.931   3.698
 8604WAT     H226055   8.725   7.869   3.811
 8605WAT      O26056   1.133   2.050   7.862
 8605WAT     H126057   1.142   2.000   7.776
 8605WAT     H226058   1.082   1.995   7.928
 8606WAT      O26059   8.266   2.076   9.737
 8606WAT     H126060   8.333   2.086   9.811
 8606WAT     H226061   8.295   2.131   9.659
 8607WAT      O26062   7.234   1.924   7.197
 8607WAT     H126063   7.221   1.878   7.109
 8607WAT     H226064   7.317   1.888   7.241
 8608WAT      O26065   5.506   0.530   8.908
 8608WAT     H126066   5.601   0.497   8.905
 8608WAT     H226067   5.499   0.614   8.854
 8609WAT      O26068   1.982   8.431   2.333
 8609WAT     H126069   1.924   8.378   2.395
 8609WAT     H226070   2.033   8.500   2.386
 8610WAT      O26071   8.154   1.563   3.662
 8610WAT     H126072   8.233   1.501   3.665
 8610WAT     H226073   8.097   1.540   3.582
 8611WAT      O26074   0.121   3.239   7.304
 8611WAT     H126075   0.088   3.166   7.363
 8611WAT     H226076   0.061   3.319   7.312
 8612WAT      O26077   0.146   0.766   1.480
 8612WAT     H126078   0.224   0.810   1.436
 8612WAT     H226079   0.153   0.776   1.579
 8613WAT      O26080   0.753   9.700   1.626
 8613WAT     H126081   0.670   9.753   1.641
 8613WAT     H226082   0.803   9.737   1.549
 8614WAT      O26083   6.505   2.645   2.638
 8614WAT     H126084   6.489   2.739   2.608
 8614WAT     H226085   6.512   2.642   2.738
 8615WAT      O26086   9.619   2.364   4.058
 8615WAT     H126087   9.540   2.311   4.090
 8615WAT     H226088   9.678   2.304   4.003
 8616WAT      O26089   6.698   3.272   4.122
 8616WAT     H126090   6.646   3.232   4.046
 8616WAT     H226091   6.734   3.198   4.179
 8617WAT      O26092   3.838   0.289   3.073
 8617WAT     H126093   3.831   0.375   3.123
 8617WAT     H226094   3.934   0.263   3.065
 8618WAT      O26095   0.073   3.654   4.332
 8618WAT     H126096   0.020   3.602   4.266
 8618WAT     H226097   0.165   3.616   4.339
 8619WAT      O26098   0.523   5.335   6.099
 8619WAT     H126099   0.455   5.265   6.121
 8619WAT     H226100   0.606   5.291   6.066
 8620WAT      O26101   4.861   1.127   2.865
 8620WAT     H126102   4.873   1.192   2.940
 8620WAT     H226103   4.866   1.176   2.778
 8621WAT      O26104   2.567   9.413   4.289
 8621WAT     H126105   2.557   9.335   4.350
 8621WAT     H226106   2.482   9.465   4.286
 8622WAT      O26107   6.911   3.452   0.111
 8622WAT     H126108   6.904   3.355   0.133
 8622WAT     H226109   7.008   3.478   0.106
 8623WAT      O26110   9.043   8.554   4.182
 8623WAT     H126111   8.948   8.562   4.154
 8623WAT     H226112   9.103   8.573   4.105
 8624WAT      O26113   5.321   8.065   1.718
 8624WAT     H126114   5.266   7.981   1.711
 8624WAT     H226115   5.300   8.125   1.641
 8625WAT      O26116   8.366   1.372   4.985
 8625WAT     H126117   8.357   1.386   5.083
 8625WAT     H226118   8.277   1.389   4.941
 8626WAT      O26119   2.918   1.120   5.933
 8626WAT     H126120   2.846   1.052   5.935
 8626WAT     H226121   3.007   1.075   5.934
 8627WAT      O26122   4.812   4.865   4.126
 8627WAT     H126123   4.901   4.901   4.098
 8627WAT     H226124   4.746   4.940   4.134
 8628WAT      O26125   2.022   0.520   5.857
 8628WAT     H126126   1.929   0.498   5.887
 8628WAT     H226127   2.088   0.481   5.921
 8629WAT      O26128   7.063   9.828   5.029
 8629WAT     H126129   7.127   9.805   4.956
 8629WAT     H226130   7.024   9.744   5.067
 8630WAT      O26131   0.263   2.391   5.817
 8630WAT     H126132   0.250   2.328   5.893
 8630WAT     H226133   0.179   2.441   5.799
 8631WAT      O26134   4.004   0.559   7.739
 8631WAT     H126135   4.042   0.573   7.648
 8631WAT     H226136   3.936   0.486   7.737
 8632WAT      O26137   8.008   2.394   8.484
 8632WAT     H126138   7.992   2.463   8.554
 8632WAT     H226139   8.107   2.384   8.470
 8633WAT      O26140   2.779   4.986   9.494
 8633WAT     H126141   2.691   5.032   9.489
 8633WAT     H226142   2.776   4.914   9.563
 8634WAT      O26143   3.532   3.025   7.991
 8634WAT     H126144   3.472   3.055   7.917
 8634WAT     H226145   3.483   2.961   8.050
 8635WAT      O26146   7.442   6.496   9.338
 8635WAT     H126147   7.423   6.588   9.372
 8635WAT     H226148   7.538   6.490   9.311
 8636WAT      O26149   2.530   8.467   4.918
 8636WAT     H126150   2.539   8.380   4.967
 8636WAT     H226151   2.437   8.501   4.928
 8637WAT      O26152   6.643   5.638   1.303
 8637WAT     H126153   6.736   5.665   1.328
 8637WAT     H226154   6.610   5.695   1.228
 8638WAT      O26155   6.143   8.760   1.925
 8638WAT     H126156   6.156   8.662   1.943
 8638WAT     H226157   6.225   8.809   1.951
 8639WAT      O26158   4.322   7.421   9.005
 8639WAT     H126159   4.236   7.447   8.960
 8639WAT     H226160   4.399   7.461   8.955
 8640WAT      O26161   3.937   7.934   5.193
 8640WAT     H126162   3.995   7.998   5.142
 8640WAT     H226163   3.949   7.842   5.156
 8641WAT      O26164   6.302   6.718   2.116
 8641WAT     H126165   6.374   6.784   2.095
 8641WAT     H226166   6.339   6.645   2.174
 8642WAT      O26167   1.321   0.634   4.186
 8642WAT     H126168   1.291   0.729   4.175
 8642WAT     H226169   1.250   0.573   4.153
 8643WAT      O26170   2.036   7.850   3.124
 8643WAT     H126171   2.077   7.838   3.033
 8643WAT     H226172   2.052   7.768   3.178
 8644WAT      O26173   0.429   6.605   3.464
 8644WAT     H126174   0.522   6.571   3.480
 8644WAT     H226175   0.403   6.587   3.370
 8645WAT      O26176   6.041   0.532   3.978
 8645WAT     H126177   6.061   0.590   3.900
 8645WAT     H226178   6.047   0.436   3.951
 8646WAT      O26179   0.634   3.179   9.075
 8646WAT     H126180   0.649   3.084   9.047
 8646WAT     H226181   0.695   3.202   9.152
 8647WAT      O26182   0.357   7.516   7.635
 8647WAT     H126183   0.377   7.613   7.622
 8647WAT     H226184   0.292   7.485   7.565
 8648WAT      O26185   2.531   8.495   5.650
 8648WAT     H126186   2.588   8.575   5.631
 8648WAT     H226187   2.438   8.513   5.618
 8649WAT      O26188   4.394   2.406   7.392
 8649WAT     H126189   4.420   2.462   7.471
 8649WAT     H226190   4.471   2.349   7.364
 8650WAT      O26191   9.320   1.418   1.781
 8650WAT     H126192   9.394   1.429   1.714
 8650WAT     H226193   9.290   1.508   1.813
 8651WAT      O26194   4.388   1.279   5.520
 8651WAT     H126195   4.428   1.240   5.437
 8651WAT     H226196   4.328   1.211   5.563
 8652WAT      O26197   0.282   3.551   6.714
 8652WAT     H126198   0.242   3.500   6.790
 8652WAT     H226199   0.215   3.559   6.640
 8653WAT      O26200   1.420   9.252   0.582
 8653WAT     H126201   1.486   9.265   0.509
 8653WAT     H226202   1.428   9.326   0.648
 8654WAT      O26203   8.629   3.266   8.230
 8654WAT     H126204   8.616   3.273   8.329
 8654WAT     H226205   8.683   3.184   8.209
 8655WAT      O26206   8.977   9.786   8.940
 8655WAT     H126207   9.023   9.698   8.948
 8655WAT     H226208   8.988   9.821   8.846
 8656WAT      O26209   2.988   0.266   8.917
 8656WAT     H126210   2.891   0.244   8.911
 8656WAT     H226211   3.028   0.218   8.995
 8657WAT      O26212   9.064   6.489   2.783
 8657WAT     H126213   9.030   6.496   2.877
 8657WAT     H226214   9.095   6.579   2.752
 8658WAT      O26215   5.107   4.122   0.784
 8658WAT     H126216   5.067   4.035   0.813
 8658WAT     H226217   5.108   4.186   0.861
 8659WAT      O26218   3.854   9.745   6.808
 8659WAT     H126219   3.879   9.688   6.731
 8659WAT     H226220   3.922   9.818   6.819
 8660WAT      O26221   0.903   6.976   3.907
 8660WAT     H126222   0.859   6.928   3.983
 8660WAT     H226223   0.886   7.074   3.915
 8661WAT      O26224   2.484   3.285   8.401
 8661WAT     H126225   2.570   3.235   8.412
 8661WAT     H226226   2.408   3.228   8.434
 8662WAT      O26227   0.006   5.216   6.331
 8662WAT     H126228   0.048   5.306   6.320
 8662WAT     H226229   0.025   5.160   6.251
 8663WAT      O26230   2.907   2.379   4.709
 8663WAT     H126231   2.974   2.364   4.637
 8663WAT     H226232   2.894   2.295   4.761
 8664WAT      O26233   4.598   3.205   6.847
 8664WAT     H126234   4.617   3.255   6.932
 8664WAT     H226235   4.684   3.176   6.806
 8665WAT      O26236   4.647   3.746   8.050
 8665WAT     H126237   4.726   3.772   7.993
 8665WAT     H226238   4.679   3.711   8.138
 8666WAT      O26239   3.323   9.770   8.949
 8666WAT     H126240   3.272   9.794   9.031
 8666WAT     H226241   3.408   9.725   8.974
 8667WAT      O26242   5.175   0.513   0.470
 8667WAT     H126243   5.099   0.576   0.452
 8667WAT     H226244   5.249   0.531   0.405
 8668WAT      O26245   2.801   8.314   0.905
 8668WAT     H126246   2.815   8.413   0.901
 8668WAT     H226247   2.841   8.277   0.989
 8669WAT      O26248   7.534   5.031   0.079
 8669WAT     H126249   7.630   5.033   0.051
 8669WAT     H226250   7.506   4.937   0.095
 8670WAT      O26251   4.093   1.025   4.664
 8670WAT     H126252   4.059   1.057   4.576
 8670WAT     H226253   4.083   0.926   4.670
 8671WAT      O26254   5.447   3.439   7.228
 8671WAT     H126255   5.423   3.402   7.318
 8671WAT     H226256   5.436   3.368   7.158
 8672WAT      O26257   6.150   2.618   2.415
 8672WAT     H126258   6.182   2.712   2.412
 8672WAT     H226259   6.203   2.562   2.351
 8673WAT      O26260   3.559   3.309   3.683
 8673WAT     H126261   3.657   3.311   3.701
 8673WAT     H226262   3.510   3.289   3.768
 8674WAT      O26263   4.659   5.126   7.763
 8674WAT     H126264   4.726   5.196   7.738
 8674WAT     H226265   4.567   5.161   7.746
 8675WAT      O26266   6.833   4.688   0.115
 8675WAT     H126267   6.786   4.776   0.112
 8675WAT     H226268   6.867   4.671   0.208
 8676WAT      O26269   0.591   7.544   1.703
 8676WAT     H126270   0.494   7.521   1.707
 8676WAT     H226271   0.622   7.574   1.793
 8677WAT      O26272   8.475   8.181   8.271
 8677WAT     H126273   8.525   8.267   8.266
 8677WAT     H226274   8.448   8.163   8.365
 8678WAT      O26275   6.280   4.515   4.614
 8678WAT     H126276   6.294   4.528   4.516
 8678WAT     H226277   6.362   4.475   4.655
 8679WAT      O26278   5.703   6.710   7.066
 8679WAT     H126279   5.732   6.625   7.111
 8679WAT     H226280   5.752   6.720   6.979
 8680WAT      O26281   0.426   1.644   3.900
 8680WAT     H126282   0.347   1.690   3.860
 8680WAT     H226283   0.397   1.559   3.944
 8681WAT      O26284   6.941   2.096   6.937
 8681WAT     H126285   6.973   2.104   7.032
 8681WAT     H226286   7.019   2.075   6.878
 8682WAT      O26287   9.809   4.356   4.363
 8682WAT     H126288   9.901   4.388   4.338
 8682WAT     H226289   9.811   4.257   4.377
 8683WAT      O26290   4.156   9.323   0.760
 8683WAT     H126291   4.122   9.310   0.853
 8683WAT     H226292   4.245   9.370   0.763
 8684WAT      O26293   1.366   4.207   8.248
 8684WAT     H126294   1.455   4.246   8.270
 8684WAT     H226295   1.295   4.255   8.299
 8685WAT      O26296   3.507   8.837   8.103
 8685WAT     H126297   3.571   8.858   8.178
 8685WAT     H226298   3.521   8.743   8.073
 8686WAT      O26299   4.059   8.406   7.652
 8686WAT     H126300   4.084   8.317   7.691
 8686WAT     H226301   4.088   8.409   7.556
 8687WAT      O26302   4.256   0.093   4.646
 8687WAT     H126303   4.337   0.150   4.633
 8687WAT     H226304   4.244   0.073   4.744
 8688WAT      O26305   9.577   9.505   5.097
 8688WAT     H126306   9.488   9.540   5.069
 8688WAT     H226307   9.600   9.540   5.188
 8689WAT      O26308   8.483   5.681   0.611
 8689WAT     H126309   8.386   5.661   0.602
 8689WAT     H226310   8.513   5.736   0.533
 8690WAT      O26311   2.701   9.305   8.240
 8690WAT     H126312   2.777   9.283   8.301
 8690WAT     H226313   2.614   9.285   8.285
 8691WAT      O26314   7.006   8.950   5.149
 8691WAT     H126315   7.011   9.009   5.068
 8691WAT     H226316   6.921   8.968   5.198
 8692WAT      O26317   5.344   5.177   2.457
 8692WAT     H126318   5.274   5.133   2.515
 8692WAT     H226319   5.304   5.255   2.410
 8693WAT      O26320   5.019   0.377   3.352
 8693WAT     H126321   5.031   0.361   3.450
 8693WAT     H226322   4.936   0.330   3.321
 8694WAT      O26323   2.623   4.532   5.090
 8694WAT     H126324   2.551   4.510   5.024
 8694WAT     H226325   2.652   4.448   5.137
 8695WAT      O26326   6.915   1.309   1.947
 8695WAT     H126327   6.945   1.266   2.032
 8695WAT     H226328   6.837   1.369   1.966
 8696WAT      O26329   4.217   5.368   1.579
 8696WAT     H126330   4.126   5.392   1.612
 8696WAT     H226331   4.211   5.326   1.489
 8697WAT      O26332   2.353   2.923   9.315
 8697WAT     H126333   2.306   2.940   9.402
 8697WAT     H226334   2.414   2.845   9.326
 8698WAT      O26335   9.748   8.502   5.642
 8698WAT     H126336   9.691   8.568   5.692
 8698WAT     H226337   9.804   8.550   5.576
 8699WAT      O26338   1.253   2.190   0.590
 8699WAT     H126339   1.193   2.262   0.556
 8699WAT     H226340   1.212   2.146   0.670
 8700WAT      O26341   1.444   7.624   9.395
 8700WAT     H126342   1.475   7.564   9.321
 8700WAT     H226343   1.522   7.669   9.437
 8701WAT      O26344   5.921   5.093   8.356
 8701WAT     H126345   5.984   5.024   8.391
 8701WAT     H226346   5.879   5.143   8.432
 8702WAT      O26347   7.472   8.879   3.713
 8702WAT     H126348   7.535   8.944   3.671
 8702WAT     H226349   7.413   8.926   3.779
 8703WAT      O26350   0.112   1.211   0.554
 8703WAT     H126351   0.090   1.154   0.475
 8703WAT     H226352   0.027   1.247   0.594
 8704WAT      O26353   0.491   5.811   8.579
 8704WAT     H126354   0.432   5.879   8.536
 8704WAT     H226355   0.464   5.719   8.548
 8705WAT      O26356   2.288   8.467   3.787
 8705WAT     H126357   2.322   8.531   3.718
 8705WAT     H226358   2.313   8.500   3.878
 8706WAT      O26359   4.323   6.372   8.193
 8706WAT     H126360   4.357   6.378   8.100
 8706WAT     H226361   4.270   6.454   8.215
 8707WAT      O26362   7.512   9.642   8.937
 8707WAT     H126363   7.509   9.672   8.842
 8707WAT     H226364   7.447   9.695   8.991
 8708WAT      O26365   5.647   4.742   6.648
 8708WAT     H126366   5.743   4.750   6.619
 8708WAT     H226367   5.615   4.831   6.682
 8709WAT      O26368   5.324   4.389   9.340
 8709WAT     H126369   5.346   4.394   9.242
 8709WAT     H226370   5.238   4.340   9.352
 8710WAT      O26371   1.115   7.959   5.568
 8710WAT     H126372   1.170   7.928   5.646
 8710WAT     H226373   1.168   7.946   5.484
 8711WAT      O26374   5.327   4.702   6.290
 8711WAT     H126375   5.401   4.763   6.261
 8711WAT     H226376   5.342   4.676   6.386
 8712WAT      O26377   3.171   3.931   0.524
 8712WAT     H126378   3.176   3.838   0.486
 8712WAT     H226379   3.081   3.970   0.505
 8713WAT      O26380   1.390   3.936   0.276
 8713WAT     H126381   1.448   3.958   0.198
 8713WAT     H226382   1.443   3.882   0.342
 8714WAT      O26383   3.786   9.711   8.041
 8714WAT     H126384   3.862   9.651   8.067
 8714WAT     H226385   3.735   9.738   8.123
 8715WAT      O26386   9.568   3.238   4.928
 8715WAT     H126387   9.552   3.239   5.026
 8715WAT     H226388   9.650   3.290   4.906
 8716WAT      O26389   2.773   1.041   8.389
 8716WAT     H126390   2.807   1.014   8.299
 8716WAT     H226391   2.675   1.021   8.395
 8717WAT      O26392   0.511   3.254   5.459
 8717WAT     H126393   0.577   3.252   5.534
 8717WAT     H226394   0.452   3.173   5.466
 8718WAT      O26395   2.496   1.779   9.342
 8718WAT     H126396   2.480   1.694   9.292
 8718WAT     H226397   2.568   1.832   9.295
 8719WAT      O26398   7.844   0.477   4.789
 8719WAT     H126399   7.836   0.438   4.697
 8719WAT     H226400   7.837   0.576   4.784
 8720WAT      O26401   5.618   8.519   7.604
 8720WAT     H126402   5.651   8.463   7.528
 8720WAT     H226403   5.585   8.607   7.569
 8721WAT      O26404   9.299   5.116   5.048
 8721WAT     H126405   9.369   5.091   5.115
 8721WAT     H226406   9.334   5.098   4.956
 8722WAT      O26407   7.553   5.066   7.867
 8722WAT     H126408   7.607   4.982   7.860
 8722WAT     H226409   7.531   5.098   7.775
 8723WAT      O26410   4.978   3.300   4.123
 8723WAT     H126411   5.005   3.394   4.100
 8723WAT     H226412   4.999   3.282   4.219
 8724WAT      O26413   4.332   1.747   5.530
 8724WAT     H126414   4.271   1.792   5.465
 8724WAT     H226415   4.422   1.736   5.489
 8725WAT      O26416   6.471   5.997   0.122
 8725WAT     H126417   6.390   6.044   0.087
 8725WAT     H226418   6.444   5.930   0.191
 8726WAT      O26419   5.559   7.822   3.183
 8726WAT     H126420   5.479   7.770   3.155
 8726WAT     H226421   5.617   7.840   3.104
 8727WAT      O26422   7.954   5.113   5.182
 8727WAT     H126423   7.860   5.136   5.156
 8727WAT     H226424   7.995   5.191   5.230
 8728WAT      O26425   1.815   2.691   8.327
 8728WAT     H126426   1.800   2.594   8.306
 8728WAT     H226427   1.750   2.746   8.274
 8729WAT      O26428   9.073   7.321   1.287
 8729WAT     H126429   9.008   7.249   1.262
 8729WAT     H226430   9.076   7.390   1.214
 8730WAT      O26431   3.519   3.187   9.576
 8730WAT     H126432   3.455   3.206   9.502
 8730WAT     H226433   3.503   3.094   9.611
 8731WAT      O26434   2.605   2.476   9.178
 8731WAT     H126435   2.705   2.465   9.176
 8731WAT     H226436   2.562   2.386   9.180
 8732WAT      O26437   1.915   5.946   0.191
 8732WAT     H126438   1.830   5.905   0.158
 8732WAT     H226439   1.975   5.874   0.226
 8733WAT      O26440   0.974   9.017   4.842
 8733WAT     H126441   0.968   9.003   4.744
 8733WAT     H226442   1.059   8.978   4.877
 8734WAT      O26443   7.531   2.261   4.320
 8734WAT     H126444   7.431   2.265   4.310
 8734WAT     H226445   7.559   2.169   4.344
 8735WAT      O26446   7.539   8.051   9.248
 8735WAT     H126447   7.607   7.983   9.223
 8735WAT     H226448   7.582   8.142   9.252
 8736WAT      O26449   0.510   3.320   4.225
 8736WAT     H126450   0.483   3.409   4.190
 8736WAT     H226451   0.545   3.263   4.151
 8737WAT      O26452   8.176   4.537   0.755
 8737WAT     H126453   8.264   4.495   0.732
 8737WAT     H226454   8.181   4.636   0.741
 8738WAT      O26455   8.302   2.570   7.108
 8738WAT     H126456   8.370   2.522   7.053
 8738WAT     H226457   8.222   2.591   7.052
 8739WAT      O26458   9.037   4.298   8.467
 8739WAT     H126459   9.075   4.341   8.386
 8739WAT     H226460   9.111   4.264   8.526
 8740WAT      O26461   6.303   1.288   1.748
 8740WAT     H126462   6.385   1.344   1.747
 8740WAT     H226463   6.297   1.238   1.835
 8741WAT      O26464   7.992   2.357   8.192
 8741WAT     H126465   7.977   2.377   8.288
 8741WAT     H226466   7.993   2.442   8.139
 8742WAT      O26467   1.462   1.114   4.902
 8742WAT     H126468   1.519   1.091   4.823
 8742WAT     H226469   1.467   1.039   4.969
 8743WAT      O26470   4.211   2.183   3.981
 8743WAT     H126471   4.155   2.262   4.005
 8743WAT     H226472   4.277   2.164   4.054
 8744WAT      O26473   7.882   7.177   5.622
 8744WAT     H126474   7.972   7.157   5.585
 8744WAT     H226475   7.863   7.275   5.613
 8745WAT      O26476   3.324   3.297   4.076
 8745WAT     H126477   3.238   3.319   4.031
 8745WAT     H226478   3.395   3.361   4.046
 8746WAT      O26479   1.070   3.182   2.100
 8746WAT     H126480   1.158   3.156   2.061
 8746WAT     H226481   1.014   3.225   2.029
 8747WAT      O26482   7.777   5.868   4.379
 8747WAT     H126483   7.738   5.959   4.384
 8747WAT     H226484   7.876   5.874   4.365
 8748WAT      O26485   8.722   6.371   8.432
 8748WAT     H126486   8.748   6.313   8.509
 8748WAT     H226487   8.644   6.331   8.384
 8749WAT      O26488   8.152   3.021   8.853
 8749WAT     H126489   8.129   3.043   8.758
 8749WAT     H226490   8.183   3.104   8.899
 8750WAT      O26491   1.354   9.099   0.792
 8750WAT     H126492   1.443   9.066   0.824
 8750WAT     H226493   1.362   9.128   0.697
 8751WAT      O26494   4.014   6.885   5.148
 8751WAT     H126495   4.028   6.839   5.235
 8751WAT     H226496   4.025   6.819   5.073
 8752WAT      O26497   2.980   3.704   3.828
 8752WAT     H126498   3.053   3.675   3.765
 8752WAT     H226499   3.016   3.709   3.921
 8753WAT      O26500   3.668   2.797   4.919
 8753WAT     H126501   3.634   2.767   4.830
 8753WAT     H226502   3.603   2.860   4.961
 8754WAT      O26503   7.058   5.436   9.801
 8754WAT     H126504   7.064   5.402   9.707
 8754WAT     H226505   6.963   5.430   9.832
 8755WAT      O26506   8.146   5.173   9.103
 8755WAT     H126507   8.227   5.115   9.115
 8755WAT     H226508   8.068   5.130   9.149
 8756WAT      O26509   9.429   3.298   3.446
 8756WAT     H126510   9.461   3.304   3.541
 8756WAT     H226511   9.436   3.203   3.416
 8757WAT      O26512   5.350   4.116   6.683
 8757WAT     H126513   5.359   4.202   6.733
 8757WAT     H226514   5.298   4.131   6.599
 8758WAT      O26515   8.002   0.558   3.499
 8758WAT     H126516   8.053   0.595   3.576
 8758WAT     H226517   8.022   0.461   3.489
 8759WAT      O26518   4.167   6.731   4.699
 8759WAT     H126519   4.155   6.802   4.630
 8759WAT     H226520   4.260   6.695   4.695
 8760WAT      O26521   3.872   6.036   8.481
 8760WAT     H126522   3.951   5.988   8.442
 8760WAT     H226523   3.803   5.969   8.506
 8761WAT      O26524   9.529   3.644   4.609
 8761WAT     H126525   9.497   3.664   4.517
 8761WAT     H226526   9.492   3.557   4.640
 8762WAT      O26527   1.326   5.262   0.013
 8762WAT     H126528   1.281   5.321  -0.055
 8762WAT     H226529   1.412   5.228  -0.025
 8763WAT      O26530   9.418   6.887   2.413
 8763WAT     H126531   9.347   6.826   2.376
 8763WAT     H226532   9.461   6.844   2.492
 8764WAT      O26533   6.895   8.086   0.683
 8764WAT     H126534   6.956   8.034   0.743
 8764WAT     H226535   6.932   8.178   0.669
 8765WAT      O26536   7.488   1.180   6.912
 8765WAT     H126537   7.402   1.212   6.950
 8765WAT     H226538   7.531   1.116   6.975
 8766WAT      O26539   7.089   4.790   4.052
 8766WAT     H126540   7.145   4.706   4.052
 8766WAT     H226541   7.139   4.862   4.005
 8767WAT      O26542   9.773   5.357   1.239
 8767WAT     H126543   9.831   5.374   1.318
 8767WAT     H226544   9.784   5.432   1.173
 8768WAT      O26545   6.328   2.394   0.443
 8768WAT     H126546   6.378   2.420   0.526
 8768WAT     H226547   6.311   2.476   0.388
 8769WAT      O26548   1.874   6.975   3.333
 8769WAT     H126549   1.848   7.064   3.371
 8769WAT     H226550   1.906   6.915   3.406
 8770WAT      O26551   4.352   1.181   8.355
 8770WAT     H126552   4.282   1.251   8.344
 8770WAT     H226553   4.355   1.122   8.274
 8771WAT      O26554   8.467   3.672   8.579
 8771WAT     H126555   8.532   3.664   8.503
 8771WAT     H226556   8.467   3.587   8.632
 8772WAT      O26557   3.148   5.485   6.521
 8772WAT     H126558   3.141   5.583   6.541
 8772WAT     H226559   3.227   5.446   6.568
 8773WAT      O26560   3.112   1.386   5.056
 8773WAT     H126561   3.067   1.350   5.138
 8773WAT     H226562   3.085   1.481   5.042
 8774WAT      O26563   7.726   0.323   1.142
 8774WAT     H126564   7.819   0.286   1.131
 8774WAT     H226565   7.728   0.422   1.128
 8775WAT      O26566   2.063   4.621   2.364
 8775WAT     H126567   2.039   4.524   2.355
 8775WAT     H226568   1.980   4.675   2.378
 8776WAT      O26569   1.676   5.015   0.546
 8776WAT     H126570   1.723   5.077   0.482
 8776WAT     H226571   1.585   4.995   0.511
 8777WAT      O26572   6.492   2.760   7.530
 8777WAT     H126573   6.431   2.822   7.480
 8777WAT     H226574   6.566   2.730   7.470
 8778WAT      O26575   4.606   3.430   0.126
 8778WAT     H126576   4.557   3.406   0.042
 8778WAT     H226577   4.539   3.453   0.198
 8779WAT      O26578   1.089   5.564   6.014
 8779WAT     H126579   1.012   5.558   6.078
 8779WAT     H226580   1.057   5.600   5.927
 8780WAT      O26581   9.389   3.779   9.084
 8780WAT     H126582   9.328   3.704   9.061
 8780WAT     H226583   9.375   3.806   9.179
 8781WAT      O26584   9.229   1.833   2.237
 8781WAT     H126585   9.153   1.796   2.291
 8781WAT     H226586   9.272   1.909   2.287
 8782WAT      O26587   5.745   5.012   9.665
 8782WAT     H126588   5.823   5.070   9.639
 8782WAT     H226589   5.762   4.972   9.755
 8783WAT      O26590   4.754   4.027   7.393
 8783WAT     H126591   4.759   4.058   7.488
 8783WAT     H226592   4.658   4.007   7.370
 8784WAT      O26593   2.735   4.869   1.448
 8784WAT     H126594   2.701   4.839   1.359
 8784WAT     H226595   2.714   4.799   1.517
 8785WAT      O26596   9.196   2.629   2.471
 8785WAT     H126597   9.265   2.582   2.527
 8785WAT     H226598   9.106   2.590   2.490
 8786WAT      O26599   6.989   9.033   7.648
 8786WAT     H126600   6.897   8.998   7.667
 8786WAT     H226601   6.995   9.129   7.677
 8787WAT      O26602   1.241   2.340   4.100
 8787WAT     H126603   1.271   2.299   4.186
 8787WAT     H226604   1.204   2.432   4.118
 8788WAT      O26605   0.170   1.396   3.546
 8788WAT     H126606   0.168   1.465   3.474
 8788WAT     H226607   0.264   1.363   3.558
 8789WAT      O26608   1.783   4.918   3.995
 8789WAT     H126609   1.723   4.855   3.947
 8789WAT     H226610   1.767   5.011   3.962
 8790WAT      O26611   0.172   7.419   6.309
 8790WAT     H126612   0.184   7.435   6.211
 8790WAT     H226613   0.226   7.339   6.336
 8791WAT      O26614   4.126   2.867   5.732
 8791WAT     H126615   4.027   2.860   5.741
 8791WAT     H226616   4.169   2.837   5.818
 8792WAT      O26617   4.146   7.621   4.300
 8792WAT     H126618   4.152   7.618   4.201
 8792WAT     H226619   4.233   7.592   4.340
 8793WAT      O26620   2.182   2.501   8.328
 8793WAT     H126621   2.095   2.543   8.355
 8793WAT     H226622   2.250   2.572   8.313
 8794WAT      O26623   6.149   4.343   7.950
 8794WAT     H126624   6.093   4.260   7.947
 8794WAT     H226625   6.092   4.420   7.983
 8795WAT      O26626   3.568   1.851   1.982
 8795WAT     H126627   3.601   1.771   2.032
 8795WAT     H226628   3.638   1.922   1.983
 8796WAT      O26629   1.263   2.870   8.083
 8796WAT     H126630   1.243   2.956   8.131
 8796WAT     H226631   1.237   2.878   7.987
 8797WAT      O26632   8.036   6.373   8.834
 8797WAT     H126633   7.958   6.405   8.888
 8797WAT     H226634   8.039   6.423   8.747
 8798WAT      O26635   5.374   0.766   4.333
 8798WAT     H126636   5.342   0.817   4.253
 8798WAT     H226637   5.468   0.735   4.318
 8799WAT      O26638   1.057   8.112   6.174
 8799WAT     H126639   1.019   8.022   6.153
 8799WAT     H226640   1.156   8.111   6.158
 8800WAT      O26641   2.233   4.390   9.507
 8800WAT     H126642   2.292   4.362   9.583
 8800WAT     H226643   2.138   4.376   9.532
 8801WAT      O26644   7.411   3.165   0.846
 8801WAT     H126645   7.428   3.152   0.749
 8801WAT     H226646   7.366   3.084   0.884
 8802WAT      O26647   3.543   9.049   0.218
 8802WAT     H126648   3.525   9.026   0.314
 8802WAT     H226649   3.512   8.974   0.160
 8803WAT      O26650   5.853   7.606   5.708
 8803WAT     H126651   5.772   7.659   5.684
 8803WAT     H226652   5.891   7.564   5.625
 8804WAT      O26653   1.117   4.425   1.362
 8804WAT     H126654   1.189   4.420   1.292
 8804WAT     H226655   1.107   4.336   1.405
 8805WAT      O26656   4.701   7.474   8.154
 8805WAT     H126657   4.661   7.420   8.080
 8805WAT     H226658   4.780   7.425   8.192
 8806WAT      O26659   3.657   6.528   3.420
 8806WAT     H126660   3.714   6.447   3.438
 8806WAT     H226661   3.708   6.611   3.442
 8807WAT      O26662   4.479   1.447   3.133
 8807WAT     H126663   4.478   1.487   3.225
 8807WAT     H226664   4.506   1.517   3.067
 8808WAT      O26665   6.043   6.256   1.566
 8808WAT     H126666   6.076   6.168   1.602
 8808WAT     H226667   5.996   6.306   1.639
 8809WAT      O26668   0.624   2.129   6.504
 8809WAT     H126669   0.613   2.062   6.430
 8809WAT     H226670   0.681   2.090   6.576
 8810WAT      O26671   8.232   2.995   1.380
 8810WAT     H126672   8.241   3.054   1.300
 8810WAT     H226673   8.157   2.930   1.365
 8811WAT      O26674   8.361   9.394   4.958
 8811WAT     H126675   8.332   9.302   4.982
 8811WAT     H226676   8.337   9.457   5.032
 8812WAT      O26677   8.186   1.940   0.796
 8812WAT     H126678   8.102   1.934   0.850
 8812WAT     H226679   8.230   1.850   0.793
 8813WAT      O26680   7.343   1.476   6.369
 8813WAT     H126681   7.321   1.441   6.460
 8813WAT     H226682   7.379   1.402   6.313
 8814WAT      O26683   3.127   6.327   2.340
 8814WAT     H126684   3.086   6.323   2.431
 8814WAT     H226685   3.102   6.413   2.296
 8815WAT      O26686   7.530   3.676   7.162
 8815WAT     H126687   7.522   3.759   7.217
 8815WAT     H226688   7.622   3.638   7.171
 8816WAT      O26689   6.095   4.842   1.858
 8816WAT     H126690   6.018   4.784   1.832
 8816WAT     H226691   6.173   4.785   1.883
 8817WAT      O26692   2.090   7.547   9.807
 8817WAT     H126693   2.022   7.496   9.861
 8817WAT     H226694   2.057   7.640   9.792
 8818WAT      O26695   9.779   6.837   3.725
 8818WAT     H126696   9.787   6.745   3.688
 8818WAT     H226697   9.850   6.852   3.794
 8819WAT      O26698   7.790   3.239   3.958
 8819WAT     H126699   7.742   3.252   3.872
 8819WAT     H226700   7.809   3.141   3.971
 8820WAT      O26701   5.944   6.431   2.508
 8820WAT     H126702   6.027   6.379   2.527
 8820WAT     H226703   5.874   6.370   2.469
 8821WAT      O26704   4.459   1.754   6.842
 8821WAT     H126705   4.544   1.802   6.821
 8821WAT     H226706   4.469   1.657   6.818
 8822WAT      O26707   9.138   6.832   8.248
 8822WAT     H126708   9.054   6.832   8.302
 8822WAT     H226709   9.207   6.774   8.292
 8823WAT      O26710   2.891   8.695   7.503
 8823WAT     H126711   2.866   8.669   7.596
 8823WAT     H226712   2.829   8.650   7.438
 8824WAT      O26713   9.304   8.881   4.986
 8824WAT     H126714   9.381   8.857   4.928
 8824WAT     H226715   9.220   8.882   4.931
 8825WAT      O26716   1.919   8.896   3.108
 8825WAT     H126717   1.863   8.961   3.057
 8825WAT     H226718   1.969   8.837   3.045
 8826WAT      O26719   3.864   7.525   1.346
 8826WAT     H126720   3.873   7.434   1.304
 8826WAT     H226721   3.955   7.566   1.356
 8827WAT      O26722   2.870   4.159   1.135
 8827WAT     H126723   2.814   4.101   1.076
 8827WAT     H226724   2.820   4.179   1.219
 8828WAT      O26725   8.682   2.582   2.052
 8828WAT     H126726   8.650   2.637   1.975
 8828WAT     H226727   8.774   2.611   2.078
 8829WAT      O26728   8.807   1.346   1.473
 8829WAT     H126729   8.873   1.294   1.419
 8829WAT     H226730   8.850   1.373   1.560
 8830WAT      O26731   5.719   3.365   7.370
 8830WAT     H126732   5.651   3.348   7.299
 8830WAT     H226733   5.673   3.394   7.454
 8831WAT      O26734   7.233   3.020   3.713
 8831WAT     H126735   7.158   3.053   3.771
 8831WAT     H226736   7.320   3.034   3.759
 8832WAT      O26737   0.259   0.736   7.651
 8832WAT     H126738   0.198   0.657   7.659
 8832WAT     H226739   0.211   0.811   7.605
 8833WAT      O26740   5.388   1.790   7.926
 8833WAT     H126741   5.393   1.690   7.934
 8833WAT     H226742   5.478   1.826   7.905
 8834WAT      O26743   8.529   5.487   3.505
 8834WAT     H126744   8.609   5.428   3.519
 8834WAT     H226745   8.547   5.550   3.430
 8835WAT      O26746   9.824   2.122   5.430
 8835WAT     H126747   9.782   2.186   5.366
 8835WAT     H226748   9.861   2.044   5.379
 8836WAT      O26749   1.266   6.178   1.629
 8836WAT     H126750   1.192   6.120   1.662
 8836WAT     H226751   1.323   6.127   1.565
 8837WAT      O26752   7.724   4.172   9.334
 8837WAT     H126753   7.746   4.205   9.242
 8837WAT     H226754   7.772   4.086   9.351
 8838WAT      O26755   3.870   6.116   2.766
 8838WAT     H126756   3.847   6.081   2.675
 8838WAT     H226757   3.849   6.213   2.770
 8839WAT      O26758   4.538   7.382   2.522
 8839WAT     H126759   4.629   7.396   2.482
 8839WAT     H226760   4.547   7.325   2.604
 8840WAT      O26761   9.699   9.491   5.727
 8840WAT     H126762   9.678   9.455   5.818
 8840WAT     H226763   9.781   9.547   5.731
 8841WAT      O26764   3.853   2.896   7.757
 8841WAT     H126765   3.947   2.921   7.737
 8841WAT     H226766   3.850   2.844   7.843
 8842WAT      O26767   7.788   7.817   5.535
 8842WAT     H126768   7.868   7.848   5.485
 8842WAT     H226769   7.717   7.788   5.470
 8843WAT      O26770   1.159   9.655   1.593
 8843WAT     H126771   1.251   9.695   1.603
 8843WAT     H226772   1.113   9.697   1.515
 8844WAT      O26773   5.375   5.892   5.672
 8844WAT     H126774   5.412   5.926   5.585
 8844WAT     H226775   5.419   5.805   5.695
 8845WAT      O26776   3.996   8.744   1.253
 8845WAT     H126777   4.059   8.715   1.181
 8845WAT     H226778   3.934   8.668   1.276
 8846WAT      O26779   0.651   3.994   5.753
 8846WAT     H126780   0.659   3.915   5.692
 8846WAT     H226781   0.740   4.012   5.795
 8847WAT      O26782   8.569   7.468   1.145
 8847WAT     H126783   8.492   7.524   1.117
 8847WAT     H226784   8.626   7.518   1.210
 8848WAT      O26785   9.807   0.103   4.722
 8848WAT     H126786   9.766   0.047   4.793
 8848WAT     H226787   9.880   0.159   4.761
 8849WAT      O26788   5.161   8.521   5.863
 8849WAT     H126789   5.161   8.511   5.763
 8849WAT     H226790   5.160   8.431   5.905
 8850WAT      O26791   1.118   5.453   4.161
 8850WAT     H126792   1.020   5.435   4.146
 8850WAT     H226793   1.128   5.530   4.224
 8851WAT      O26794   5.904   2.185   9.232
 8851WAT     H126795   5.827   2.243   9.205
 8851WAT     H226796   5.949   2.224   9.313
 8852WAT      O26797   7.430   2.117   2.404
 8852WAT     H126798   7.463   2.023   2.411
 8852WAT     H226799   7.344   2.126   2.454
 8853WAT      O26800   8.033   0.277   8.381
 8853WAT     H126801   8.022   0.363   8.430
 8853WAT     H226802   8.082   0.211   8.438
 8854WAT      O26803   9.279   9.458   3.113
 8854WAT     H126804   9.189   9.502   3.115
 8854WAT     H226805   9.310   9.441   3.207
 8855WAT      O26806   5.508   9.690   4.934
 8855WAT     H126807   5.464   9.696   5.024
 8855WAT     H226808   5.606   9.707   4.944
 8856WAT      O26809   3.723   8.296   2.525
 8856WAT     H126810   3.641   8.280   2.579
 8856WAT     H226811   3.803   8.265   2.575
 8857WAT      O26812   4.910   6.744   5.892
 8857WAT     H126813   4.882   6.840   5.879
 8857WAT     H226814   5.001   6.731   5.853
 8858WAT      O26815   2.606   2.370   3.372
 8858WAT     H126816   2.540   2.442   3.393
 8858WAT     H226817   2.643   2.384   3.280
 8859WAT      O26818   8.418   8.576   6.304
 8859WAT     H126819   8.493   8.596   6.367
 8859WAT     H226820   8.431   8.628   6.220
 8860WAT      O26821   7.714   9.549   1.602
 8860WAT     H126822   7.658   9.516   1.678
 8860WAT     H226823   7.710   9.648   1.597
 8861WAT      O26824   8.378   6.507   7.677
 8861WAT     H126825   8.427   6.464   7.601
 8861WAT     H226826   8.337   6.436   7.734
 8862WAT      O26827   5.674   2.061   5.225
 8862WAT     H126828   5.632   1.972   5.205
 8862WAT     H226829   5.618   2.134   5.184
 8863WAT      O26830   1.122   6.793   2.259
 8863WAT     H126831   1.145   6.805   2.163
 8863WAT     H226832   1.031   6.752   2.267
 8864WAT      O26833   7.584   5.061   3.859
 8864WAT     H126834   7.674   5.030   3.827
 8864WAT     H226835   7.594   5.150   3.905
 8865WAT      O26836   8.790   2.426   5.793
 8865WAT     H126837   8.847   2.361   5.844
 8865WAT     H226838   8.721   2.376   5.741
 8866WAT      O26839   6.062   3.174   8.939
 8866WAT     H126840   5.974   3.216   8.958
 8866WAT     H226841   6.101   3.215   8.857
 8867WAT      O26842   8.132   1.252   1.760
 8867WAT     H126843   8.165   1.302   1.839
 8867WAT     H226844   8.138   1.311   1.679
 8868WAT      O26845   1.012   8.643   0.875
 8868WAT     H126846   1.071   8.722   0.886
 8868WAT     H226847   1.052   8.564   0.922
 8869WAT      O26848   9.717   1.512   2.404
 8869WAT     H126849   9.814   1.514   2.382
 8869WAT     H226850   9.693   1.593   2.458
 8870WAT      O26851   3.564   8.351   3.281
 8870WAT     H126852   3.543   8.447   3.302
 8870WAT     H226853   3.479   8.302   3.264
 8871WAT      O26854   7.704   1.131   8.817
 8871WAT     H126855   7.777   1.196   8.835
 8871WAT     H226856   7.653   1.113   8.901
 8872WAT      O26857   1.469   0.272   3.910
 8872WAT     H126858   1.386   0.227   3.877
 8872WAT     H226859   1.458   0.295   4.007
 8873WAT      O26860   7.871   8.238   1.065
 8873WAT     H126861   7.868   8.334   1.094
 8873WAT     H226862   7.832   8.180   1.137
 8874WAT      O26863   4.415   3.226   1.546
 8874WAT     H126864   4.431   3.264   1.637
 8874WAT     H226865   4.418   3.126   1.551
 8875WAT      O26866   1.045   8.973   8.035
 8875WAT     H126867   0.950   8.988   8.008
 8875WAT     H226868   1.106   9.023   7.974
 8876WAT      O26869   7.566   0.664   1.064
 8876WAT     H126870   7.494   0.597   1.082
 8876WAT     H226871   7.650   0.635   1.111
 8877WAT      O26872   2.487   9.193   3.993
 8877WAT     H126873   2.565   9.248   4.023
 8877WAT     H226874   2.421   9.252   3.946
 8878WAT      O26875   9.724   2.968   6.040
 8878WAT     H126876   9.692   3.062   6.053
 8878WAT     H226877   9.818   2.961   6.074
 8879WAT      O26878   5.210   9.455   1.267
 8879WAT     H126879   5.234   9.513   1.189
 8879WAT     H226880   5.280   9.384   1.278
 8880WAT      O26881   2.242   3.536   0.181
 8880WAT     H126882   2.197   3.591   0.111
 8880WAT     H226883   2.200   3.445   0.183
 8881WAT      O26884   8.973   9.731   2.975
 8881WAT     H126885   8.943   9.800   2.908
 8881WAT     H226886   8.898   9.667   2.993
 8882WAT      O26887   5.423   9.780   2.582
 8882WAT     H126888   5.375   9.785   2.495
 8882WAT     H226889   5.479   9.862   2.594
 8883WAT      O26890   0.415   8.521   7.488
 8883WAT     H126891   0.335   8.579   7.505
 8883WAT     H226892   0.403   8.434   7.536
 8884WAT      O26893   8.430   2.334   9.646
 8884WAT     H126894   8.525   2.304   9.657
 8884WAT     H226895   8.390   2.290   9.566
 8885WAT      O26896   8.949   6.426   0.077
 8885WAT     H126897   8.865   6.479   0.080
 8885WAT     H226898   8.971   6.402  -0.017
 8886WAT      O26899   9.578   4.020   0.611
 8886WAT     H126900   9.661   4.014   0.555
 8886WAT     H226901   9.501   4.046   0.554
 8887WAT      O26902   2.020   8.397   1.642
 8887WAT     H126903   2.013   8.489   1.680
 8887WAT     H226904   2.076   8.399   1.559
 8888WAT      O26905   8.943   5.722   0.708
 8888WAT     H126906   9.011   5.795   0.701
 8888WAT     H226907   8.852   5.762   0.718
 8889WAT      O26908   8.609   6.150   2.362
 8889WAT     H126909   8.572   6.070   2.315
 8889WAT     H226910   8.573   6.154   2.455
 8890WAT      O26911   5.298   0.403   2.309
 8890WAT     H126912   5.348   0.324   2.275
 8890WAT     H226913   5.232   0.434   2.241
 8891WAT      O26914   6.162   0.121   3.720
 8891WAT     H126915   6.166   0.040   3.779
 8891WAT     H226916   6.177   0.203   3.775
 8892WAT      O26917   1.881   4.993   3.093
 8892WAT     H126918   1.925   4.970   3.006
 8892WAT     H226919   1.854   5.089   3.093
 8893WAT      O26920   3.155   1.836   3.065
 8893WAT     H126921   3.153   1.906   2.993
 8893WAT     H226922   3.107   1.870   3.146
 8894WAT      O26923   3.111   0.184   9.165
 8894WAT     H126924   3.038   0.211   9.228
 8894WAT     H226925   3.165   0.110   9.206
 8895WAT      O26926   9.342   8.501   3.504
 8895WAT     H126927   9.421   8.553   3.539
 8895WAT     H226928   9.294   8.459   3.581
 8896WAT      O26929   9.032   6.185   8.570
 8896WAT     H126930   9.037   6.100   8.622
 8896WAT     H226931   8.942   6.227   8.583
 8897WAT      O26932   3.796   6.097   5.124
 8897WAT     H126933   3.797   6.076   5.222
 8897WAT     H226934   3.889   6.105   5.090
 8898WAT      O26935   4.356   4.445   7.111
 8898WAT     H126936   4.447   4.411   7.133
 8898WAT     H226937   4.317   4.391   7.036
 8899WAT      O26938   6.918   6.232   1.538
 8899WAT     H126939   6.825   6.211   1.569
 8899WAT     H226940   6.984   6.188   1.599
 8900WAT      O26941   5.004   8.323   4.440
 8900WAT     H126942   4.956   8.235   4.437
 8900WAT     H226943   5.010   8.361   4.348
 8901WAT      O26944   1.366   8.476   9.851
 8901WAT     H126945   1.463   8.462   9.836
 8901WAT     H226946   1.326   8.394   9.891
 8902WAT      O26947   6.106   4.244   7.351
 8902WAT     H126948   6.118   4.234   7.450
 8902WAT     H226949   6.009   4.259   7.331
 8903WAT      O26950   1.438   1.052   2.974
 8903WAT     H126951   1.531   1.017   2.963
 8903WAT     H226952   1.393   1.056   2.885
 8904WAT      O26953   2.202   9.507   2.985
 8904WAT     H126954   2.115   9.497   3.032
 8904WAT     H226955   2.192   9.571   2.909
 8905WAT      O26956   3.723   9.643   9.306
 8905WAT     H126957   3.776   9.722   9.337
 8905WAT     H226958   3.751   9.561   9.356
 8906WAT      O26959   2.262   5.717   4.960
 8906WAT     H126960   2.200   5.794   4.952
 8906WAT     H226961   2.222   5.647   5.020
 8907WAT      O26962   3.570   1.112   6.990
 8907WAT     H126963   3.589   1.072   6.900
 8907WAT     H226964   3.569   1.212   6.983
 8908WAT      O26965   3.780   3.396   2.272
 8908WAT     H126966   3.694   3.347   2.286
 8908WAT     H226967   3.826   3.407   2.360
 8909WAT      O26968   5.089   8.025   3.822
 8909WAT     H126969   5.005   8.075   3.838
 8909WAT     H226970   5.070   7.946   3.763
 8910WAT      O26971   4.948   4.553   7.226
 8910WAT     H126972   4.904   4.465   7.243
 8910WAT     H226973   4.919   4.619   7.296
 8911WAT      O26974   3.846   1.929   1.710
 8911WAT     H126975   3.852   1.956   1.806
 8911WAT     H226976   3.752   1.902   1.689
 8912WAT      O26977   5.208   8.996   2.445
 8912WAT     H126978   5.246   8.946   2.367
 8912WAT     H226979   5.114   9.022   2.426
 8913WAT      O26980   0.076   4.103   1.650
 8913WAT     H126981   0.133   4.065   1.722
 8913WAT     H226982   0.004   4.037   1.626
 8914WAT      O26983   0.690   4.565   1.791
 8914WAT     H126984   0.739   4.498   1.847
 8914WAT     H226985   0.749   4.643   1.772
 8915WAT      O26986   2.347   0.116   6.551
 8915WAT     H126987   2.255   0.142   6.582
 8915WAT     H226988   2.357   0.017   6.557
 8916WAT      O26989   6.058   3.167   1.724
 8916WAT     H126990   6.011   3.191   1.809
 8916WAT     H226991   6.157   3.171   1.739
 8917WAT      O26992   7.364   5.245   5.165
 8917WAT     H126993   7.337   5.304   5.241
 8917WAT     H226994   7.307   5.162   5.165
 8918WAT      O26995   1.397   6.164   3.726
 8918WAT     H126996   1.319   6.141   3.668
 8918WAT     H226997   1.399   6.262   3.743
 8919WAT      O26998   1.061   8.872   7.418
 8919WAT     H126999   1.101   8.935   7.485
 8919WAT     H227000   1.040   8.921   7.334
 8920WAT      O27001   9.721   7.406   9.625
 8920WAT     H127002   9.655   7.445   9.688
 8920WAT     H227003   9.726   7.462   9.542
 8921WAT      O27004   8.849   3.977   1.901
 8921WAT     H127005   8.915   3.977   1.976
 8921WAT     H227006   8.862   3.896   1.844
 8922WAT      O27007   7.673   8.283   0.812
 8922WAT     H127008   7.663   8.187   0.788
 8922WAT     H227009   7.733   8.291   0.892
 8923WAT      O27010   8.676   9.149   1.097
 8923WAT     H127011   8.735   9.088   1.044
 8923WAT     H227012   8.726   9.234   1.118
 8924WAT      O27013   0.402   0.230   1.914
 8924WAT     H127014   0.486   0.271   1.879
 8924WAT     H227015   0.397   0.242   2.013
 8925WAT      O27016   3.413   8.130   3.202
 8925WAT     H127017   3.461   8.085   3.127
 8925WAT     H227018   3.318   8.102   3.203
 8926WAT      O27019   2.175   7.747   1.074
 8926WAT     H127020   2.236   7.717   1.001
 8926WAT     H227021   2.080   7.726   1.050
 8927WAT      O27022   8.145   9.727   0.300
 8927WAT     H127023   8.143   9.824   0.276
 8927WAT     H227024   8.051   9.692   0.304
 8928WAT      O27025   1.352   1.933   3.466
 8928WAT     H127026   1.416   1.974   3.531
 8928WAT     H227027   1.337   1.837   3.492
 8929WAT      O27028   0.822   6.926   8.323
 8929WAT     H127029   0.771   6.844   8.351
 8929WAT     H227030   0.758   6.993   8.284
 8930WAT      O27031   6.700   1.435   2.074
 8930WAT     H127032   6.670   1.344   2.104
 8930WAT     H227033   6.704   1.496   2.153
 8931WAT      O27034   2.182   1.479   1.217
 8931WAT     H127035   2.084   1.488   1.236
 8931WAT     H227036   2.197   1.406   1.150
 8932WAT      O27037   6.086   8.140   3.418
 8932WAT     H127038   6.093   8.042   3.398
 8932WAT     H227039   6.112   8.157   3.513
 8933WAT      O27040   5.249   9.632   1.055
 8933WAT     H127041   5.295   9.711   1.097
 8933WAT     H227042   5.295   9.608   0.970
 8934WAT      O27043   4.703   1.396   6.715
 8934WAT     H127044   4.752   1.311   6.738
 8934WAT     H227045   4.715   1.416   6.618
 8935WAT      O27046   5.417   6.649   8.126
 8935WAT     H127047   5.394   6.612   8.036
 8935WAT     H227048   5.429   6.574   8.191
 8936WAT      O27049   2.871   6.213   5.335
 8936WAT     H127050   2.903   6.216   5.240
 8936WAT     H227051   2.931   6.269   5.393
 8937WAT      O27052   0.182   7.845   5.498
 8937WAT     H127053   0.207   7.808   5.587
 8937WAT     H227054   0.125   7.926   5.511
 8938WAT      O27055   2.332   8.009   4.948
 8938WAT     H127056   2.289   7.973   5.031
 8938WAT     H227057   2.431   8.009   4.959
 8939WAT      O27058   2.725   5.575   4.388
 8939WAT     H127059   2.723   5.603   4.292
 8939WAT     H227060   2.687   5.647   4.445
 8940WAT      O27061   5.573   1.562   5.042
 8940WAT     H127062   5.495   1.558   5.105
 8940WAT     H227063   5.557   1.502   4.965
 8941WAT      O27064   4.485   7.552   1.864
 8941WAT     H127065   4.510   7.639   1.907
 8941WAT     H227066   4.483   7.563   1.765
 8942WAT      O27067   4.806   4.241   8.652
 8942WAT     H127068   4.830   4.194   8.737
 8942WAT     H227069   4.794   4.174   8.579
 8943WAT      O27070   0.964   3.437   6.371
 8943WAT     H127071   0.889   3.382   6.334
 8943WAT     H227072   0.928   3.506   6.433
 8944WAT      O27073   5.395   7.255   8.854
 8944WAT     H127074   5.409   7.346   8.894
 8944WAT     H227075   5.307   7.219   8.883
 8945WAT      O27076   0.987   6.871   5.241
 8945WAT     H127077   0.962   6.776   5.260
 8945WAT     H227078   1.085   6.883   5.254
 8946WAT      O27079   8.816   7.327   8.490
 8946WAT     H127080   8.901   7.275   8.483
 8946WAT     H227081   8.758   7.287   8.562
 8947WAT      O27082   7.586   3.301   2.591
 8947WAT     H127083   7.648   3.335   2.662
 8947WAT     H227084   7.492   3.327   2.614
 8948WAT      O27085   5.326   9.218   8.376
 8948WAT     H127086   5.321   9.220   8.277
 8948WAT     H227087   5.332   9.123   8.407
 8949WAT      O27088   8.756   7.662   1.838
 8949WAT     H127089   8.714   7.574   1.817
 8949WAT     H227090   8.825   7.650   1.910
 8950WAT      O27091   7.501   0.424   5.694
 8950WAT     H127092   7.409   0.428   5.733
 8950WAT     H227093   7.496   0.403   5.597
 8951WAT      O27094   4.846   8.135   2.883
 8951WAT     H127095   4.781   8.062   2.863
 8951WAT     H227096   4.884   8.122   2.975
 8952WAT      O27097   6.648   7.812   0.591
 8952WAT     H127098   6.732   7.760   0.603
 8952WAT     H227099   6.667   7.893   0.535
 8953WAT      O27100   0.175   9.016   4.041
 8953WAT     H127101   0.131   9.037   4.129
 8953WAT     H227102   0.140   9.077   3.970
 8954WAT      O27103   3.943   1.173   2.312
 8954WAT     H127104   4.040   1.179   2.335
 8954WAT     H227105   3.933   1.128   2.223
 8955WAT      O27106   9.482   0.161   7.678
 8955WAT     H127107   9.389   0.160   7.715
 8955WAT     H227108   9.503   0.072   7.638
 8956WAT      O27109   2.574   3.479   0.478
 8956WAT     H127110   2.546   3.400   0.533
 8956WAT     H227111   2.673   3.492   0.488
 8957WAT      O27112   2.711   9.042   2.450
 8957WAT     H127113   2.744   9.124   2.497
 8957WAT     H227114   2.781   8.970   2.454
 8958WAT      O27115   5.749   3.721   3.292
 8958WAT     H127116   5.790   3.738   3.381
 8958WAT     H227117   5.819   3.728   3.221
 8959WAT      O27118   6.333   1.945   9.840
 8959WAT     H127119   6.280   1.871   9.799
 8959WAT     H227120   6.308   1.954   9.937
 8960WAT      O27121   6.235   5.278   8.353
 8960WAT     H127122   6.214   5.236   8.442
 8960WAT     H227123   6.315   5.233   8.313
 8961WAT      O27124   1.855   8.799   1.276
 8961WAT     H127125   1.877   8.843   1.363
 8961WAT     H227126   1.846   8.700   1.290
 8962WAT      O27127   2.525   9.334   2.461
 8962WAT     H127128   2.535   9.429   2.492
 8962WAT     H227129   2.571   9.274   2.527
 8963WAT      O27130   4.897   6.103   3.850
 8963WAT     H127131   4.946   6.137   3.770
 8963WAT     H227132   4.933   6.146   3.933
 8964WAT      O27133   7.625   1.173   0.470
 8964WAT     H127134   7.651   1.099   0.407
 8964WAT     H227135   7.707   1.222   0.499
 8965WAT      O27136   2.863   8.567   1.498
 8965WAT     H127137   2.858   8.491   1.433
 8965WAT     H227138   2.902   8.647   1.453
 8966WAT      O27139   7.917   6.837   7.138
 8966WAT     H127140   7.862   6.908   7.094
 8966WAT     H227141   7.858   6.765   7.173
 8967WAT      O27142   5.995   2.847   4.054
 8967WAT     H127143   6.081   2.875   4.096
 8967WAT     H227144   5.990   2.747   4.051
 8968WAT      O27145   1.027   1.735   2.406
 8968WAT     H127146   0.960   1.708   2.338
 8968WAT     H227147   1.051   1.831   2.392
 8969WAT      O27148   5.064   1.267   5.079
 8969WAT     H127149   5.090   1.358   5.046
 8969WAT     H227150   4.998   1.227   5.016
 8970WAT      O27151   6.159   4.264   1.538
 8970WAT     H127152   6.084   4.311   1.585
 8970WAT     H227153   6.223   4.332   1.502
 8971WAT      O27154   6.038   0.232   3.465
 8971WAT     H127155   5.970   0.175   3.510
 8971WAT     H227156   5.993   0.310   3.422
 8972WAT      O27157   6.328   2.319   7.705
 8972WAT     H127158   6.397   2.315   7.777
 8972WAT     H227159   6.359   2.381   7.633
 8973WAT      O27160   2.832   6.579   1.357
 8973WAT     H127161   2.818   6.529   1.443
 8973WAT     H227162   2.779   6.536   1.285
 8974WAT      O27163   0.592   8.817   7.907
 8974WAT     H127164   0.538   8.876   7.968
 8974WAT     H227165   0.532   8.779   7.836
 8975WAT      O27166   7.334   5.627   9.590
 8975WAT     H127167   7.323   5.617   9.689
 8975WAT     H227168   7.415   5.683   9.571
 8976WAT      O27169   3.813   3.078   7.116
 8976WAT     H127170   3.740   3.114   7.059
 8976WAT     H227171   3.843   3.148   7.181
 8977WAT      O27172   4.983   8.527   7.645
 8977WAT     H127173   4.891   8.564   7.660
 8977WAT     H227174   4.999   8.518   7.547
 8978WAT      O27175   0.656   5.658   9.517
 8978WAT     H127176   0.576   5.716   9.500
 8978WAT     H227177   0.725   5.674   9.447
 8979WAT      O27178   6.162   8.488   1.938
 8979WAT     H127179   6.251   8.496   1.983
 8979WAT     H227180   6.124   8.397   1.955
 8980WAT      O27181   6.563   9.203   4.738
 8980WAT     H127182   6.483   9.222   4.795
 8980WAT     H227183   6.586   9.106   4.744
 8981WAT      O27184   6.962   4.348   9.867
 8981WAT     H127185   6.963   4.438   9.823
 8981WAT     H227186   7.009   4.282   9.809
 8982WAT      O27187   8.703   8.309   4.852
 8982WAT     H127188   8.753   8.226   4.826
 8982WAT     H227189   8.686   8.364   4.771
 8983WAT      O27190   0.079   2.941   8.683
 8983WAT     H127191   0.147   2.957   8.611
 8983WAT     H227192   0.122   2.891   8.758
 8984WAT      O27193   6.099   1.067   1.081
 8984WAT     H127194   6.099   1.023   1.171
 8984WAT     H227195   6.027   1.027   1.024
 8985WAT      O27196   0.824   3.173   7.376
 8985WAT     H127197   0.840   3.209   7.283
 8985WAT     H227198   0.825   3.073   7.374
 8986WAT      O27199   6.890   9.059   4.426
 8986WAT     H127200   6.866   9.134   4.487
 8986WAT     H227201   6.812   9.040   4.365
 8987WAT      O27202   3.049   4.303   7.412
 8987WAT     H127203   2.964   4.256   7.435
 8987WAT     H227204   3.082   4.352   7.493
 8988WAT      O27205   2.236   8.529   8.578
 8988WAT     H127206   2.147   8.551   8.618
 8988WAT     H227207   2.291   8.612   8.572
 8989WAT      O27208   9.816   8.523   1.914
 8989WAT     H127209   9.861   8.482   1.993
 8989WAT     H227210   9.730   8.565   1.943
 8990WAT      O27211   8.713   0.871   4.881
 8990WAT     H127212   8.736   0.871   4.978
 8990WAT     H227213   8.762   0.946   4.835
 8991WAT      O27214   0.700   0.720   5.176
 8991WAT     H127215   0.636   0.709   5.252
 8991WAT     H227216   0.650   0.717   5.089
 8992WAT      O27217   4.813   1.946   4.081
 8992WAT     H127218   4.755   1.931   4.161
 8992WAT     H227219   4.893   1.886   4.086
 8993WAT      O27220   3.216   6.006   2.878
 8993WAT     H127221   3.151   5.988   2.951
 8993WAT     H227222   3.241   6.103   2.878
 8994WAT      O27223   8.339   7.141   0.286
 8994WAT     H127224   8.402   7.082   0.337
 8994WAT     H227225   8.246   7.127   0.319
 8995WAT      O27226   2.919   1.193   6.461
 8995WAT     H127227   2.889   1.266   6.523
 8995WAT     H227228   2.985   1.134   6.507
 8996WAT      O27229   4.603   4.355   0.291
 8996WAT     H127230   4.505   4.364   0.274
 8996WAT     H227231   4.629   4.258   0.291
 8997WAT      O27232   3.873   8.169   9.033
 8997WAT     H127233   3.787   8.156   8.984
 8997WAT     H227234   3.855   8.183   9.131
 8998WAT      O27235   3.455   6.606   8.211
 8998WAT     H127236   3.519   6.679   8.190
 8998WAT     H227237   3.438   6.602   8.309
 8999WAT      O27238   3.486   2.814   3.360
 8999WAT     H127239   3.497   2.901   3.312
 8999WAT     H227240   3.562   2.753   3.336
 9000WAT      O27241   0.633   3.047   4.904
 9000WAT     H127242   0.612   3.064   4.807
 9000WAT     H227243   0.591   2.960   4.931
 9001WAT      O27244   0.502   7.804   4.878
 9001WAT     H127245   0.501   7.737   4.953
 9001WAT     H227246   0.596   7.819   4.848
 9002WAT      O27247   2.393   0.743   8.681
 9002WAT     H127248   2.322   0.720   8.615
 9002WAT     H227249   2.382   0.838   8.710
 9003WAT      O27250   7.623   3.908   1.695
 9003WAT     H127251   7.683   3.828   1.697
 9003WAT     H227252   7.573   3.910   1.608
 9004WAT      O27253   6.721   7.840   7.058
 9004WAT     H127254   6.737   7.773   6.986
 9004WAT     H227255   6.725   7.796   7.147
 9005WAT      O27256   1.178   7.934   0.509
 9005WAT     H127257   1.170   7.836   0.528
 9005WAT     H227258   1.087   7.972   0.494
 9006WAT      O27259   7.848   4.272   9.114
 9006WAT     H127260   7.818   4.255   9.020
 9006WAT     H227261   7.895   4.361   9.118
 9007WAT      O27262   1.120   5.512   0.133
 9007WAT     H127263   1.033   5.555   0.112
 9007WAT     H227264   1.171   5.496   0.048
 9008WAT      O27265   4.151   1.564   6.881
 9008WAT     H127266   4.150   1.497   6.955
 9008WAT     H227267   4.240   1.563   6.836
 9009WAT      O27268   8.720   6.069   1.373
 9009WAT     H127269   8.785   6.116   1.432
 9009WAT     H227270   8.736   5.971   1.377
 9010WAT      O27271   0.072   6.592   3.028
 9010WAT     H127272   0.140   6.534   2.983
 9010WAT     H227273  -0.019   6.572   2.991
 9011WAT      O27274   0.738   0.845   0.763
 9011WAT     H127275   0.688   0.870   0.846
 9011WAT     H227276   0.764   0.749   0.767
 9012WAT      O27277   2.977   2.204   8.365
 9012WAT     H127278   3.064   2.250   8.347
 9012WAT     H227279   2.917   2.265   8.415
 9013WAT      O27280   2.082   7.599   5.079
 9013WAT     H127281   2.033   7.649   5.151
 9013WAT     H227282   2.169   7.645   5.061
 9014WAT      O27283   1.283   0.137   3.042
 9014WAT     H127284   1.303   0.226   3.002
 9014WAT     H227285   1.267   0.147   3.140
 9015WAT      O27286   9.583   1.353   2.092
 9015WAT     H127287   9.606   1.445   2.058
 9015WAT     H227288   9.600   1.349   2.190
 9016WAT      O27289   4.465   8.294   5.475
 9016WAT     H127290   4.457   8.371   5.539
 9016WAT     H227291   4.434   8.210   5.519
 9017WAT      O27292   6.970   6.026   5.555
 9017WAT     H127293   7.004   6.072   5.638
 9017WAT     H227294   6.939   6.095   5.490
 9018WAT      O27295   7.856   5.828   6.033
 9018WAT     H127296   7.942   5.778   6.024
 9018WAT     H227297   7.870   5.923   6.005
 9019WAT      O27298   9.841   7.353   6.963
 9019WAT     H127299   9.845   7.453   6.960
 9019WAT     H227300   9.808   7.319   6.875
 9020WAT      O27301   6.178   6.253   3.079
 9020WAT     H127302   6.126   6.273   2.996
 9020WAT     H227303   6.264   6.303   3.077
 9021WAT      O27304   3.902   3.803   7.644
 9021WAT     H127305   3.941   3.726   7.594
 9021WAT     H227306   3.802   3.803   7.632
 9022WAT      O27307   1.477   7.827   5.427
 9022WAT     H127308   1.496   7.777   5.512
 9022WAT     H227309   1.379   7.828   5.410
 9023WAT      O27310   1.604   1.855   7.005
 9023WAT     H127311   1.557   1.927   6.954
 9023WAT     H227312   1.588   1.868   7.103
 9024WAT      O27313   4.694   8.179   5.331
 9024WAT     H127314   4.616   8.212   5.384
 9024WAT     H227315   4.682   8.205   5.235
 9025WAT      O27316   5.164   1.378   6.567
 9025WAT     H127317   5.078   1.391   6.519
 9025WAT     H227318   5.234   1.344   6.503
 9026WAT      O27319   0.444   7.386   2.804
 9026WAT     H127320   0.443   7.343   2.895
 9026WAT     H227321   0.534   7.372   2.762
 9027WAT      O27322   7.878   3.605   8.595
 9027WAT     H127323   7.880   3.633   8.499
 9027WAT     H227324   7.956   3.644   8.644
 9028WAT      O27325   7.855   2.467   9.581
 9028WAT     H127326   7.756   2.469   9.599
 9028WAT     H227327   7.890   2.561   9.580
 9029WAT      O27328   8.385   2.971   4.561
 9029WAT     H127329   8.450   3.021   4.504
 9029WAT     H227330   8.405   2.873   4.556
 9030WAT      O27331   3.566   4.134   8.061
 9030WAT     H127332   3.618   4.049   8.069
 9030WAT     H227333   3.611   4.195   7.996
 9031WAT      O27334   5.826   4.010   1.070
 9031WAT     H127335   5.762   3.946   1.112
 9031WAT     H227336   5.822   4.000   0.971
 9032WAT      O27337   9.311   6.905   1.353
 9032WAT     H127338   9.371   6.948   1.285
 9032WAT     H227339   9.362   6.888   1.437
 9033WAT      O27340   1.505   5.679   7.229
 9033WAT     H127341   1.431   5.618   7.202
 9033WAT     H227342   1.470   5.772   7.239
 9034WAT      O27343   4.486   8.510   8.759
 9034WAT     H127344   4.500   8.557   8.847
 9034WAT     H227345   4.562   8.531   8.698
 9035WAT      O27346   4.745   3.432   1.970
 9035WAT     H127347   4.727   3.442   2.068
 9035WAT     H227348   4.829   3.380   1.957
 9036WAT      O27349   2.162   9.356   0.458
 9036WAT     H127350   2.222   9.400   0.390
 9036WAT     H227351   2.068   9.387   0.445
 9037WAT      O27352   1.332   8.320   1.150
 9037WAT     H127353   1.363   8.364   1.234
 9037WAT     H227354   1.408   8.317   1.084
 9038WAT      O27355   4.621   8.983   6.407
 9038WAT     H127356   4.666   9.041   6.475
 9038WAT     H227357   4.615   9.033   6.320
 9039WAT      O27358   2.757   8.496   9.277
 9039WAT     H127359   2.737   8.399   9.289
 9039WAT     H227360   2.817   8.508   9.198
 9040WAT      O27361   0.433   3.857   1.276
 9040WAT     H127362   0.367   3.871   1.203
 9040WAT     H227363   0.409   3.915   1.354
 9041WAT      O27364   5.067   7.888   2.361
 9041WAT     H127365   5.047   7.933   2.274
 9041WAT     H227366   5.092   7.793   2.344
 9042WAT      O27367   5.510   0.879   8.309
 9042WAT     H127368   5.540   0.974   8.319
 9042WAT     H227369   5.413   0.873   8.331
 9043WAT      O27370   0.462   0.247   0.184
 9043WAT     H127371   0.493   0.257   0.089
 9043WAT     H227372   0.380   0.191   0.186
 9044WAT      O27373   6.327   8.180   9.607
 9044WAT     H127374   6.284   8.233   9.534
 9044WAT     H227375   6.255   8.143   9.666
 9045WAT      O27376   3.174   6.074   9.032
 9045WAT     H127377   3.088   6.116   9.061
 9045WAT     H227378   3.250   6.120   9.078
 9046WAT      O27379   0.140   9.721   8.322
 9046WAT     H127380   0.108   9.774   8.243
 9046WAT     H227381   0.178   9.634   8.291
 9047WAT      O27382   3.082   7.373   7.470
 9047WAT     H127383   3.082   7.425   7.384
 9047WAT     H227384   3.001   7.398   7.524
 9048WAT      O27385   2.443   0.985   0.979
 9048WAT     H127386   2.533   0.943   0.993
 9048WAT     H227387   2.437   1.069   1.033
 9049WAT      O27388   8.379   0.889   8.376
 9049WAT     H127389   8.433   0.972   8.395
 9049WAT     H227390   8.389   0.864   8.280
 9050WAT      O27391   4.970   8.903   5.236
 9050WAT     H127392   5.025   8.962   5.178
 9050WAT     H227393   4.976   8.934   5.331
 9051WAT      O27394   9.023   9.132   6.806
 9051WAT     H127395   8.952   9.189   6.848
 9051WAT     H227396   9.093   9.190   6.765
 9052WAT      O27397   3.540   4.779   2.845
 9052WAT     H127398   3.555   4.712   2.917
 9052WAT     H227399   3.453   4.826   2.861
 9053WAT      O27400   9.880   2.607   2.702
 9053WAT     H127401   9.954   2.544   2.726
 9053WAT     H227402   9.861   2.602   2.604
 9054WAT      O27403   5.119   0.293   8.347
 9054WAT     H127404   5.111   0.369   8.282
 9054WAT     H227405   5.190   0.315   8.414
 9055WAT      O27406   2.680   3.446   1.618
 9055WAT     H127407   2.776   3.434   1.643
 9055WAT     H227408   2.640   3.356   1.597
 9056WAT      O27409   1.074   9.620   9.573
 9056WAT     H127410   1.099   9.715   9.587
 9056WAT     H227411   1.135   9.579   9.505
 9057WAT      O27412   1.158   3.269   6.972
 9057WAT     H127413   1.125   3.189   6.920
 9057WAT     H227414   1.257   3.262   6.984
 9058WAT      O27415   2.019   6.137   5.644
 9058WAT     H127416   1.925   6.102   5.653
 9058WAT     H227417   2.056   6.108   5.556
 9059WAT      O27418   6.190   5.755   0.701
 9059WAT     H127419   6.127   5.677   0.704
 9059WAT     H227420   6.140   5.838   0.680
 9060WAT      O27421   4.742   0.799   3.189
 9060WAT     H127422   4.711   0.722   3.244
 9060WAT     H227423   4.730   0.884   3.242
 9061WAT      O27424   7.479   5.171   4.285
 9061WAT     H127425   7.547   5.178   4.359
 9061WAT     H227426   7.439   5.080   4.285
 9062WAT      O27427   7.290   7.128   2.414
 9062WAT     H127428   7.376   7.157   2.455
 9062WAT     H227429   7.307   7.081   2.328
 9063WAT      O27430   7.032   8.776   8.664
 9063WAT     H127431   6.963   8.823   8.608
 9063WAT     H227432   6.991   8.696   8.707
 9064WAT      O27433   3.485   1.285   0.303
 9064WAT     H127434   3.531   1.237   0.228
 9064WAT     H227435   3.412   1.227   0.339
 9065WAT      O27436   8.066   3.465   5.856
 9065WAT     H127437   8.022   3.433   5.772
 9065WAT     H227438   8.162   3.435   5.856
 9066WAT      O27439   8.267   4.955   5.168
 9066WAT     H127440   8.359   4.931   5.135
 9066WAT     H227441   8.260   5.054   5.175
 9067WAT      O27442   2.994   0.520   2.492
 9067WAT     H127443   2.948   0.608   2.487
 9067WAT     H227444   3.089   0.534   2.521
 9068WAT      O27445   8.196   8.593   5.635
 9068WAT     H127446   8.206   8.632   5.726
 9068WAT     H227447   8.101   8.605   5.604
 9069WAT      O27448   3.982   2.495   5.803
 9069WAT     H127449   4.053   2.540   5.857
 9069WAT     H227450   3.895   2.543   5.817
 9070WAT      O27451   1.683   2.394   5.680
 9070WAT     H127452   1.667   2.411   5.582
 9070WAT     H227453   1.616   2.445   5.733
 9071WAT      O27454   9.837   1.681   3.689
 9071WAT     H127455   9.817   1.591   3.650
 9071WAT     H227456   9.752   1.728   3.711
 9072WAT      O27457   5.838   3.499   2.040
 9072WAT     H127458   5.791   3.584   2.067
 9072WAT     H227459   5.819   3.428   2.107
 9073WAT      O27460   2.632   9.477   1.535
 9073WAT     H127461   2.713   9.525   1.502
 9073WAT     H227462   2.617   9.499   1.632
 9074WAT      O27463   5.763   4.696   9.828
 9074WAT     H127464   5.787   4.790   9.852
 9074WAT     H227465   5.669   4.693   9.795
 9075WAT      O27466   8.724   0.422   1.888
 9075WAT     H127467   8.820   0.447   1.879
 9075WAT     H227468   8.716   0.322   1.886
 9076WAT      O27469   9.330   5.443   0.995
 9076WAT     H127470   9.328   5.374   1.067
 9076WAT     H227471   9.249   5.501   1.002
 9077WAT      O27472   6.250   0.515   8.743
 9077WAT     H127473   6.174   0.451   8.728
 9077WAT     H227474   6.221   0.607   8.717
 9078WAT      O27475   8.514   8.514   2.922
 9078WAT     H127476   8.447   8.577   2.881
 9078WAT     H227477   8.549   8.554   3.007
 9079WAT      O27478   3.140   5.251   6.237
 9079WAT     H127479   3.099   5.180   6.180
 9079WAT     H227480   3.098   5.339   6.217
 9080WAT      O27481   7.519   2.628   5.890
 9080WAT     H127482   7.586   2.602   5.821
 9080WAT     H227483   7.564   2.683   5.960
 9081WAT      O27484   1.269   4.831   5.849
 9081WAT     H127485   1.247   4.900   5.918
 9081WAT     H227486   1.277   4.741   5.893
 9082WAT      O27487   8.461   4.364   8.481
 9082WAT     H127488   8.489   4.431   8.412
 9082WAT     H227489   8.361   4.354   8.478
 9083WAT      O27490   7.349   5.568   6.267
 9083WAT     H127491   7.420   5.553   6.198
 9083WAT     H227492   7.353   5.496   6.336
 9084WAT      O27493   5.733   9.365   4.985
 9084WAT     H127494   5.638   9.336   4.970
 9084WAT     H227495   5.733   9.447   5.042
 9085WAT      O27496   1.817   1.473   9.660
 9085WAT     H127497   1.757   1.505   9.588
 9085WAT     H227498   1.906   1.519   9.654
 9086WAT      O27499   2.406   7.243   2.710
 9086WAT     H127500   2.486   7.287   2.669
 9086WAT     H227501   2.329   7.249   2.646
 9087WAT      O27502   1.988   2.131   4.663
 9087WAT     H127503   1.892   2.148   4.686
 9087WAT     H227504   2.007   2.033   4.672
 9088WAT      O27505   5.164   1.542   7.233
 9088WAT     H127506   5.167   1.640   7.250
 9088WAT     H227507   5.113   1.496   7.306
 9089WAT      O27508   5.931   2.161   2.877
 9089WAT     H127509   5.889   2.234   2.930
 9089WAT     H227510   5.862   2.118   2.818
 9090WAT      O27511   2.117   2.051   2.237
 9090WAT     H127512   2.092   2.146   2.260
 9090WAT     H227513   2.177   2.015   2.308
 9091WAT      O27514   8.478   3.846   6.582
 9091WAT     H127515   8.381   3.823   6.571
 9091WAT     H227516   8.523   3.842   6.493
 9092WAT      O27517   6.288   8.807   7.512
 9092WAT     H127518   6.301   8.838   7.418
 9092WAT     H227519   6.364   8.748   7.540
 9093WAT      O27520   6.506   4.511   8.664
 9093WAT     H127521   6.480   4.516   8.761
 9093WAT     H227522   6.451   4.577   8.612
 9094WAT      O27523   0.117   7.118   1.445
 9094WAT     H127524   0.113   7.210   1.406
 9094WAT     H227525   0.154   7.055   1.377
 9095WAT      O27526   4.704   9.532   7.902
 9095WAT     H127527   4.776   9.536   7.833
 9095WAT     H227528   4.619   9.498   7.861
 9096WAT      O27529   9.352   4.778   8.236
 9096WAT     H127530   9.335   4.876   8.234
 9096WAT     H227531   9.443   4.759   8.199
 9097WAT      O27532   2.532   7.547   3.659
 9097WAT     H127533   2.546   7.516   3.565
 9097WAT     H227534   2.534   7.468   3.721
 9098WAT      O27535   1.407   6.046   1.406
 9098WAT     H127536   1.423   6.003   1.317
 9098WAT     H227537   1.469   6.124   1.416
 9099WAT      O27538   4.415   8.147   0.681
 9099WAT     H127539   4.415   8.052   0.651
 9099WAT     H227540   4.338   8.195   0.638
 9100WAT      O27541   0.723   7.894   3.969
 9100WAT     H127542   0.819   7.885   3.943
 9100WAT     H227543   0.710   7.977   4.022
 9101WAT      O27544   2.195   9.533   9.321
 9101WAT     H127545   2.256   9.607   9.348
 9101WAT     H227546   2.108   9.540   9.371
 9102WAT      O27547   0.618   0.857   3.949
 9102WAT     H127548   0.518   0.848   3.944
 9102WAT     H227549   0.656   0.778   3.998
 9103WAT      O27550   2.781   7.628   7.905
 9103WAT     H127551   2.768   7.726   7.893
 9103WAT     H227552   2.693   7.582   7.898
 9104WAT      O27553   1.127   5.838   9.198
 9104WAT     H127554   1.194   5.867   9.129
 9104WAT     H227555   1.045   5.804   9.152
 9105WAT      O27556   9.465   5.132   9.218
 9105WAT     H127557   9.519   5.202   9.172
 9105WAT     H227558   9.400   5.092   9.153
 9106WAT      O27559   2.723   9.701   5.127
 9106WAT     H127560   2.747   9.604   5.116
 9106WAT     H227561   2.806   9.756   5.123
 9107WAT      O27562   1.599   9.543   2.421
 9107WAT     H127563   1.687   9.501   2.444
 9107WAT     H227564   1.601   9.640   2.446
 9108WAT      O27565   7.370   2.312   3.187
 9108WAT     H127566   7.450   2.253   3.188
 9108WAT     H227567   7.344   2.332   3.093
 9109WAT      O27568   3.166   6.846   8.607
 9109WAT     H127569   3.207   6.885   8.689
 9109WAT     H227570   3.075   6.809   8.629
 9110WAT      O27571   4.010   0.493   4.501
 9110WAT     H127572   4.090   0.472   4.556
 9110WAT     H227573   3.943   0.543   4.557
 9111WAT      O27574   8.684   6.277   3.292
 9111WAT     H127575   8.743   6.212   3.244
 9111WAT     H227576   8.633   6.229   3.364
 9112WAT      O27577   8.378   0.029   5.020
 9112WAT     H127578   8.367   0.013   5.118
 9112WAT     H227579   8.414   0.121   5.005
 9113WAT      O27580   4.542   9.019   5.140
 9113WAT     H127581   4.602   8.985   5.213
 9113WAT     H227582   4.447   9.019   5.172
 9114WAT      O27583   5.945   8.206   7.768
 9114WAT     H127584   5.926   8.148   7.689
 9114WAT     H227585   5.866   8.266   7.785
 9115WAT      O27586   6.863   3.022   4.701
 9115WAT     H127587   6.920   3.014   4.619
 9115WAT     H227588   6.846   2.931   4.739
 9116WAT      O27589   1.519   0.969   3.495
 9116WAT     H127590   1.465   1.049   3.519
 9116WAT     H227591   1.614   0.983   3.521
 9117WAT      O27592   8.277   3.737   3.894
 9117WAT     H127593   8.287   3.694   3.983
 9117WAT     H227594   8.309   3.831   3.898
 9118WAT      O27595   7.748   3.151   7.010
 9118WAT     H127596   7.728   3.074   6.950
 9118WAT     H227597   7.824   3.204   6.973
 9119WAT      O27598   5.845   5.290   3.495
 9119WAT     H127599   5.855   5.340   3.581
 9119WAT     H227600   5.787   5.210   3.510
 9120WAT      O27601   6.931   7.617   3.843
 9120WAT     H127602   6.931   7.678   3.763
 9120WAT     H227603   6.861   7.547   3.831
 9121WAT      O27604   9.303   4.066   3.287
 9121WAT     H127605   9.308   4.014   3.201
 9121WAT     H227606   9.236   4.024   3.348
 9122WAT      O27607   6.176   3.098   5.288
 9122WAT     H127608   6.123   3.061   5.364
 9122WAT     H227609   6.174   3.198   5.292
 9123WAT      O27610   2.417   5.528   9.751
 9123WAT     H127611   2.369   5.554   9.835
 9123WAT     H227612   2.369   5.566   9.672
 9124WAT      O27613   4.423   2.431   6.132
 9124WAT     H127614   4.463   2.473   6.213
 9124WAT     H227615   4.488   2.436   6.056
 9125WAT      O27616   5.669   7.029   4.330
 9125WAT     H127617   5.684   7.081   4.246
 9125WAT     H227618   5.602   7.077   4.388
 9126WAT      O27619   4.143   2.806   8.999
 9126WAT     H127620   4.239   2.783   9.012
 9126WAT     H227621   4.133   2.863   8.917
 9127WAT      O27622   3.509   1.512   7.858
 9127WAT     H127623   3.500   1.587   7.794
 9127WAT     H227624   3.594   1.522   7.910
 9128WAT      O27625   8.528   1.981   8.160
 9128WAT     H127626   8.507   2.077   8.143
 9128WAT     H227627   8.594   1.949   8.091
 9129WAT      O27628   8.987   6.714   8.884
 9129WAT     H127629   9.013   6.643   8.950
 9129WAT     H227630   9.049   6.792   8.893
 9130WAT      O27631   4.746   3.006   3.614
 9130WAT     H127632   4.646   3.009   3.617
 9130WAT     H227633   4.781   2.989   3.706
 9131WAT      O27634   7.821   9.510   8.137
 9131WAT     H127635   7.891   9.580   8.128
 9131WAT     H227636   7.827   9.467   8.227
 9132WAT      O27637   9.416   5.638   9.468
 9132WAT     H127638   9.373   5.588   9.393
 9132WAT     H227639   9.347   5.662   9.537
 9133WAT      O27640   4.674   7.870   2.361
 9133WAT     H127641   4.689   7.958   2.316
 9133WAT     H227642   4.650   7.886   2.457
 9134WAT      O27643   8.609   8.825   7.348
 9134WAT     H127644   8.599   8.729   7.371
 9134WAT     H227645   8.522   8.860   7.312
 9135WAT      O27646   0.510   4.440   6.125
 9135WAT     H127647   0.411   4.442   6.108
 9135WAT     H227648   0.532   4.362   6.184
 9136WAT      O27649   1.184   3.322   4.758
 9136WAT     H127650   1.217   3.262   4.686
 9136WAT     H227651   1.242   3.313   4.839
 9137WAT      O27652   8.473   8.703   4.947
 9137WAT     H127653   8.494   8.605   4.950
 9137WAT     H227654   8.552   8.753   4.910
 9138WAT      O27655   4.135   8.550   8.425
 9138WAT     H127656   4.145   8.532   8.523
 9138WAT     H227657   4.211   8.508   8.376
 9139WAT      O27658   2.330   9.054   7.890
 9139WAT     H127659   2.423   9.089   7.876
 9139WAT     H227660   2.269   9.130   7.914
 9140WAT      O27661   7.695   2.401   4.671
 9140WAT     H127662   7.605   2.438   4.694
 9140WAT     H227663   7.743   2.466   4.612
 9141WAT      O27664   5.283   8.932   6.777
 9141WAT     H127665   5.303   8.911   6.681
 9141WAT     H227666   5.276   9.031   6.789
 9142WAT      O27667   2.392   0.798   1.221
 9142WAT     H127668   2.381   0.857   1.141
 9142WAT     H227669   2.395   0.702   1.191
 9143WAT      O27670   9.844   2.009   6.174
 9143WAT     H127671   9.845   1.943   6.248
 9143WAT     H227672   9.785   2.086   6.198
 9144WAT      O27673   9.610   5.147   1.193
 9144WAT     H127674   9.627   5.060   1.238
 9144WAT     H227675   9.690   5.206   1.202
 9145WAT      O27676   1.136   5.035   7.273
 9145WAT     H127677   1.068   5.037   7.346
 9145WAT     H227678   1.148   4.941   7.240
 9146WAT      O27679   6.606   3.721   6.162
 9146WAT     H127680   6.631   3.724   6.259
 9146WAT     H227681   6.556   3.636   6.143
 9147WAT      O27682   1.590   6.731   2.684
 9147WAT     H127683   1.545   6.755   2.770
 9147WAT     H227684   1.674   6.679   2.704
 9148WAT      O27685   1.445   3.101   0.549
 9148WAT     H127686   1.446   3.179   0.487
 9148WAT     H227687   1.461   3.017   0.497
 9149WAT      O27688   6.260   6.029   2.748
 9149WAT     H127689   6.208   5.993   2.826
 9149WAT     H227690   6.281   5.954   2.685
 9150WAT      O27691   3.160   3.692   0.959
 9150WAT     H127692   3.092   3.697   0.885
 9150WAT     H227693   3.233   3.630   0.933
 9151WAT      O27694   6.461   5.994   2.010
 9151WAT     H127695   6.536   5.942   1.971
 9151WAT     H227696   6.454   5.976   2.108
 9152WAT      O27697   8.802   7.577   8.589
 9152WAT     H127698   8.810   7.483   8.556
 9152WAT     H227699   8.849   7.586   8.677
 9153WAT      O27700   2.453   5.318   7.126
 9153WAT     H127701   2.532   5.258   7.138
 9153WAT     H227702   2.440   5.337   7.029
 9154WAT      O27703   9.531   8.610   5.004
 9154WAT     H127704   9.600   8.560   4.952
 9154WAT     H227705   9.553   8.708   5.003
 9155WAT      O27706   7.761   2.542   5.272
 9155WAT     H127707   7.793   2.448   5.260
 9155WAT     H227708   7.814   2.602   5.212
 9156WAT      O27709   9.169   7.924   2.814
 9156WAT     H127710   9.237   7.945   2.884
 9156WAT     H227711   9.078   7.945   2.849
 9157WAT      O27712   1.580   3.460   2.209
 9157WAT     H127713   1.510   3.451   2.137
 9157WAT     H227714   1.663   3.413   2.180
 9158WAT      O27715   2.199   6.578   9.594
 9158WAT     H127716   2.151   6.662   9.568
 9158WAT     H227717   2.271   6.559   9.527
 9159WAT      O27718   3.469   0.457   7.321
 9159WAT     H127719   3.557   0.480   7.279
 9159WAT     H227720   3.457   0.358   7.321
 9160WAT      O27721   0.469   2.811   1.483
 9160WAT     H127722   0.536   2.782   1.415
 9160WAT     H227723   0.440   2.733   1.538
 9161WAT      O27724   2.659   2.912   5.986
 9161WAT     H127725   2.700   2.868   6.067
 9161WAT     H227726   2.725   2.911   5.911
 9162WAT      O27727   0.013   5.873   9.766
 9162WAT     H127728  -0.054   5.942   9.738
 9162WAT     H227729   0.067   5.909   9.842
 9163WAT      O27730   0.049   1.119   0.309
 9163WAT     H127731  -0.048   1.094   0.309
 9163WAT     H227732   0.101   1.051   0.257
 9164WAT      O27733   3.464   3.257   0.138
 9164WAT     H127734   3.558   3.278   0.109
 9164WAT     H227735   3.448   3.159   0.129
 9165WAT      O27736   8.630   7.941   0.003
 9165WAT     H127737   8.612   7.852  -0.039
 9165WAT     H227738   8.545   7.993   0.010
 9166WAT      O27739   2.196   2.249   4.143
 9166WAT     H127740   2.131   2.293   4.205
 9166WAT     H227741   2.289   2.270   4.171
 9167WAT      O27742   7.047   6.489   2.466
 9167WAT     H127743   7.061   6.582   2.503
 9167WAT     H227744   7.090   6.423   2.527
 9168WAT      O27745   5.941   5.312   6.547
 9168WAT     H127746   5.909   5.333   6.639
 9168WAT     H227747   6.009   5.239   6.551
 9169WAT      O27748   4.805   4.320   9.514
 9169WAT     H127749   4.775   4.360   9.601
 9169WAT     H227750   4.744   4.350   9.441
 9170WAT      O27751   6.393   8.419   3.596
 9170WAT     H127752   6.438   8.476   3.528
 9170WAT     H227753   6.402   8.322   3.571
 9171WAT      O27754   4.924   5.787   3.902
 9171WAT     H127755   4.950   5.833   3.987
 9171WAT     H227756   4.888   5.854   3.838
 9172WAT      O27757   2.671   5.302   6.451
 9172WAT     H127758   2.604   5.361   6.496
 9172WAT     H227759   2.642   5.285   6.357
 9173WAT      O27760   6.155   6.507   9.746
 9173WAT     H127761   6.183   6.435   9.682
 9173WAT     H227762   6.089   6.471   9.811
 9174WAT      O27763   4.649   0.990   6.935
 9174WAT     H127764   4.590   0.918   6.898
 9174WAT     H227765   4.701   0.954   7.012
 9175WAT      O27766   9.614   8.815   3.829
 9175WAT     H127767   9.696   8.841   3.880
 9175WAT     H227768   9.623   8.721   3.795
 9176WAT      O27769   1.895   1.800   9.079
 9176WAT     H127770   1.962   1.753   9.135
 9176WAT     H227771   1.813   1.818   9.133
 9177WAT      O27772   6.403   5.098   0.967
 9177WAT     H127773   6.365   5.014   1.006
 9177WAT     H227774   6.363   5.114   0.877
 9178WAT      O27775   3.488   5.022   7.769
 9178WAT     H127776   3.439   4.949   7.817
 9178WAT     H227777   3.448   5.110   7.792
 9179WAT      O27778   1.700   7.839   8.254
 9179WAT     H127779   1.655   7.858   8.167
 9179WAT     H227780   1.747   7.922   8.286
 9180WAT      O27781   8.189   6.231   8.461
 9180WAT     H127782   8.115   6.298   8.469
 9180WAT     H227783   8.167   6.165   8.390
 9181WAT      O27784   5.986   1.906   6.434
 9181WAT     H127785   6.017   1.942   6.346
 9181WAT     H227786   5.946   1.979   6.488
 9182WAT      O27787   0.113   7.368   9.341
 9182WAT     H127788   0.062   7.375   9.255
 9182WAT     H227789   0.077   7.432   9.408
 9183WAT      O27790   0.811   2.871   6.918
 9183WAT     H127791   0.860   2.954   6.892
 9183WAT     H227792   0.878   2.802   6.948
 9184WAT      O27793   9.184   9.407   8.075
 9184WAT     H127794   9.169   9.419   7.977
 9184WAT     H227795   9.097   9.387   8.120
 9185WAT      O27796   3.913   6.292   7.140
 9185WAT     H127797   3.962   6.218   7.186
 9185WAT     H227798   3.935   6.292   7.042
 9186WAT      O27799   2.440   7.625   1.428
 9186WAT     H127800   2.450   7.538   1.476
 9186WAT     H227801   2.523   7.643   1.375
 9187WAT      O27802   3.956   5.731   9.223
 9187WAT     H127803   4.019   5.761   9.151
 9187WAT     H227804   3.973   5.635   9.245
 9188WAT      O27805   4.777   7.251   3.539
 9188WAT     H127806   4.720   7.224   3.617
 9188WAT     H227807   4.742   7.336   3.501
 9189WAT      O27808   7.351   6.138   8.728
 9189WAT     H127809   7.287   6.207   8.695
 9189WAT     H227810   7.388   6.087   8.651
 9190WAT      O27811   6.070   7.879   8.491
 9190WAT     H127812   6.129   7.804   8.521
 9190WAT     H227813   5.977   7.845   8.479
 9191WAT      O27814   9.493   3.517   1.990
 9191WAT     H127815   9.430   3.442   2.008
 9191WAT     H227816   9.448   3.604   2.008
 9192WAT      O27817   3.299   4.334   1.255
 9192WAT     H127818   3.386   4.310   1.299
 9192WAT     H227819   3.262   4.254   1.208
 9193WAT      O27820   6.783   6.516   7.177
 9193WAT     H127821   6.866   6.507   7.233
 9193WAT     H227822   6.802   6.481   7.085
 9194WAT      O27823   3.433   3.613   6.903
 9194WAT     H127824   3.355   3.674   6.919
 9194WAT     H227825   3.411   3.551   6.828
 9195WAT      O27826   3.829   5.697   0.009
 9195WAT     H127827   3.745   5.743  -0.022
 9195WAT     H227828   3.897   5.700  -0.063
 9196WAT      O27829   9.320   1.068   6.443
 9196WAT     H127830   9.231   1.026   6.427
 9196WAT     H227831   9.386   0.998   6.469
 9197WAT      O27832   1.601   0.484   4.717
 9197WAT     H127833   1.597   0.579   4.748
 9197WAT     H227834   1.687   0.444   4.748
 9198WAT      O27835   6.679   4.002   7.961
 9198WAT     H127836   6.681   4.062   7.881
 9198WAT     H227837   6.772   3.974   7.984
 9199WAT      O27838   3.273   6.213   0.855
 9199WAT     H127839   3.366   6.176   0.861
 9199WAT     H227840   3.221   6.161   0.786
 9200WAT      O27841   4.330   2.990   5.260
 9200WAT     H127842   4.355   2.948   5.347
 9200WAT     H227843   4.245   2.950   5.226
 9201WAT      O27844   2.694   1.576   4.201
 9201WAT     H127845   2.647   1.494   4.234
 9201WAT     H227846   2.767   1.600   4.264
 9202WAT      O27847   9.320   0.926   7.583
 9202WAT     H127848   9.405   0.875   7.576
 9202WAT     H227849   9.335   1.009   7.636
 9203WAT      O27850   5.986   0.628   8.916
 9203WAT     H127851   5.902   0.665   8.875
 9203WAT     H227852   5.966   0.539   8.957
 9204WAT      O27853   4.987   1.423   5.437
 9204WAT     H127854   4.923   1.475   5.494
 9204WAT     H227855   4.995   1.466   5.348
 9205WAT      O27856   6.668   8.489   2.839
 9205WAT     H127857   6.689   8.531   2.927
 9205WAT     H227858   6.656   8.391   2.851
 9206WAT      O27859   9.787   6.599   7.260
 9206WAT     H127860   9.808   6.668   7.329
 9206WAT     H227861   9.704   6.625   7.210
 9207WAT      O27862   8.867   8.228   5.983
 9207WAT     H127863   8.836   8.305   6.039
 9207WAT     H227864   8.946   8.185   6.026
 9208WAT      O27865   7.637   0.969   3.219
 9208WAT     H127866   7.660   0.965   3.316
 9208WAT     H227867   7.612   0.878   3.187
 9209WAT      O27868   4.882   4.305   3.009
 9209WAT     H127869   4.817   4.381   2.999
 9209WAT     H227870   4.831   4.220   3.024
 9210WAT      O27871   9.466   3.669   4.333
 9210WAT     H127872   9.480   3.574   4.306
 9210WAT     H227873   9.542   3.724   4.299
 9211WAT      O27874   7.069   0.872   3.727
 9211WAT     H127875   7.119   0.885   3.641
 9211WAT     H227876   7.017   0.787   3.724
 9212WAT      O27877   5.997   4.933   5.924
 9212WAT     H127878   5.999   5.026   5.960
 9212WAT     H227879   5.903   4.900   5.924
 9213WAT      O27880   6.773   0.043   1.067
 9213WAT     H127881   6.696   0.051   1.131
 9213WAT     H227882   6.754   0.099   0.986
 9214WAT      O27883   6.833   4.486   3.934
 9214WAT     H127884   6.774   4.558   3.971
 9214WAT     H227885   6.903   4.462   4.002
 9215WAT      O27886   2.452   5.653   6.254
 9215WAT     H127887   2.395   5.571   6.263
 9215WAT     H227888   2.545   5.633   6.285
 9216WAT      O27889   3.639   5.038   3.149
 9216WAT     H127890   3.663   5.118   3.205
 9216WAT     H227891   3.670   5.052   3.055
 9217WAT      O27892   5.120   0.284   2.961
 9217WAT     H127893   5.120   0.200   3.015
 9217WAT     H227894   5.175   0.270   2.879
 9218WAT      O27895   9.797   0.833   0.072
 9218WAT     H127896   9.784   0.844   0.170
 9218WAT     H227897   9.818   0.738   0.051
 9219WAT      O27898   7.518   3.220   4.587
 9219WAT     H127899   7.508   3.171   4.673
 9219WAT     H227900   7.612   3.210   4.554
 9220WAT      O27901   5.361   3.071   4.135
 9220WAT     H127902   5.278   3.034   4.175
 9220WAT     H227903   5.342   3.160   4.094
 9221WAT      O27904   4.597   1.267   7.397
 9221WAT     H127905   4.513   1.322   7.404
 9221WAT     H227906   4.652   1.280   7.479
 9222WAT      O27907   5.904   9.802   1.521
 9222WAT     H127908   5.812   9.778   1.490
 9222WAT     H227909   5.899   9.881   1.583
 9223WAT      O27910   6.251   8.275   2.347
 9223WAT     H127911   6.167   8.305   2.301
 9223WAT     H227912   6.232   8.193   2.401
 9224WAT      O27913   0.913   6.038   7.113
 9224WAT     H127914   0.846   6.051   7.187
 9224WAT     H227915   0.997   5.999   7.151
 9225WAT      O27916   4.464   2.296   9.656
 9225WAT     H127917   4.480   2.302   9.755
 9225WAT     H227918   4.367   2.312   9.638
 9226WAT      O27919   2.375   9.330   3.770
 9226WAT     H127920   2.296   9.338   3.709
 9226WAT     H227921   2.389   9.416   3.819
 9227WAT      O27922   2.136   9.812   0.961
 9227WAT     H127923   2.158   9.752   1.039
 9227WAT     H227924   2.038   9.812   0.945
 9228WAT      O27925   5.685   4.990   0.241
 9228WAT     H127926   5.621   5.067   0.242
 9228WAT     H227927   5.649   4.915   0.296
 9229WAT      O27928   3.015   5.522   0.803
 9229WAT     H127929   2.943   5.545   0.868
 9229WAT     H227930   3.088   5.591   0.808
 9230WAT      O27931   1.289   5.978   8.242
 9230WAT     H127932   1.265   5.918   8.167
 9230WAT     H227933   1.212   6.039   8.263
 9231WAT      O27934   4.217   1.316   7.958
 9231WAT     H127935   4.219   1.255   8.037
 9231WAT     H227936   4.183   1.267   7.879
 9232WAT      O27937   8.749   9.379   1.221
 9232WAT     H127938   8.660   9.424   1.205
 9232WAT     H227939   8.792   9.419   1.302
 9233WAT      O27940   0.520   1.417   1.526
 9233WAT     H127941   0.471   1.406   1.613
 9233WAT     H227942   0.461   1.385   1.451
 9234WAT      O27943   6.538   2.938   8.628
 9234WAT     H127944   6.531   2.844   8.596
 9234WAT     H227945   6.466   2.956   8.696
 9235WAT      O27946   4.172   5.795   0.476
 9235WAT     H127947   4.169   5.833   0.568
 9235WAT     H227948   4.265   5.769   0.452
 9236WAT      O27949   1.194   6.166   9.810
 9236WAT     H127950   1.251   6.248   9.801
 9236WAT     H227951   1.121   6.182   9.876
 9237WAT      O27952   7.657   5.296   3.240
 9237WAT     H127953   7.640   5.392   3.217
 9237WAT     H227954   7.607   5.273   3.324
 9238WAT      O27955   5.832   5.549   2.814
 9238WAT     H127956   5.892   5.626   2.834
 9238WAT     H227957   5.744   5.562   2.862
 9239WAT      O27958   0.506   7.013   7.508
 9239WAT     H127959   0.442   6.958   7.563
 9239WAT     H227960   0.596   7.010   7.550
 9240WAT      O27961   6.226   9.678   0.061
 9240WAT     H127962   6.192   9.764   0.021
 9240WAT     H227963   6.304   9.698   0.120
 9241WAT      O27964   1.174   5.280   6.069
 9241WAT     H127965   1.145   5.373   6.046
 9241WAT     H227966   1.249   5.284   6.135
 9242WAT      O27967   4.625   9.669   0.683
 9242WAT     H127968   4.648   9.572   0.694
 9242WAT     H227969   4.528   9.678   0.665
 9243WAT      O27970   0.793   5.053   7.494
 9243WAT     H127971   0.702   5.017   7.514
 9243WAT     H227972   0.818   5.029   7.400
 9244WAT      O27973   2.699   3.795   8.649
 9244WAT     H127974   2.664   3.816   8.740
 9244WAT     H227975   2.668   3.864   8.583
 9245WAT      O27976   6.189   5.840   4.242
 9245WAT     H127977   6.221   5.824   4.149
 9245WAT     H227978   6.235   5.920   4.280
 9246WAT      O27979   4.603   0.976   4.289
 9246WAT     H127980   4.522   0.971   4.230
 9246WAT     H227981   4.674   0.915   4.253
 9247WAT      O27982   1.930   6.421   4.004
 9247WAT     H127983   1.894   6.512   4.023
 9247WAT     H227984   1.892   6.387   3.918
 9248WAT      O27985   2.281   8.716   3.206
 9248WAT     H127986   2.282   8.617   3.193
 9248WAT     H227987   2.199   8.742   3.257
 9249WAT      O27988   4.684   3.994   1.578
 9249WAT     H127989   4.586   4.008   1.590
 9249WAT     H227990   4.734   4.044   1.649
 9250WAT      O27991   4.535   2.501   6.610
 9250WAT     H127992   4.622   2.463   6.642
 9250WAT     H227993   4.518   2.588   6.655
 9251WAT      O27994   1.986   4.099   6.427
 9251WAT     H127995   2.068   4.077   6.481
 9251WAT     H227996   1.940   4.014   6.401
 9252WAT      O27997   2.918   3.411   4.666
 9252WAT     H127998   3.011   3.432   4.693
 9252WAT     H227999   2.901   3.444   4.573
 9253WAT      O28000   7.445   9.211   6.603
 9253WAT     H128001   7.438   9.279   6.531
 9253WAT     H228002   7.514   9.239   6.670
 9254WAT      O28003   6.681   4.186   4.277
 9254WAT     H128004   6.687   4.159   4.181
 9254WAT     H228005   6.697   4.107   4.335
 9255WAT      O28006   4.274   8.268   7.970
 9255WAT     H128007   4.320   8.180   7.953
 9255WAT     H228008   4.242   8.306   7.884
 9256WAT      O28009   4.483   9.790   3.145
 9256WAT     H128010   4.568   9.749   3.177
 9256WAT     H228011   4.461   9.870   3.202
 9257WAT      O28012   1.589   1.583   0.789
 9257WAT     H128013   1.662   1.643   0.755
 9257WAT     H228014   1.579   1.505   0.727
 9258WAT      O28015   2.882   7.486   3.602
 9258WAT     H128016   2.890   7.520   3.696
 9258WAT     H228017   2.973   7.463   3.567
 9259WAT      O28018   7.198   8.254   5.910
 9259WAT     H128019   7.231   8.308   5.833
 9259WAT     H228020   7.276   8.212   5.956
 9260WAT      O28021   9.265   3.376   0.699
 9260WAT     H128022   9.219   3.461   0.673
 9260WAT     H228023   9.253   3.360   0.797
 9261WAT      O28024   3.635   7.521   0.076
 9261WAT     H128025   3.674   7.430   0.063
 9261WAT     H228026   3.647   7.549   0.171
 9262WAT      O28027   4.581   5.295   7.076
 9262WAT     H128028   4.511   5.289   7.005
 9262WAT     H228029   4.623   5.386   7.073
 9263WAT      O28030   1.339   2.697   8.752
 9263WAT     H128031   1.390   2.729   8.832
 9263WAT     H228032   1.363   2.753   8.672
 9264WAT      O28033   7.113   1.967   3.696
 9264WAT     H128034   7.127   1.967   3.597
 9264WAT     H228035   7.084   2.058   3.725
 9265WAT      O28036   5.467   9.263   3.904
 9265WAT     H128037   5.467   9.317   3.820
 9265WAT     H228038   5.384   9.207   3.908
 9266WAT      O28039   2.203   2.886   1.990
 9266WAT     H128040   2.179   2.980   2.013
 9266WAT     H228041   2.166   2.824   2.059
 9267WAT      O28042   1.428   5.323   8.363
 9267WAT     H128043   1.372   5.317   8.281
 9267WAT     H228044   1.448   5.419   8.384
 9268WAT      O28045   3.497   9.395   1.468
 9268WAT     H128046   3.469   9.488   1.444
 9268WAT     H228047   3.454   9.330   1.406
 9269WAT      O28048   0.777   2.679   1.008
 9269WAT     H128049   0.717   2.673   1.088
 9269WAT     H228050   0.731   2.732   0.936
 9270WAT      O28051   1.870   6.931   1.896
 9270WAT     H128052   1.964   6.937   1.863
 9270WAT     H228053   1.806   6.936   1.819
 9271WAT      O28054   3.028   7.947   6.682
 9271WAT     H128055   3.050   7.880   6.752
 9271WAT     H228056   3.069   7.920   6.595
 9272WAT      O28057   0.849   6.793   7.504
 9272WAT     H128058   0.853   6.893   7.508
 9272WAT     H228059   0.754   6.764   7.489
 9273WAT      O28060   9.388   9.784   4.637
 9273WAT     H128061   9.289   9.775   4.632
 9273WAT     H228062   9.425   9.795   4.544
 9274WAT      O28063   3.352   8.065   5.535
 9274WAT     H128064   3.351   7.978   5.487
 9274WAT     H228065   3.441   8.109   5.523
 9275WAT      O28066   0.222   3.288   3.609
 9275WAT     H128067   0.228   3.388   3.598
 9275WAT     H228068   0.304   3.255   3.656
 9276WAT      O28069   7.941   5.385   0.285
 9276WAT     H128070   7.874   5.357   0.354
 9276WAT     H228071   7.948   5.314   0.215
 9277WAT      O28072   9.397   5.695   3.948
 9277WAT     H128073   9.403   5.793   3.968
 9277WAT     H228074   9.399   5.681   3.849
 9278WAT      O28075   5.225   5.216   3.053
 9278WAT     H128076   5.142   5.212   3.110
 9278WAT     H228077   5.217   5.150   2.978
 9279WAT      O28078   2.288   3.384   2.009
 9279WAT     H128079   2.279   3.450   2.084
 9279WAT     H228080   2.237   3.417   1.930
 9280WAT      O28081   7.813   9.071   2.290
 9280WAT     H128082   7.819   9.063   2.190
 9280WAT     H228083   7.836   8.982   2.331
 9281WAT      O28084   8.382   8.084   1.427
 9281WAT     H128085   8.458   8.019   1.433
 9281WAT     H228086   8.411   8.173   1.461
 9282WAT      O28087   3.829   0.382   2.263
 9282WAT     H128088   3.901   0.364   2.330
 9282WAT     H228089   3.788   0.472   2.281
 9283WAT      O28090   1.584   0.683   1.144
 9283WAT     H128091   1.553   0.657   1.052
 9283WAT     H228092   1.599   0.781   1.148
 9284WAT      O28093   6.205   4.593   8.235
 9284WAT     H128094   6.173   4.511   8.283
 9284WAT     H228095   6.129   4.656   8.222
 9285WAT      O28096   5.560   2.646   3.273
 9285WAT     H128097   5.636   2.582   3.263
 9285WAT     H228098   5.519   2.634   3.364
 9286WAT      O28099   1.776   5.174   7.640
 9286WAT     H128100   1.845   5.230   7.687
 9286WAT     H228101   1.743   5.224   7.559
 9287WAT      O28102   6.067   7.193   9.298
 9287WAT     H128103   6.116   7.149   9.222
 9287WAT     H228104   6.063   7.292   9.282
 9288WAT      O28105   0.323   8.366   2.760
 9288WAT     H128106   0.233   8.329   2.784
 9288WAT     H228107   0.334   8.455   2.804
 9289WAT      O28108   8.104   2.641   1.142
 9289WAT     H128109   8.128   2.737   1.154
 9289WAT     H228110   8.013   2.624   1.179
 9290WAT      O28111   3.419   0.134   8.784
 9290WAT     H128112   3.378   0.052   8.825
 9290WAT     H228113   3.468   0.108   8.700
 9291WAT      O28114   7.541   3.134   2.081
 9291WAT     H128115   7.549   3.199   2.005
 9291WAT     H228116   7.522   3.183   2.166
 9292WAT      O28117   3.750   7.414   5.405
 9292WAT     H128118   3.845   7.384   5.397
 9292WAT     H228119   3.747   7.505   5.447
 9293WAT      O28120   3.057   2.597   1.370
 9293WAT     H128121   3.136   2.653   1.344
 9293WAT     H228122   3.078   2.500   1.354
 9294WAT      O28123   9.437   3.173   2.795
 9294WAT     H128124   9.464   3.082   2.827
 9294WAT     H228125   9.484   3.243   2.848
 9295WAT      O28126   0.561   3.058   5.237
 9295WAT     H128127   0.656   3.058   5.268
 9295WAT     H228128   0.515   2.976   5.270
 9296WAT      O28129   2.531   9.593   7.027
 9296WAT     H128130   2.554   9.628   7.118
 9296WAT     H228131   2.565   9.499   7.018
 9297WAT      O28132   0.844   3.974   3.188
 9297WAT     H128133   0.934   3.988   3.146
 9297WAT     H228134   0.835   4.032   3.269
 9298WAT      O28135   9.080   8.324   1.692
 9298WAT     H128136   9.085   8.273   1.607
 9298WAT     H228137   9.102   8.264   1.769
 9299WAT      O28138   4.396   9.603   2.109
 9299WAT     H128139   4.410   9.526   2.171
 9299WAT     H228140   4.324   9.663   2.147
 9300WAT      O28141   4.736   6.483   1.317
 9300WAT     H128142   4.750   6.392   1.356
 9300WAT     H228143   4.717   6.474   1.219
 9301WAT      O28144   3.521   8.231   9.835
 9301WAT     H128145   3.564   8.321   9.838
 9301WAT     H228146   3.470   8.220   9.750
 9302WAT      O28147   1.055   4.615   4.741
 9302WAT     H128148   1.113   4.553   4.794
 9302WAT     H228149   1.085   4.710   4.756
 9303WAT      O28150   7.131   0.854   1.032
 9303WAT     H128151   7.041   0.852   1.077
 9303WAT     H228152   7.203   0.853   1.102
 9304WAT      O28153   8.365   0.828   3.478
 9304WAT     H128154   8.438   0.761   3.465
 9304WAT     H228155   8.285   0.800   3.425
 9305WAT      O28156   5.014   7.752   6.241
 9305WAT     H128157   4.985   7.792   6.154
 9305WAT     H228158   5.075   7.674   6.223
 9306WAT      O28159   9.877   1.425   6.388
 9306WAT     H128160   9.790   1.399   6.345
 9306WAT     H228161   9.864   1.434   6.487
 9307WAT      O28162   4.356   7.243   4.064
 9307WAT     H128163   4.258   7.241   4.085
 9307WAT     H228164   4.394   7.331   4.093
 9308WAT      O28165   0.844   8.488   3.514
 9308WAT     H128166   0.787   8.456   3.589
 9308WAT     H228167   0.827   8.585   3.498
 9309WAT      O28168   5.938   1.614   4.496
 9309WAT     H128169   5.882   1.665   4.561
 9309WAT     H228170   5.928   1.654   4.405
 9310WAT      O28171   8.437   8.284   4.184
 9310WAT     H128172   8.404   8.358   4.126
 9310WAT     H228173   8.437   8.199   4.132
 9311WAT      O28174   2.369   9.746   9.317
 9311WAT     H128175   2.334   9.840   9.322
 9311WAT     H228176   2.424   9.736   9.234
 9312WAT      O28177   8.440   8.651   3.339
 9312WAT     H128178   8.529   8.654   3.294
 9312WAT     H228179   8.374   8.605   3.280
 9313WAT      O28180   2.294   2.856   5.715
 9313WAT     H128181   2.351   2.938   5.711
 9313WAT     H228182   2.251   2.841   5.626
 9314WAT      O28183   0.003   8.458   3.871
 9314WAT     H128184   0.056   8.495   3.795
 9314WAT     H228185   0.003   8.524   3.946
 9315WAT      O28186   7.194   0.874   8.785
 9315WAT     H128187   7.269   0.808   8.779
 9315WAT     H228188   7.107   0.828   8.764
 9316WAT      O28189   9.000   9.453   6.705
 9316WAT     H128190   8.905   9.425   6.693
 9316WAT     H228191   9.060   9.387   6.661
 9317WAT      O28192   0.653   2.199   1.331
 9317WAT     H128193   0.743   2.232   1.302
 9317WAT     H228194   0.614   2.263   1.397
 9318WAT      O28195   9.000   4.074   8.740
 9318WAT     H128196   9.074   4.132   8.707
 9318WAT     H228197   8.984   4.093   8.837
 9319WAT      O28198   0.289   2.556   4.645
 9319WAT     H128199   0.246   2.631   4.594
 9319WAT     H228200   0.388   2.565   4.640
 9320WAT      O28201   0.813   9.804   3.925
 9320WAT     H128202   0.839   9.846   4.013
 9320WAT     H228203   0.848   9.711   3.921
 9321WAT      O28204   7.592   4.755   2.664
 9321WAT     H128205   7.687   4.725   2.658
 9321WAT     H228206   7.533   4.676   2.683
 9322WAT      O28207   2.628   3.699   5.794
 9322WAT     H128208   2.630   3.607   5.833
 9322WAT     H228209   2.674   3.698   5.706
 9323WAT      O28210   1.297   8.120   5.920
 9323WAT     H128211   1.395   8.128   5.937
 9323WAT     H228212   1.269   8.193   5.857
 9324WAT      O28213   1.341   1.457   7.509
 9324WAT     H128214   1.354   1.475   7.411
 9324WAT     H228215   1.244   1.439   7.526
 9325WAT      O28216   3.750   7.615   7.911
 9325WAT     H128217   3.828   7.558   7.887
 9325WAT     H228218   3.750   7.633   8.009
 9326WAT      O28219   3.483   3.976   3.127
 9326WAT     H128220   3.411   3.990   3.059
 9326WAT     H228221   3.510   3.880   3.128
 9327WAT      O28222   7.248   7.727   0.396
 9327WAT     H128223   7.187   7.701   0.320
 9327WAT     H228224   7.200   7.713   0.483
 9328WAT      O28225   0.474   1.364   8.392
 9328WAT     H128226   0.424   1.318   8.465
 9328WAT     H228227   0.572   1.348   8.403
 9329WAT      O28228   7.852   9.096   9.717
 9329WAT     H128229   7.842   9.115   9.814
 9329WAT     H228230   7.842   9.181   9.665
 9330WAT      O28231   2.702   1.006   9.721
 9330WAT     H128232   2.776   1.068   9.747
 9330WAT     H228233   2.646   0.986   9.802
 9331WAT      O28234   6.722   1.778   3.902
 9331WAT     H128235   6.795   1.847   3.907
 9331WAT     H228236   6.741   1.716   3.826
 9332WAT      O28237   1.247   6.426   6.923
 9332WAT     H128238   1.229   6.353   6.857
 9332WAT     H228239   1.173   6.431   6.990
 9333WAT      O28240   2.140   3.149   2.096
 9333WAT     H128241   2.054   3.177   2.054
 9333WAT     H228242   2.208   3.221   2.083
 9334WAT      O28243   1.266   0.251   9.246
 9334WAT     H128244   1.217   0.221   9.164
 9334WAT     H228245   1.213   0.324   9.291
 9335WAT      O28246   3.060   0.821   1.422
 9335WAT     H128247   3.075   0.920   1.416
 9335WAT     H228248   2.993   0.802   1.494
 9336WAT      O28249   5.889   2.206   5.344
 9336WAT     H128250   5.931   2.196   5.434
 9336WAT     H228251   5.815   2.140   5.334
 9337WAT      O28252   2.100   0.926   5.983
 9337WAT     H128253   2.012   0.971   5.975
 9337WAT     H228254   2.115   0.866   5.905
 9338WAT      O28255   1.800   2.945   9.040
 9338WAT     H128256   1.894   2.926   9.068
 9338WAT     H228257   1.783   3.043   9.048
 9339WAT      O28258   7.331   8.456   5.211
 9339WAT     H128259   7.273   8.537   5.217
 9339WAT     H228260   7.421   8.483   5.177
 9340WAT      O28261   7.047   1.910   1.452
 9340WAT     H128262   6.963   1.903   1.398
 9340WAT     H228263   7.025   1.934   1.546
 9341WAT      O28264   2.969   0.970   6.303
 9341WAT     H128265   2.914   0.893   6.335
 9341WAT     H228266   2.938   1.054   6.347
 9342WAT      O28267   5.614   0.208   7.144
 9342WAT     H128268   5.631   0.296   7.189
 9342WAT     H228269   5.559   0.150   7.204
 9343WAT      O28270   4.336   4.171   7.278
 9343WAT     H128271   4.382   4.086   7.254
 9343WAT     H228272   4.398   4.248   7.262
 9344WAT      O28273   0.835   6.257   9.770
 9344WAT     H128274   0.877   6.237   9.859
 9344WAT     H228275   0.906   6.255   9.699
 9345WAT      O28276   3.278   7.014   9.611
 9345WAT     H128277   3.377   7.005   9.619
 9345WAT     H228278   3.246   7.087   9.671
 9346WAT      O28279   7.191   2.251   7.694
 9346WAT     H128280   7.185   2.151   7.692
 9346WAT     H228281   7.160   2.285   7.782
 9347WAT      O28282   8.842   5.650   6.360
 9347WAT     H128283   8.838   5.674   6.264
 9347WAT     H228284   8.909   5.707   6.407
 9348WAT      O28285   7.310   0.352   9.125
 9348WAT     H128286   7.275   0.412   9.053
 9348WAT     H228287   7.240   0.285   9.150
 9349WAT      O28288   9.376   5.342   6.069
 9349WAT     H128289   9.437   5.374   6.141
 9349WAT     H228290   9.422   5.271   6.016
 9350WAT      O28291   2.777   5.260   5.574
 9350WAT     H128292   2.790   5.192   5.503
 9350WAT     H228293   2.846   5.331   5.566
 9351WAT      O28294   6.262   5.419   7.174
 9351WAT     H128295   6.179   5.475   7.178
 9351WAT     H228296   6.282   5.384   7.266
 9352WAT      O28297   0.889   4.317   3.232
 9352WAT     H128298   0.851   4.265   3.309
 9352WAT     H228299   0.981   4.349   3.257
 9353WAT      O28300   1.585   0.297   2.198
 9353WAT     H128301   1.652   0.315   2.270
 9353WAT     H228302   1.572   0.380   2.144
 9354WAT      O28303   3.552   1.512   1.804
 9354WAT     H128304   3.545   1.425   1.755
 9354WAT     H228305   3.637   1.559   1.777
 9355WAT      O28306   3.071   8.109   1.755
 9355WAT     H128307   3.102   8.186   1.699
 9355WAT     H228308   2.975   8.090   1.733
 9356WAT      O28309   4.597   1.836   8.109
 9356WAT     H128310   4.646   1.804   8.028
 9356WAT     H228311   4.660   1.840   8.186
 9357WAT      O28312   2.520   9.731   9.625
 9357WAT     H128313   2.513   9.634   9.650
 9357WAT     H228314   2.439   9.759   9.575
 9358WAT      O28315   4.912   2.854   9.313
 9358WAT     H128316   4.962   2.785   9.262
 9358WAT     H228317   4.939   2.945   9.281
 9359WAT      O28318   0.284   9.201   0.297
 9359WAT     H128319   0.370   9.154   0.319
 9359WAT     H228320   0.224   9.199   0.377
 9360WAT      O28321   6.823   8.603   4.427
 9360WAT     H128322   6.872   8.622   4.511
 9360WAT     H228323   6.856   8.664   4.354
 9361WAT      O28324   0.617   7.922   5.294
 9361WAT     H128325   0.534   7.872   5.268
 9361WAT     H228326   0.593   8.015   5.320
 9362WAT      O28327   2.564   4.015   3.274
 9362WAT     H128328   2.660   3.990   3.280
 9362WAT     H228329   2.552   4.109   3.309
 9363WAT      O28330   9.228   3.658   7.390
 9363WAT     H128331   9.231   3.576   7.448
 9363WAT     H228332   9.218   3.739   7.448
 9364WAT      O28333   2.341   0.610   2.214
 9364WAT     H128334   2.339   0.535   2.280
 9364WAT     H228335   2.248   0.641   2.197
 9365WAT      O28336   1.964   4.542   5.103
 9365WAT     H128337   1.944   4.619   5.163
 9365WAT     H228338   1.926   4.458   5.143
 9366WAT      O28339   3.234   2.332   7.192
 9366WAT     H128340   3.333   2.321   7.180
 9366WAT     H228341   3.215   2.357   7.287
 9367WAT      O28342   3.152   1.653   9.185
 9367WAT     H128343   3.202   1.625   9.267
 9367WAT     H228344   3.095   1.733   9.206
 9368WAT      O28345   5.103   8.974   2.724
 9368WAT     H128346   5.170   9.039   2.759
 9368WAT     H228347   5.112   8.968   2.624
 9369WAT      O28348   8.196   0.287   5.784
 9369WAT     H128349   8.187   0.377   5.741
 9369WAT     H228350   8.287   0.251   5.767
 9370WAT      O28351   5.708   0.853   0.012
 9370WAT     H128352   5.628   0.892   0.057
 9370WAT     H228353   5.683   0.766  -0.031
 9371WAT      O28354   9.252   6.795   5.014
 9371WAT     H128355   9.244   6.760   5.107
 9371WAT     H228356   9.272   6.893   5.017
 9372WAT      O28357   8.193   2.445   1.469
 9372WAT     H128358   8.261   2.391   1.519
 9372WAT     H228359   8.220   2.541   1.469
 9373WAT      O28360   2.675   1.211   0.779
 9373WAT     H128361   2.643   1.179   0.690
 9373WAT     H228362   2.602   1.262   0.825
 9374WAT      O28363   5.653   3.055   1.085
 9374WAT     H128364   5.734   3.038   1.141
 9374WAT     H228365   5.681   3.097   0.998
 9375WAT      O28366   3.660   9.176   9.888
 9375WAT     H128367   3.611   9.158   9.973
 9375WAT     H228368   3.735   9.112   9.879
 9376WAT      O28369   2.013   3.697   2.724
 9376WAT     H128370   2.107   3.672   2.744
 9376WAT     H228371   1.964   3.715   2.809
 9377WAT      O28372   1.082   1.975   5.234
 9377WAT     H128373   1.074   1.908   5.160
 9377WAT     H228374   1.019   2.051   5.217
 9378WAT      O28375   5.143   2.447   4.940
 9378WAT     H128376   5.143   2.428   4.842
 9378WAT     H228377   5.204   2.524   4.960
 9379WAT      O28378   1.853   5.914   0.601
 9379WAT     H128379   1.758   5.896   0.627
 9379WAT     H228380   1.857   5.996   0.543
 9380WAT      O28381   1.075   6.658   5.499
 9380WAT     H128382   1.165   6.619   5.477
 9380WAT     H228383   1.085   6.725   5.572
 9381WAT      O28384   5.558   7.091   7.640
 9381WAT     H128385   5.467   7.056   7.661
 9381WAT     H228386   5.627   7.031   7.681
 9382WAT      O28387   6.349   8.388   7.571
 9382WAT     H128388   6.297   8.380   7.656
 9382WAT     H228389   6.379   8.483   7.560
 9383WAT      O28390   6.482   9.472   7.800
 9383WAT     H128391   6.437   9.452   7.713
 9383WAT     H228392   6.577   9.498   7.783
 9384WAT      O28393   0.330   7.182   5.377
 9384WAT     H128394   0.380   7.124   5.441
 9384WAT     H228395   0.245   7.214   5.420
 9385WAT      O28396   7.460   6.917   9.884
 9385WAT     H128397   7.559   6.910   9.898
 9385WAT     H228398   7.416   6.945   9.969
 9386WAT      O28399   0.712   6.340   3.660
 9386WAT     H128400   0.742   6.417   3.604
 9386WAT     H228401   0.704   6.369   3.755
 9387WAT      O28402   6.514   1.756   9.117
 9387WAT     H128403   6.569   1.785   9.039
 9387WAT     H228404   6.567   1.769   9.201
 9388WAT      O28405   2.911   2.210   3.974
 9388WAT     H128406   2.995   2.256   4.005
 9388WAT     H228407   2.892   2.132   4.034
 9389WAT      O28408   5.288   0.305   8.601
 9389WAT     H128409   5.269   0.328   8.696
 9389WAT     H228410   5.387   0.305   8.585
 9390WAT      O28411   9.775   6.087   0.394
 9390WAT     H128412   9.746   6.087   0.298
 9390WAT     H228413   9.805   6.179   0.419
 9391WAT      O28414   3.652   1.286   1.002
 9391WAT     H128415   3.687   1.224   0.932
 9391WAT     H228416   3.628   1.374   0.960
 9392WAT      O28417   1.223   1.755   7.559
 9392WAT     H128418   1.175   1.686   7.505
 9392WAT     H228419   1.193   1.748   7.655
 9393WAT      O28420   2.622   7.126   6.414
 9393WAT     H128421   2.670   7.170   6.490
 9393WAT     H228422   2.661   7.157   6.327
 9394WAT      O28423   1.562   8.962   9.788
 9394WAT     H128424   1.570   8.929   9.882
 9394WAT     H228425   1.527   9.055   9.787
 9395WAT      O28426   9.700   8.900   9.719
 9395WAT     H128427   9.793   8.937   9.711
 9395WAT     H228428   9.702   8.802   9.699
 9396WAT      O28429   7.782   9.369   2.118
 9396WAT     H128430   7.780   9.304   2.194
 9396WAT     H228431   7.742   9.456   2.148
 9397WAT      O28432   0.075   3.884   2.000
 9397WAT     H128433   0.119   3.796   2.021
 9397WAT     H228434   0.124   3.958   2.046
 9398WAT      O28435   1.068   6.328   8.885
 9398WAT     H128436   1.165   6.345   8.901
 9398WAT     H228437   1.035   6.261   8.951
 9399WAT      O28438   5.420   7.505   6.463
 9399WAT     H128439   5.382   7.450   6.537
 9399WAT     H228440   5.491   7.566   6.500
 9400WAT      O28441   9.683   0.983   2.680
 9400WAT     H128442   9.696   1.082   2.691
 9400WAT     H228443   9.677   0.940   2.770
 9401WAT      O28444   6.045   7.058   8.330
 9401WAT     H128445   6.047   6.959   8.348
 9401WAT     H228446   6.087   7.077   8.242
 9402WAT      O28447   3.389   3.709   7.589
 9402WAT     H128448   3.343   3.753   7.666
 9402WAT     H228449   3.460   3.769   7.554
 9403WAT      O28450   0.638   5.498   4.321
 9403WAT     H128451   0.629   5.516   4.223
 9403WAT     H228452   0.672   5.404   4.334
 9404WAT      O28453   9.829   2.211   9.254
 9404WAT     H128454   9.752   2.147   9.254
 9404WAT     H228455   9.903   2.174   9.311
 9405WAT      O28456   9.803   4.701   5.483
 9405WAT     H128457   9.862   4.781   5.470
 9405WAT     H228458   9.794   4.653   5.396
 9406WAT      O28459   7.848   1.082   2.226
 9406WAT     H128460   7.790   1.001   2.219
 9406WAT     H228461   7.888   1.102   2.136
 9407WAT      O28462   9.112   0.433   2.085
 9407WAT     H128463   9.039   0.484   2.131
 9407WAT     H228464   9.101   0.336   2.105
 9408WAT      O28465   2.598   4.199   6.654
 9408WAT     H128466   2.504   4.227   6.673
 9408WAT     H228467   2.661   4.252   6.711
 9409WAT      O28468   6.019   2.328   4.615
 9409WAT     H128469   5.966   2.394   4.669
 9409WAT     H228470   5.958   2.284   4.549
 9410WAT      O28471   0.309   2.506   7.511
 9410WAT     H128472   0.257   2.560   7.576
 9410WAT     H228473   0.383   2.458   7.558
 9411WAT      O28474   4.571   6.484   8.596
 9411WAT     H128475   4.526   6.403   8.559
 9411WAT     H228476   4.632   6.457   8.671
 9412WAT      O28477   9.229   8.901   3.267
 9412WAT     H128478   9.271   8.850   3.191
 9412WAT     H228479   9.191   8.987   3.232
 9413WAT      O28480   8.186   3.836   5.565
 9413WAT     H128481   8.142   3.860   5.651
 9413WAT     H228482   8.170   3.739   5.544
 9414WAT      O28483   1.367   0.549   4.429
 9414WAT     H128484   1.346   0.578   4.336
 9414WAT     H228485   1.441   0.481   4.428
 9415WAT      O28486   0.478   3.299   3.677
 9415WAT     H128487   0.496   3.359   3.754
 9415WAT     H228488   0.474   3.353   3.593
 9416WAT      O28489   1.255   8.934   9.048
 9416WAT     H128490   1.266   8.889   9.137
 9416WAT     H228491   1.254   9.033   9.061
 9417WAT      O28492   0.367   4.864   1.554
 9417WAT     H128493   0.311   4.915   1.619
 9417WAT     H228494   0.464   4.876   1.577
 9418WAT      O28495   3.345   0.223   7.662
 9418WAT     H128496   3.287   0.237   7.743
 9418WAT     H228497   3.392   0.308   7.640
 9419WAT      O28498   6.257   1.242   5.251
 9419WAT     H128499   6.251   1.329   5.300
 9419WAT     H228500   6.275   1.258   5.155
 9420WAT      O28501   1.412   6.458   3.118
 9420WAT     H128502   1.404   6.393   3.043
 9420WAT     H228503   1.477   6.530   3.094
 9421WAT      O28504   8.860   1.151   1.299
 9421WAT     H128505   8.836   1.056   1.315
 9421WAT     H228506   8.837   1.176   1.205
 9422WAT      O28507   9.088   0.344   3.729
 9422WAT     H128508   9.108   0.395   3.813
 9422WAT     H228509   9.083   0.408   3.652
 9423WAT      O28510   4.764   7.299   4.543
 9423WAT     H128511   4.814   7.265   4.464
 9423WAT     H228512   4.763   7.230   4.615
 9424WAT      O28513   5.694   1.270   3.661
 9424WAT     H128514   5.747   1.231   3.586
 9424WAT     H228515   5.633   1.200   3.698
 9425WAT      O28516   8.313   7.394   4.773
 9425WAT     H128517   8.266   7.477   4.804
 9425WAT     H228518   8.398   7.382   4.824
 9426WAT      O28519   6.667   1.139   3.560
 9426WAT     H128520   6.722   1.079   3.501
 9426WAT     H228521   6.593   1.179   3.506
 9427WAT      O28522   2.146   3.635   9.823
 9427WAT     H128523   2.223   3.660   9.764
 9427WAT     H228524   2.077   3.586   9.769
 9428WAT      O28525   0.311   9.783   2.709
 9428WAT     H128526   0.352   9.872   2.728
 9428WAT     H228527   0.256   9.788   2.626
 9429WAT      O28528   3.995   3.592   7.533
 9429WAT     H128529   4.083   3.610   7.487
 9429WAT     H228530   4.008   3.522   7.603
 9430WAT      O28531   7.507   8.061   9.535
 9430WAT     H128532   7.471   8.147   9.573
 9430WAT     H228533   7.480   8.054   9.439
 9431WAT      O28534   0.663   5.329   8.092
 9431WAT     H128535   0.680   5.281   8.005
 9431WAT     H228536   0.707   5.419   8.089
 9432WAT      O28537   3.481   5.754   6.942
 9432WAT     H128538   3.418   5.781   7.015
 9432WAT     H228539   3.472   5.656   6.925
 9433WAT      O28540   6.345   0.048   6.185
 9433WAT     H128541   6.424   0.028   6.127
 9433WAT     H228542   6.370   0.035   6.281
 9434WAT      O28543   9.140   4.022   1.464
 9434WAT     H128544   9.156   4.107   1.514
 9434WAT     H228545   9.122   3.948   1.529
 9435WAT      O28546   3.653   8.615   5.952
 9435WAT     H128547   3.731   8.614   5.889
 9435WAT     H228548   3.571   8.640   5.902
 9436WAT      O28549   6.036   1.422   1.819
 9436WAT     H128550   6.012   1.519   1.815
 9436WAT     H228551   6.135   1.412   1.822
 9437WAT      O28552   5.563   6.798   2.976
 9437WAT     H128553   5.592   6.794   3.071
 9437WAT     H228554   5.502   6.722   2.956
 9438WAT      O28555   9.884   6.955   3.399
 9438WAT     H128556   9.875   6.892   3.321
 9438WAT     H228557   9.796   6.963   3.446
 9439WAT      O28558   7.912   2.737   5.129
 9439WAT     H128559   7.877   2.821   5.087
 9439WAT     H228560   7.931   2.670   5.058
 9440WAT      O28561   8.824   4.113   6.845
 9440WAT     H128562   8.830   4.178   6.922
 9440WAT     H228563   8.745   4.053   6.859
 9441WAT      O28564   0.366   5.139   6.185
 9441WAT     H128565   0.311   5.107   6.109
 9441WAT     H228566   0.344   5.086   6.267
 9442WAT      O28567   9.145   8.057   0.566
 9442WAT     H128568   9.115   7.966   0.537
 9442WAT     H228569   9.186   8.052   0.656
 9443WAT      O28570   2.658   1.476   8.322
 9443WAT     H128571   2.723   1.411   8.282
 9443WAT     H228572   2.565   1.449   8.299
 9444WAT      O28573   7.465   1.942   5.945
 9444WAT     H128574   7.453   1.943   5.846
 9444WAT     H228575   7.526   2.016   5.972
 9445WAT      O28576   6.979   3.556   2.633
 9445WAT     H128577   7.001   3.508   2.717
 9445WAT     H228578   6.947   3.649   2.654
 9446WAT      O28579   0.653   2.676   2.666
 9446WAT     H128580   0.651   2.646   2.571
 9446WAT     H228581   0.746   2.669   2.702
 9447WAT      O28582   9.246   1.155   5.734
 9447WAT     H128583   9.322   1.093   5.755
 9447WAT     H228584   9.244   1.173   5.636
 9448WAT      O28585   2.198   7.322   4.798
 9448WAT     H128586   2.113   7.304   4.847
 9448WAT     H228587   2.273   7.272   4.842
 9449WAT      O28588   9.287   6.957   2.145
 9449WAT     H128589   9.355   6.948   2.217
 9449WAT     H228590   9.296   7.047   2.102
 9450WAT      O28591   4.299   6.405   1.792
 9450WAT     H128592   4.320   6.499   1.766
 9450WAT     H228593   4.264   6.403   1.886
 9451WAT      O28594   6.583   4.983   3.926
 9451WAT     H128595   6.578   5.082   3.938
 9451WAT     H228596   6.507   4.953   3.868
 9452WAT      O28597   4.229   2.438   5.470
 9452WAT     H128598   4.239   2.361   5.533
 9452WAT     H228599   4.300   2.432   5.399
 9453WAT      O28600   4.999   4.036   0.336
 9453WAT     H128601   4.959   4.052   0.246
 9453WAT     H228602   5.096   4.015   0.326
 9454WAT      O28603   5.704   4.055   5.851
 9454WAT     H128604   5.761   4.007   5.918
 9454WAT     H228605   5.651   4.126   5.897
 9455WAT      O28606   6.156   9.151   8.285
 9455WAT     H128607   6.146   9.078   8.352
 9455WAT     H228608   6.116   9.123   8.198
 9456WAT      O28609   0.497   2.929   9.520
 9456WAT     H128610   0.412   2.973   9.549
 9456WAT     H228611   0.486   2.830   9.523
 9457WAT      O28612   8.905   5.465   7.401
 9457WAT     H128613   8.814   5.460   7.441
 9457WAT     H228614   8.908   5.409   7.318
 9458WAT      O28615   8.788   2.093   1.238
 9458WAT     H128616   8.843   2.038   1.301
 9458WAT     H228617   8.725   2.034   1.187
 9459WAT      O28618   1.569   2.780   5.310
 9459WAT     H128619   1.503   2.746   5.243
 9459WAT     H228620   1.589   2.876   5.291
 9460WAT      O28621   3.252   0.772   7.161
 9460WAT     H128622   3.239   0.705   7.234
 9460WAT     H228623   3.350   0.781   7.141
 9461WAT      O28624   1.791   2.186   6.815
 9461WAT     H128625   1.843   2.100   6.820
 9461WAT     H228626   1.834   2.247   6.749
 9462WAT      O28627   9.348   6.373   7.083
 9462WAT     H128628   9.263   6.320   7.075
 9462WAT     H228629   9.334   6.464   7.044
 9463WAT      O28630   6.420   0.737   8.783
 9463WAT     H128631   6.465   0.790   8.712
 9463WAT     H228632   6.412   0.641   8.754
 9464WAT      O28633   6.512   3.190   5.001
 9464WAT     H128634   6.447   3.202   4.925
 9464WAT     H228635   6.603   3.171   4.964
 9465WAT      O28636   9.359   2.180   6.417
 9465WAT     H128637   9.416   2.108   6.379
 9465WAT     H228638   9.417   2.254   6.452
 9466WAT      O28639   8.397   1.943   2.442
 9466WAT     H128640   8.447   2.029   2.452
 9466WAT     H228641   8.345   1.945   2.357
 9467WAT      O28642   5.297   6.771   3.782
 9467WAT     H128643   5.325   6.861   3.748
 9467WAT     H228644   5.241   6.782   3.864
 9468WAT      O28645   1.597   8.956   3.588
 9468WAT     H128646   1.631   8.939   3.680
 9468WAT     H228647   1.592   8.870   3.537
 9469WAT      O28648   3.033   9.441   6.477
 9469WAT     H128649   3.126   9.469   6.454
 9469WAT     H228650   2.995   9.504   6.545
 9470WAT      O28651   3.321   3.943   0.761
 9470WAT     H128652   3.282   3.938   0.669
 9470WAT     H228653   3.248   3.954   0.828
 9471WAT      O28654   2.371   0.931   4.629
 9471WAT     H128655   2.311   0.875   4.686
 9471WAT     H228656   2.443   0.971   4.686
 9472WAT      O28657   6.707   5.199   8.375
 9472WAT     H128658   6.648   5.194   8.456
 9472WAT     H228659   6.653   5.231   8.297
 9473WAT      O28660   0.054   9.057   4.275
 9473WAT     H128661  -0.036   9.102   4.276
 9473WAT     H228662   0.044   8.961   4.300
 9474WAT      O28663   3.800   6.340   2.455
 9474WAT     H128664   3.860   6.279   2.403
 9474WAT     H228665   3.854   6.412   2.498
 9475WAT      O28666   9.561   2.061   6.796
 9475WAT     H128667   9.569   2.003   6.877
 9475WAT     H228668   9.646   2.057   6.744
 9476WAT      O28669   8.213   1.252   5.416
 9476WAT     H128670   8.180   1.241   5.510
 9476WAT     H228671   8.297   1.200   5.404
 9477WAT      O28672   0.426   2.123   4.919
 9477WAT     H128673   0.451   2.217   4.899
 9477WAT     H228674   0.351   2.121   4.985
 9478WAT      O28675   9.822   7.929   1.051
 9478WAT     H128676   9.865   7.877   1.125
 9478WAT     H228677   9.838   8.027   1.066
 9479WAT      O28678   2.286   8.210   9.563
 9479WAT     H128679   2.303   8.250   9.473
 9479WAT     H228680   2.321   8.271   9.634
 9480WAT      O28681   2.220   1.230   9.462
 9480WAT     H128682   2.289   1.302   9.475
 9480WAT     H228683   2.265   1.142   9.451
 9481WAT      O28684   4.283   9.035   1.792
 9481WAT     H128685   4.315   8.945   1.822
 9481WAT     H228686   4.305   9.104   1.861
 9482WAT      O28687   5.393   0.433   4.217
 9482WAT     H128688   5.487   0.435   4.251
 9482WAT     H228689   5.329   0.445   4.293
 9483WAT      O28690   6.072   6.306   0.387
 9483WAT     H128691   6.150   6.345   0.338
 9483WAT     H228692   6.003   6.278   0.321
 9484WAT      O28693   0.717   8.451   1.997
 9484WAT     H128694   0.627   8.415   2.022
 9484WAT     H228695   0.788   8.392   2.036
 9485WAT      O28696   3.610   7.229   0.982
 9485WAT     H128697   3.697   7.266   0.950
 9485WAT     H228698   3.536   7.294   0.961
 9486WAT      O28699   2.410   0.212   1.828
 9486WAT     H128700   2.475   0.276   1.786
 9486WAT     H228701   2.317   0.233   1.797
 9487WAT      O28702   5.318   1.924   5.176
 9487WAT     H128703   5.408   1.883   5.166
 9487WAT     H228704   5.321   2.019   5.145
 9488WAT      O28705   8.795   3.179   3.986
 9488WAT     H128706   8.776   3.276   4.001
 9488WAT     H228707   8.739   3.124   4.048
 9489WAT      O28708   4.298   8.725   4.322
 9489WAT     H128709   4.337   8.652   4.266
 9489WAT     H228710   4.315   8.813   4.278
 9490WAT      O28711   4.774   7.572   0.283
 9490WAT     H128712   4.844   7.584   0.354
 9490WAT     H228713   4.693   7.530   0.323
 9491WAT      O28714   5.060   3.038   1.219
 9491WAT     H128715   5.088   3.083   1.134
 9491WAT     H228716   4.965   3.059   1.238
 9492WAT      O28717   1.630   1.916   0.492
 9492WAT     H128718   1.582   2.002   0.513
 9492WAT     H228719   1.716   1.937   0.447
 9493WAT      O28720   8.235   3.427   8.842
 9493WAT     H128721   8.181   3.510   8.829
 9493WAT     H228722   8.261   3.419   8.938
 9494WAT      O28723   7.341   9.581   8.070
 9494WAT     H128724   7.345   9.540   8.162
 9494WAT     H228725   7.433   9.611   8.043
 9495WAT      O28726   1.499   9.097   5.218
 9495WAT     H128727   1.471   9.157   5.143
 9495WAT     H228728   1.574   9.141   5.269
 9496WAT      O28729   6.071   2.081   1.495
 9496WAT     H128730   6.005   2.016   1.458
 9496WAT     H228731   6.049   2.173   1.461
 9497WAT      O28732   5.951   4.722   2.165
 9497WAT     H128733   5.962   4.733   2.066
 9497WAT     H228734   5.911   4.632   2.184
 9498WAT      O28735   0.636   1.046   8.871
 9498WAT     H128736   0.669   1.093   8.953
 9498WAT     H228737   0.691   1.076   8.792
 9499WAT      O28738   6.378   1.427   2.101
 9499WAT     H128739   6.380   1.507   2.161
 9499WAT     H228740   6.426   1.448   2.016
 9500WAT      O28741   6.705   5.664   2.327
 9500WAT     H128742   6.701   5.760   2.354
 9500WAT     H228743   6.757   5.655   2.242
 9501WAT      O28744   0.341   7.886   6.611
 9501WAT     H128745   0.396   7.962   6.578
 9501WAT     H228746   0.356   7.806   6.553
 9502WAT      O28747   1.682   0.448   0.164
 9502WAT     H128748   1.742   0.369   0.156
 9502WAT     H228749   1.729   0.522   0.212
 9503WAT      O28750   0.566   4.633   8.379
 9503WAT     H128751   0.505   4.682   8.441
 9503WAT     H228752   0.510   4.585   8.311
 9504WAT      O28753   8.652   3.761   0.711
 9504WAT     H128754   8.629   3.792   0.619
 9504WAT     H228755   8.640   3.836   0.776
 9505WAT      O28756   4.931   7.679   3.156
 9505WAT     H128757   4.953   7.641   3.246
 9505WAT     H228758   5.011   7.668   3.096
 9506WAT      O28759   6.326   4.060   5.752
 9506WAT     H128760   6.257   4.115   5.800
 9506WAT     H228761   6.348   3.979   5.806
 9507WAT      O28762   7.645   2.144   0.039
 9507WAT     H128763   7.577   2.214   0.017
 9507WAT     H228764   7.667   2.148   0.136
 9508WAT      O28765   2.740   1.595   9.066
 9508WAT     H128766   2.775   1.684   9.036
 9508WAT     H228767   2.793   1.562   9.144
 9509WAT      O28768   2.897   6.362   9.598
 9509WAT     H128769   2.892   6.369   9.697
 9509WAT     H228770   2.853   6.278   9.568
 9510WAT      O28771   4.747   7.229   6.295
 9510WAT     H128772   4.801   7.148   6.271
 9510WAT     H228773   4.671   7.238   6.231
 9511WAT      O28774   0.280   7.649   9.147
 9511WAT     H128775   0.331   7.693   9.073
 9511WAT     H228776   0.209   7.711   9.180
 9512WAT      O28777   2.763   8.803   6.089
 9512WAT     H128778   2.761   8.717   6.139
 9512WAT     H228779   2.687   8.806   6.024
 9513WAT      O28780   4.194   7.648   3.264
 9513WAT     H128781   4.209   7.633   3.167
 9513WAT     H228782   4.145   7.734   3.278
 9514WAT      O28783   4.901   9.398   9.583
 9514WAT     H128784   4.955   9.475   9.551
 9514WAT     H228785   4.819   9.389   9.527
 9515WAT      O28786   9.763   0.607   1.938
 9515WAT     H128787   9.689   0.653   1.888
 9515WAT     H228788   9.790   0.525   1.889
 9516WAT      O28789   4.407   8.162   0.386
 9516WAT     H128790   4.363   8.246   0.419
 9516WAT     H228791   4.338   8.099   0.352
 9517WAT      O28792   5.891   8.588   6.041
 9517WAT     H128793   5.894   8.668   6.101
 9517WAT     H228794   5.972   8.532   6.056
 9518WAT      O28795   1.594   5.863   0.672
 9518WAT     H128796   1.575   5.913   0.757
 9518WAT     H228797   1.595   5.765   0.690
 9519WAT      O28798   7.032   0.775   7.155
 9519WAT     H128799   6.959   0.809   7.215
 9519WAT     H228800   7.013   0.803   7.061
 9520WAT      O28801   8.168   4.430   9.598
 9520WAT     H128802   8.222   4.513   9.609
 9520WAT     H228803   8.134   4.425   9.504
 9521WAT      O28804   8.715   0.348   3.286
 9521WAT     H128805   8.766   0.263   3.302
 9521WAT     H228806   8.617   0.329   3.293
 9522WAT      O28807   8.234   6.005   1.457
 9522WAT     H128808   8.299   5.945   1.503
 9522WAT     H228809   8.181   6.056   1.525
 9523WAT      O28810   3.492   5.208   5.612
 9523WAT     H128811   3.482   5.248   5.703
 9523WAT     H228812   3.544   5.123   5.618
 9524WAT      O28813   5.971   0.867   7.586
 9524WAT     H128814   6.035   0.792   7.573
 9524WAT     H228815   5.882   0.830   7.614
 9525WAT      O28816   7.332   5.782   8.562
 9525WAT     H128817   7.282   5.715   8.507
 9525WAT     H228818   7.327   5.757   8.658
 9526WAT      O28819   5.362   1.864   2.024
 9526WAT     H128820   5.320   1.891   2.111
 9526WAT     H228821   5.319   1.916   1.950
 9527WAT      O28822   5.832   2.800   7.037
 9527WAT     H128823   5.827   2.701   7.029
 9527WAT     H228824   5.907   2.825   7.098
 9528WAT      O28825   1.705   0.119   0.416
 9528WAT     H128826   1.716   0.034   0.467
 9528WAT     H228827   1.794   0.161   0.400
 9529WAT      O28828   3.403   6.620   3.378
 9529WAT     H128829   3.352   6.540   3.345
 9529WAT     H228830   3.495   6.593   3.404
 9530WAT      O28831   4.317   4.369   8.897
 9530WAT     H128832   4.372   4.372   8.981
 9530WAT     H228833   4.335   4.450   8.842
 9531WAT      O28834   7.240   4.346   4.358
 9531WAT     H128835   7.236   4.390   4.448
 9531WAT     H228836   7.189   4.260   4.361
 9532WAT      O28837   9.314   9.171   0.724
 9532WAT     H128838   9.286   9.179   0.628
 9532WAT     H228839   9.324   9.075   0.748
 9533WAT      O28840   0.865   6.940   7.816
 9533WAT     H128841   0.831   7.029   7.847
 9533WAT     H228842   0.907   6.892   7.893
 9534WAT      O28843   2.999   1.005   4.378
 9534WAT     H128844   3.069   0.981   4.445
 9534WAT     H228845   3.010   0.948   4.297
 9535WAT      O28846   3.925   5.570   5.179
 9535WAT     H128847   3.906   5.603   5.087
 9535WAT     H228848   4.017   5.599   5.207
 9536WAT      O28849   1.877   0.522   3.197
 9536WAT     H128850   1.790   0.549   3.239
 9536WAT     H228851   1.946   0.510   3.268
 9537WAT      O28852   6.796   8.147   6.220
 9537WAT     H128853   6.876   8.153   6.160
 9537WAT     H228854   6.727   8.089   6.176
 9538WAT      O28855   0.793   5.386   6.524
 9538WAT     H128856   0.725   5.344   6.465
 9538WAT     H228857   0.823   5.473   6.485
 9539WAT      O28858   0.114   0.417   6.502
 9539WAT     H128859   0.102   0.346   6.572
 9539WAT     H228860   0.052   0.398   6.425
 9540WAT      O28861   4.774   2.151   6.375
 9540WAT     H128862   4.829   2.199   6.306
 9540WAT     H228863   4.677   2.165   6.356
 9541WAT      O28864   0.666   3.925   8.232
 9541WAT     H128865   0.719   3.863   8.290
 9541WAT     H228866   0.641   4.006   8.285
 9542WAT      O28867   6.818   9.614   4.906
 9542WAT     H128868   6.790   9.709   4.906
 9542WAT     H228869   6.856   9.590   4.816
 9543WAT      O28870   3.788   9.246   0.646
 9543WAT     H128871   3.787   9.324   0.583
 9543WAT     H228872   3.771   9.277   0.739
 9544WAT      O28873   4.155   8.369   1.291
 9544WAT     H128874   4.190   8.418   1.211
 9544WAT     H228875   4.233   8.336   1.345
 9545WAT      O28876   2.797   7.237   9.387
 9545WAT     H128877   2.839   7.197   9.468
 9545WAT     H228878   2.721   7.179   9.357
 9546WAT      O28879   6.539   5.906   5.534
 9546WAT     H128880   6.545   5.993   5.486
 9546WAT     H228881   6.457   5.905   5.592
 9547WAT      O28882   4.127   3.273   9.312
 9547WAT     H128883   4.188   3.275   9.391
 9547WAT     H228884   4.034   3.297   9.340
 9548WAT      O28885   0.635   2.900   4.547
 9548WAT     H128886   0.588   2.966   4.604
 9548WAT     H228887   0.583   2.885   4.463
 9549WAT      O28888   5.879   7.761   3.202
 9549WAT     H128889   5.817   7.777   3.125
 9549WAT     H228890   5.973   7.752   3.168
 9550WAT      O28891   0.596   4.356   4.493
 9550WAT     H128892   0.556   4.272   4.529
 9550WAT     H228893   0.554   4.435   4.539
 9551WAT      O28894   2.589   6.377   0.489
 9551WAT     H128895   2.597   6.316   0.410
 9551WAT     H228896   2.580   6.471   0.457
 9552WAT      O28897   9.801   2.526   0.678
 9552WAT     H128898   9.758   2.579   0.604
 9552WAT     H228899   9.874   2.580   0.719
 9553WAT      O28900   6.572   0.567   4.415
 9553WAT     H128901   6.609   0.504   4.346
 9553WAT     H228902   6.570   0.660   4.377
 9554WAT      O28903   3.626   3.570   5.239
 9554WAT     H128904   3.568   3.545   5.317
 9554WAT     H228905   3.615   3.668   5.220
 9555WAT      O28906   6.415   1.310   7.650
 9555WAT     H128907   6.405   1.301   7.551
 9555WAT     H228908   6.509   1.333   7.672
 9556WAT      O28909   6.287   8.994   6.304
 9556WAT     H128910   6.332   8.909   6.332
 9556WAT     H228911   6.195   8.973   6.269
 9557WAT      O28912   2.371   1.704   2.325
 9557WAT     H128913   2.420   1.617   2.320
 9557WAT     H228914   2.273   1.686   2.328
 9558WAT      O28915   0.808   7.198   0.283
 9558WAT     H128916   0.844   7.142   0.357
 9558WAT     H228917   0.879   7.262   0.252
 9559WAT      O28918   9.392   8.649   8.590
 9559WAT     H128919   9.356   8.608   8.507
 9559WAT     H228920   9.322   8.647   8.662
 9560WAT      O28921   3.726   2.228   7.610
 9560WAT     H128922   3.677   2.194   7.529
 9560WAT     H228923   3.668   2.218   7.691
 9561WAT      O28924   4.061   1.677   3.724
 9561WAT     H128925   4.061   1.659   3.626
 9561WAT     H228926   4.138   1.736   3.747
 9562WAT      O28927   0.978   1.972   1.221
 9562WAT     H128928   0.989   1.930   1.130
 9562WAT     H228929   0.938   1.905   1.284
 9563WAT      O28930   3.890   7.744   9.866
 9563WAT     H128931   3.794   7.752   9.891
 9563WAT     H228932   3.927   7.834   9.847
 9564WAT      O28933   8.378   1.755   6.185
 9564WAT     H128934   8.379   1.818   6.262
 9564WAT     H228935   8.412   1.801   6.103
 9565WAT      O28936   0.573   5.246   0.541
 9565WAT     H128937   0.628   5.327   0.559
 9565WAT     H228938   0.610   5.197   0.462
 9566WAT      O28939   4.576   7.850   1.567
 9566WAT     H128940   4.613   7.880   1.655
 9566WAT     H228941   4.519   7.769   1.581
 9567WAT      O28942   6.550   1.846   5.331
 9567WAT     H128943   6.472   1.869   5.273
 9567WAT     H228944   6.544   1.750   5.358
 9568WAT      O28945   2.658   0.453   6.707
 9568WAT     H128946   2.711   0.507   6.772
 9568WAT     H228947   2.569   0.432   6.745
 9569WAT      O28948   8.852   5.809   7.870
 9569WAT     H128949   8.891   5.843   7.784
 9569WAT     H228950   8.917   5.747   7.913
 9570WAT      O28951   6.535   9.642   6.626
 9570WAT     H128952   6.605   9.619   6.558
 9570WAT     H228953   6.496   9.558   6.663
 9571WAT      O28954   2.577   0.655   2.963
 9571WAT     H128955   2.542   0.599   3.038
 9571WAT     H228956   2.572   0.602   2.877
 9572WAT      O28957   5.851   8.697   1.363
 9572WAT     H128958   5.801   8.765   1.309
 9572WAT     H228959   5.939   8.735   1.390
 9573WAT      O28960   2.211   0.852   3.146
 9573WAT     H128961   2.118   0.822   3.127
 9573WAT     H228962   2.266   0.848   3.062
 9574WAT      O28963   6.041   4.068   3.922
 9574WAT     H128964   5.961   4.128   3.924
 9574WAT     H228965   6.015   3.976   3.950
 9575WAT      O28966   8.504   6.817   9.041
 9575WAT     H128967   8.483   6.885   8.970
 9575WAT     H228968   8.592   6.838   9.083
 9576WAT      O28969   1.675   8.163   4.131
 9576WAT     H128970   1.739   8.205   4.067
 9576WAT     H228971   1.615   8.233   4.169
 9577WAT      O28972   8.017   3.340   1.250
 9577WAT     H128973   7.971   3.357   1.337
 9577WAT     H228974   7.992   3.412   1.185
 9578WAT      O28975   2.760   5.810   4.779
 9578WAT     H128976   2.695   5.815   4.854
 9578WAT     H228977   2.778   5.714   4.757
 9579WAT      O28978   3.688   7.580   4.300
 9579WAT     H128979   3.676   7.677   4.320
 9579WAT     H228980   3.686   7.528   4.386
 9580WAT      O28981   4.422   7.466   1.327
 9580WAT     H128982   4.330   7.460   1.289
 9580WAT     H228983   4.486   7.498   1.257
 9581WAT      O28984   7.839   2.173   6.554
 9581WAT     H128985   7.809   2.254   6.604
 9581WAT     H228986   7.939   2.171   6.551
 9582WAT      O28987   7.902   5.300   4.120
 9582WAT     H128988   7.945   5.223   4.166
 9582WAT     H228989   7.878   5.371   4.186
 9583WAT      O28990   4.278   9.801   7.291
 9583WAT     H128991   4.195   9.793   7.347
 9583WAT     H228992   4.255   9.844   7.204
 9584WAT      O28993   1.548   0.820   2.418
 9584WAT     H128994   1.592   0.901   2.456
 9584WAT     H228995   1.450   0.837   2.408
 9585WAT      O28996   0.191   4.566   3.341
 9585WAT     H128997   0.144   4.556   3.429
 9585WAT     H228998   0.244   4.484   3.322
 9586WAT      O28999   3.188   9.805   5.520
 9586WAT     H129000   3.208   9.897   5.486
 9586WAT     H229001   3.267   9.771   5.570
 9587WAT      O29002   8.609   8.431   4.341
 9587WAT     H129003   8.611   8.418   4.440
 9587WAT     H229004   8.534   8.378   4.302
 9588WAT      O29005   2.810   1.615   1.116
 9588WAT     H129006   2.817   1.516   1.110
 9588WAT     H229007   2.832   1.656   1.028
 9589WAT      O29008   2.098   8.616   1.895
 9589WAT     H129009   2.129   8.524   1.875
 9589WAT     H229010   2.057   8.656   1.813
 9590WAT      O29011   6.420   2.670   8.468
 9590WAT     H129012   6.345   2.627   8.519
 9590WAT     H229013   6.385   2.709   8.383
 9591WAT      O29014   5.065   4.326   3.209
 9591WAT     H129015   5.043   4.395   3.277
 9591WAT     H229016   4.994   4.325   3.138
 9592WAT      O29017   2.009   6.326   2.007
 9592WAT     H129018   1.930   6.293   2.059
 9592WAT     H229019   2.078   6.363   2.069
 9593WAT      O29020   0.332   3.094   0.770
 9593WAT     H129021   0.353   3.183   0.812
 9593WAT     H229022   0.412   3.061   0.720
 9594WAT      O29023   4.185   9.411   2.749
 9594WAT     H129024   4.232   9.352   2.813
 9594WAT     H229025   4.128   9.477   2.799
 9595WAT      O29026   7.410   5.743   2.715
 9595WAT     H129027   7.345   5.806   2.673
 9595WAT     H229028   7.403   5.749   2.815
 9596WAT      O29029   1.183   7.736   8.883
 9596WAT     H129030   1.205   7.646   8.920
 9596WAT     H229031   1.107   7.776   8.934
 9597WAT      O29032   9.164   9.546   0.950
 9597WAT     H129033   9.253   9.591   0.962
 9597WAT     H229034   9.179   9.447   0.942
 9598WAT      O29035   0.471   3.170   3.351
 9598WAT     H129036   0.566   3.162   3.321
 9598WAT     H229037   0.455   3.262   3.386
 9599WAT      O29038   2.028   0.486   3.406
 9599WAT     H129039   2.034   0.566   3.465
 9599WAT     H229040   2.120   0.448   3.392
 9600WAT      O29041   2.345   3.610   9.256
 9600WAT     H129042   2.398   3.695   9.252
 9600WAT     H229043   2.386   3.543   9.194
 9601WAT      O29044   8.164   6.738   4.869
 9601WAT     H129045   8.223   6.779   4.938
 9601WAT     H229046   8.085   6.798   4.853
 9602WAT      O29047   8.071   5.437   8.778
 9602WAT     H129048   8.109   5.528   8.762
 9602WAT     H229049   8.046   5.395   8.690
 9603WAT      O29050   8.148   7.564   4.331
 9603WAT     H129051   8.071   7.535   4.389
 9603WAT     H229052   8.147   7.509   4.247
 9604WAT      O29053   0.263   2.072   9.721
 9604WAT     H129054   0.314   2.033   9.644
 9604WAT     H229055   0.250   2.002   9.791
 9605WAT      O29056   1.748   7.906   5.447
 9605WAT     H129057   1.783   7.999   5.432
 9605WAT     H229058   1.652   7.902   5.420
 9606WAT      O29059   6.940   7.508   7.872
 9606WAT     H129060   6.916   7.411   7.882
 9606WAT     H229061   7.037   7.520   7.893
 9607WAT      O29062   1.825   5.683   4.654
 9607WAT     H129063   1.834   5.779   4.629
 9607WAT     H229064   1.903   5.632   4.619
 9608WAT      O29065   6.694   3.085   6.491
 9608WAT     H129066   6.736   3.176   6.492
 9608WAT     H229067   6.678   3.054   6.584
 9609WAT      O29068   7.346   9.457   5.839
 9609WAT     H129069   7.393   9.488   5.921
 9609WAT     H229070   7.361   9.523   5.765
 9610WAT      O29071   6.429   0.728   9.283
 9610WAT     H129072   6.360   0.666   9.245
 9610WAT     H229073   6.457   0.793   9.213
 9611WAT      O29074   6.534   8.801   4.579
 9611WAT     H129075   6.553   8.822   4.484
 9611WAT     H229076   6.590   8.859   4.638
 9612WAT      O29077   3.988   2.806   0.289
 9612WAT     H129078   3.993   2.903   0.266
 9612WAT     H229079   3.988   2.796   0.389
 9613WAT      O29080   9.282   3.210   0.330
 9613WAT     H129081   9.327   3.291   0.292
 9613WAT     H229082   9.222   3.237   0.405
 9614WAT      O29083   0.199   1.868   4.030
 9614WAT     H129084   0.158   1.956   4.052
 9614WAT     H229085   0.128   1.804   4.000
 9615WAT      O29086   4.514   3.602   0.345
 9615WAT     H129087   4.419   3.604   0.376
 9615WAT     H229088   4.569   3.550   0.411
 9616WAT      O29089   9.276   6.224   8.677
 9616WAT     H129090   9.241   6.234   8.770
 9616WAT     H229091   9.200   6.199   8.616
 9617WAT      O29092   0.362   9.231   4.892
 9617WAT     H129093   0.412   9.263   4.972
 9617WAT     H229094   0.394   9.280   4.811
 9618WAT      O29095   4.078   7.843   3.793
 9618WAT     H129096   4.131   7.899   3.857
 9618WAT     H229097   4.124   7.755   3.781
 9619WAT      O29098   0.023   5.020   4.327
 9619WAT     H129099   0.021   5.106   4.378
 9619WAT     H229100  -0.060   4.968   4.347
 9620WAT      O29101   9.741   8.483   4.862
 9620WAT     H129102   9.789   8.504   4.777
 9620WAT     H229103   9.806   8.446   4.929
 9621WAT      O29104   8.376   6.494   6.082
 9621WAT     H129105   8.313   6.458   6.151
 9621WAT     H229106   8.368   6.440   5.998
 9622WAT      O29107   3.677   2.221   9.825
 9622WAT     H129108   3.635   2.130   9.815
 9622WAT     H229109   3.700   2.257   9.735
 9623WAT      O29110   7.940   5.066   9.673
 9623WAT     H129111   7.919   5.156   9.636
 9623WAT     H229112   8.038   5.058   9.688
 9624WAT      O29113   7.988   5.800   7.794
 9624WAT     H129114   7.936   5.773   7.713
 9624WAT     H229115   7.971   5.734   7.868
 9625WAT      O29116   4.288   9.318   7.746
 9625WAT     H129117   4.228   9.256   7.797
 9625WAT     H229118   4.295   9.286   7.652
 9626WAT      O29119   6.967   1.760   9.389
 9626WAT     H129120   6.920   1.818   9.323
 9626WAT     H229121   6.987   1.671   9.347
 9627WAT      O29122   8.600   0.777   3.832
 9627WAT     H129123   8.647   0.706   3.781
 9627WAT     H229124   8.594   0.860   3.777
 9628WAT      O29125   4.937   5.322   2.139
 9628WAT     H129126   4.988   5.236   2.132
 9628WAT     H229127   4.925   5.361   2.048
 9629WAT      O29128   0.190   0.070   4.276
 9629WAT     H129129   0.105   0.070   4.225
 9629WAT     H229130   0.172   0.050   4.373
 9630WAT      O29131   5.342   8.513   1.109
 9630WAT     H129132   5.334   8.533   1.207
 9630WAT     H229133   5.286   8.434   1.087
 9631WAT      O29134   1.181   4.968   9.040
 9631WAT     H129135   1.097   4.918   9.058
 9631WAT     H229136   1.257   4.904   9.032
 9632WAT      O29137   2.745   9.268   3.328
 9632WAT     H129138   2.705   9.320   3.252
 9632WAT     H229139   2.693   9.287   3.411
 9633WAT      O29140   5.319   2.824   8.635
 9633WAT     H129141   5.318   2.754   8.563
 9633WAT     H229142   5.344   2.783   8.722
 9634WAT      O29143   4.795   6.922   2.500
 9634WAT     H129144   4.861   6.997   2.500
 9634WAT     H229145   4.757   6.911   2.408
 9635WAT      O29146   8.853   7.258   9.449
 9635WAT     H129147   8.906   7.178   9.421
 9635WAT     H229148   8.760   7.230   9.473
 9636WAT      O29149   7.780   9.073   7.326
 9636WAT     H129150   7.799   9.164   7.288
 9636WAT     H229151   7.836   9.005   7.279
 9637WAT      O29152   7.613   6.088   1.098
 9637WAT     H129153   7.711   6.072   1.112
 9637WAT     H229154   7.587   6.175   1.139
 9638WAT      O29155   8.160   5.646   5.269
 9638WAT     H129156   8.125   5.639   5.175
 9638WAT     H229157   8.148   5.740   5.301
 9639WAT      O29158   3.029   2.110   9.464
 9639WAT     H129159   3.093   2.182   9.440
 9639WAT     H229160   3.046   2.080   9.558
 9640WAT      O29161   4.893   6.108   3.046
 9640WAT     H129162   4.949   6.183   3.012
 9640WAT     H229163   4.818   6.144   3.101
 9641WAT      O29164   4.956   0.984   7.448
 9641WAT     H129165   4.883   0.921   7.476
 9641WAT     H229166   4.919   1.053   7.385
 9642WAT      O29167   5.287   2.001   7.765
 9642WAT     H129168   5.218   1.965   7.702
 9642WAT     H229169   5.317   1.928   7.826
 9643WAT      O29170   9.065   6.210   3.962
 9643WAT     H129171   9.129   6.142   3.925
 9643WAT     H229172   9.032   6.178   4.051
 9644WAT      O29173   2.865   0.242   9.312
 9644WAT     H129174   2.793   0.240   9.243
 9644WAT     H229175   2.846   0.316   9.378
 9645WAT      O29176   0.758   2.902   2.909
 9645WAT     H129177   0.781   2.932   2.816
 9645WAT     H229178   0.839   2.861   2.951
 9646WAT      O29179   5.428   9.530   2.882
 9646WAT     H129180   5.500   9.600   2.884
 9646WAT     H229181   5.457   9.455   2.823
 9647WAT      O29182   5.023   0.412   5.945
 9647WAT     H129183   5.075   0.441   5.865
 9647WAT     H229184   5.003   0.492   6.002
 9648WAT      O29185   9.468   4.742   8.528
 9648WAT     H129186   9.381   4.698   8.510
 9648WAT     H229187   9.541   4.674   8.527
 9649WAT      O29188   6.188   8.994   0.605
 9649WAT     H129189   6.191   8.920   0.539
 9649WAT     H229190   6.115   9.058   0.582
 9650WAT      O29191   4.842   4.566   6.558
 9650WAT     H129192   4.894   4.481   6.545
 9650WAT     H229193   4.902   4.644   6.541
 9651WAT      O29194   3.666   2.276   6.682
 9651WAT     H129195   3.735   2.204   6.677
 9651WAT     H229196   3.576   2.238   6.661
 9652WAT      O29197   1.494   5.668   0.153
 9652WAT     H129198   1.524   5.581   0.192
 9652WAT     H229199   1.400   5.686   0.182
 9653WAT      O29200   4.445   0.896   0.742
 9653WAT     H129201   4.539   0.928   0.752
 9653WAT     H229202   4.438   0.803   0.778
 9654WAT      O29203   2.085   4.245   8.976
 9654WAT     H129204   2.185   4.236   8.985
 9654WAT     H229205   2.042   4.161   9.010
 9655WAT      O29206   9.662   9.648   7.386
 9655WAT     H129207   9.755   9.667   7.354
 9655WAT     H229208   9.649   9.685   7.477
 9656WAT      O29209   5.248   4.192   6.438
 9656WAT     H129210   5.198   4.118   6.394
 9656WAT     H229211   5.302   4.241   6.370
 9657WAT      O29212   7.859   5.382   5.080
 9657WAT     H129213   7.778   5.323   5.079
 9657WAT     H229214   7.833   5.475   5.052
 9658WAT      O29215   2.679   4.384   8.580
 9658WAT     H129216   2.691   4.469   8.530
 9658WAT     H229217   2.613   4.397   8.654
 9659WAT      O29218   4.427   2.778   1.945
 9659WAT     H129219   4.421   2.877   1.957
 9659WAT     H229220   4.377   2.751   1.863
 9660WAT      O29221   0.867   4.868   5.719
 9660WAT     H129222   0.851   4.772   5.743
 9660WAT     H229223   0.786   4.922   5.741
 9661WAT      O29224   7.700   2.485   0.358
 9661WAT     H129225   7.627   2.501   0.424
 9661WAT     H229226   7.784   2.530   0.390
 9662WAT      O29227   0.787   6.737   7.045
 9662WAT     H129228   0.858   6.690   7.097
 9662WAT     H229229   0.799   6.836   7.054
 9663WAT      O29230   7.541   2.695   6.496
 9663WAT     H129231   7.518   2.750   6.576
 9663WAT     H229232   7.582   2.754   6.426
 9664WAT      O29233   9.582   4.358   8.784
 9664WAT     H129234   9.642   4.280   8.768
 9664WAT     H229235   9.638   4.439   8.805
 9665WAT      O29236   6.257   3.027   6.345
 9665WAT     H129237   6.181   3.079   6.384
 9665WAT     H229238   6.339   3.084   6.343
 9666WAT      O29239   9.061   7.186   0.694
 9666WAT     H129240   9.137   7.152   0.749
 9666WAT     H229241   9.056   7.136   0.608
 9667WAT      O29242   7.351   5.511   8.180
 9667WAT     H129243   7.291   5.440   8.140
 9667WAT     H229244   7.373   5.579   8.110
 9668WAT      O29245   7.019   8.002   0.267
 9668WAT     H129246   7.091   7.952   0.218
 9668WAT     H229247   7.057   8.038   0.352
 9669WAT      O29248   4.020   7.149   7.673
 9669WAT     H129249   3.999   7.107   7.585
 9669WAT     H229250   3.937   7.158   7.727
 9670WAT      O29251   2.570   8.171   3.050
 9670WAT     H129252   2.476   8.135   3.048
 9670WAT     H229253   2.568   8.266   3.081
 9671WAT      O29254   4.373   4.653   1.804
 9671WAT     H129255   4.292   4.693   1.761
 9671WAT     H229256   4.403   4.712   1.879
 9672WAT      O29257   2.291   7.428   8.047
 9672WAT     H129258   2.332   7.456   8.134
 9672WAT     H229259   2.192   7.421   8.058
 9673WAT      O29260   2.629   1.337   9.336
 9673WAT     H129261   2.575   1.278   9.276
 9673WAT     H229262   2.709   1.371   9.287
 9674WAT      O29263   1.919   8.637   5.421
 9674WAT     H129264   1.894   8.623   5.517
 9674WAT     H229265   1.999   8.697   5.417
 9675WAT      O29266   4.697   4.704   8.343
 9675WAT     H129267   4.661   4.739   8.429
 9675WAT     H229268   4.711   4.780   8.279
 9676WAT      O29269   1.048   0.309   7.816
 9676WAT     H129270   0.970   0.247   7.827
 9676WAT     H229271   1.129   0.256   7.793
 9677WAT      O29272   1.792   8.787   2.537
 9677WAT     H129273   1.745   8.704   2.509
 9677WAT     H229274   1.740   8.867   2.509
 9678WAT      O29275   4.137   3.891   1.559
 9678WAT     H129276   4.094   3.801   1.551
 9678WAT     H229277   4.147   3.931   1.468
 9679WAT      O29278   9.870   7.205   6.449
 9679WAT     H129279   9.819   7.235   6.368
 9679WAT     H229280   9.954   7.160   6.420
 9680WAT      O29281   5.457   7.062   7.373
 9680WAT     H129282   5.527   7.044   7.304
 9680WAT     H229283   5.500   7.099   7.455
 9681WAT      O29284   5.688   0.865   0.581
 9681WAT     H129285   5.773   0.861   0.633
 9681WAT     H229286   5.636   0.946   0.608
 9682WAT      O29287   8.149   0.131   3.974
 9682WAT     H129288   8.094   0.208   3.941
 9682WAT     H229289   8.102   0.045   3.954
 9683WAT      O29290   1.243   4.919   3.790
 9683WAT     H129291   1.297   4.902   3.872
 9683WAT     H229292   1.232   4.834   3.738
 9684WAT      O29293   9.415   8.196   4.025
 9684WAT     H129294   9.455   8.128   4.087
 9684WAT     H229295   9.319   8.174   4.009
 9685WAT      O29296   9.047   5.084   7.693
 9685WAT     H129297   9.118   5.101   7.761
 9685WAT     H229298   9.025   4.987   7.692
 9686WAT      O29299   2.790   2.254   9.842
 9686WAT     H129300   2.716   2.211   9.894
 9686WAT     H229301   2.777   2.236   9.744
 9687WAT      O29302   2.936   2.919   6.653
 9687WAT     H129303   2.973   3.000   6.608
 9687WAT     H229304   2.945   2.928   6.752
 9688WAT      O29305   3.415   1.921   8.413
 9688WAT     H129306   3.439   1.826   8.393
 9688WAT     H229307   3.331   1.944   8.364
 9689WAT      O29308   2.088   0.020   3.132
 9689WAT     H129309   2.132   0.085   3.070
 9689WAT     H229310   2.025  -0.037   3.080
 9690WAT      O29311   4.113   1.871   1.663
 9690WAT     H129312   4.019   1.898   1.686
 9690WAT     H229313   4.177   1.927   1.716
 9691WAT      O29314   8.261   1.381   3.229
 9691WAT     H129315   8.323   1.375   3.151
 9691WAT     H229316   8.274   1.469   3.276
 9692WAT      O29317   0.941   2.248   7.823
 9692WAT     H129318   1.023   2.189   7.826
 9692WAT     H229319   0.903   2.246   7.731
 9693WAT      O29320   1.928   5.858   1.793
 9693WAT     H129321   1.996   5.903   1.850
 9693WAT     H229322   1.955   5.866   1.697
 9694WAT      O29323   1.444   9.062   6.183
 9694WAT     H129324   1.356   9.049   6.136
 9694WAT     H229325   1.510   8.994   6.150
 9695WAT      O29326   0.335   8.727   7.762
 9695WAT     H129327   0.366   8.782   7.684
 9695WAT     H229328   0.251   8.766   7.798
 9696WAT      O29329   8.290   7.744   0.658
 9696WAT     H129330   8.331   7.802   0.588
 9696WAT     H229331   8.259   7.800   0.734
 9697WAT      O29332   2.256   5.409   2.251
 9697WAT     H129333   2.320   5.486   2.257
 9697WAT     H229334   2.265   5.365   2.162
 9698WAT      O29335   9.753   7.300   8.679
 9698WAT     H129336   9.789   7.239   8.749
 9698WAT     H229337   9.790   7.392   8.694
 9699WAT      O29338   4.821   0.099   5.188
 9699WAT     H129339   4.761   0.035   5.139
 9699WAT     H229340   4.859   0.054   5.269
 9700WAT      O29341   5.634   1.138   7.280
 9700WAT     H129342   5.728   1.111   7.297
 9700WAT     H229343   5.604   1.101   7.192
 9701WAT      O29344   8.849   9.616   1.508
 9701WAT     H129345   8.782   9.545   1.530
 9701WAT     H229346   8.893   9.593   1.421
 9702WAT      O29347   5.984   1.248   0.047
 9702WAT     H129348   5.921   1.281   0.117
 9702WAT     H229349   5.962   1.153   0.024
 9703WAT      O29350   0.695   3.257   5.655
 9703WAT     H129351   0.720   3.196   5.731
 9703WAT     H229352   0.777   3.303   5.622
 9704WAT      O29353   1.060   6.237   6.087
 9704WAT     H129354   1.092   6.161   6.031
 9704WAT     H229355   1.019   6.307   6.027
 9705WAT      O29356   5.504   5.919   0.657
 9705WAT     H129357   5.411   5.887   0.670
 9705WAT     H229358   5.568   5.860   0.707
 9706WAT      O29359   1.733   7.097   2.961
 9706WAT     H129360   1.783   7.146   3.033
 9706WAT     H229361   1.658   7.154   2.928
 9707WAT      O29362   2.802   2.106   1.934
 9707WAT     H129363   2.796   2.204   1.953
 9707WAT     H229364   2.890   2.072   1.965
 9708WAT      O29365   6.690   2.273   6.503
 9708WAT     H129366   6.785   2.255   6.477
 9708WAT     H229367   6.653   2.195   6.553
 9709WAT      O29368   1.757   3.187   0.471
 9709WAT     H129369   1.678   3.158   0.419
 9709WAT     H229370   1.745   3.282   0.501
 9710WAT      O29371   9.130   3.191   4.752
 9710WAT     H129372   9.128   3.290   4.740
 9710WAT     H229373   9.096   3.168   4.843
 9711WAT      O29374   0.361   9.146   5.257
 9711WAT     H129375   0.286   9.183   5.312
 9711WAT     H229376   0.412   9.222   5.215
 9712WAT      O29377   5.566   1.398   1.795
 9712WAT     H129378   5.523   1.311   1.771
 9712WAT     H229379   5.565   1.409   1.894
 9713WAT      O29380   9.080   4.888   2.243
 9713WAT     H129381   9.132   4.804   2.224
 9713WAT     H229382   9.020   4.908   2.166
 9714WAT      O29383   3.182   4.575   1.654
 9714WAT     H129384   3.255   4.598   1.718
 9714WAT     H229385   3.151   4.658   1.607
 9715WAT      O29386   5.735   0.968   6.096
 9715WAT     H129387   5.806   1.003   6.157
 9715WAT     H229388   5.776   0.907   6.028
 9716WAT      O29389   5.107   7.430   1.038
 9716WAT     H129390   5.075   7.500   0.974
 9716WAT     H229391   5.059   7.344   1.021
 9717WAT      O29392   1.978   0.160   8.084
 9717WAT     H129393   2.030   0.180   8.168
 9717WAT     H229394   1.963   0.245   8.034
 9718WAT      O29395   7.771   9.821   6.378
 9718WAT     H129396   7.845   9.801   6.314
 9718WAT     H229397   7.801   9.891   6.443
 9719WAT      O29398   4.556   6.285   5.218
 9719WAT     H129399   4.655   6.300   5.207
 9719WAT     H229400   4.539   6.246   5.308
 9720WAT      O29401   0.450   9.797   6.195
 9720WAT     H129402   0.473   9.854   6.275
 9720WAT     H229403   0.515   9.816   6.122
 9721WAT      O29404   4.424   4.707   1.146
 9721WAT     H129405   4.514   4.718   1.104
 9721WAT     H229406   4.400   4.790   1.197
 9722WAT      O29407   0.413   6.236   3.320
 9722WAT     H129408   0.443   6.233   3.416
 9722WAT     H229409   0.416   6.144   3.281
 9723WAT      O29410   6.479   6.347   3.890
 9723WAT     H129411   6.553   6.328   3.954
 9723WAT     H229412   6.476   6.275   3.820
 9724WAT      O29413   0.999   4.306   4.836
 9724WAT     H129414   1.084   4.358   4.848
 9724WAT     H229415   0.982   4.293   4.738
 9725WAT      O29416   0.139   8.385   4.240
 9725WAT     H129417   0.181   8.358   4.153
 9725WAT     H229418   0.040   8.367   4.236
 9726WAT      O29419   6.947   8.742   7.048
 9726WAT     H129420   7.022   8.747   7.114
 9726WAT     H229421   6.886   8.820   7.061
 9727WAT      O29422   8.017   7.751   7.363
 9727WAT     H129423   7.977   7.788   7.446
 9727WAT     H229424   8.053   7.659   7.382
 9728WAT      O29425   9.775   4.378   2.616
 9728WAT     H129426   9.682   4.401   2.645
 9728WAT     H229427   9.829   4.355   2.696
 9729WAT      O29428   0.528   8.725   7.224
 9729WAT     H129429   0.627   8.723   7.241
 9729WAT     H229430   0.504   8.652   7.160
 9730WAT      O29431   8.087   5.029   7.698
 9730WAT     H129432   8.078   5.059   7.792
 9730WAT     H229433   8.159   5.082   7.652
 9731WAT      O29434   7.063   5.121   7.489
 9731WAT     H129435   7.010   5.068   7.422
 9731WAT     H229436   7.030   5.100   7.581
 9732WAT      O29437   5.428   7.651   0.776
 9732WAT     H129438   5.408   7.722   0.843
 9732WAT     H229439   5.450   7.692   0.688
 9733WAT      O29440   0.454   8.786   4.569
 9733WAT     H129441   0.468   8.743   4.659
 9733WAT     H229442   0.526   8.756   4.506
 9734WAT      O29443   3.023   3.818   7.058
 9734WAT     H129444   2.990   3.864   7.141
 9734WAT     H229445   3.011   3.879   6.980
 9735WAT      O29446   9.414   1.708   9.755
 9735WAT     H129447   9.514   1.704   9.753
 9735WAT     H229448   9.378   1.672   9.668
 9736WAT      O29449   8.951   4.223   3.256
 9736WAT     H129450   9.032   4.243   3.200
 9736WAT     H229451   8.949   4.284   3.334
 9737WAT      O29452   4.065   0.974   6.146
 9737WAT     H129453   4.061   0.908   6.222
 9737WAT     H229454   4.076   0.925   6.060
 9738WAT      O29455   4.690   5.257   0.103
 9738WAT     H129456   4.713   5.241   0.008
 9738WAT     H229457   4.591   5.274   0.111
 9739WAT      O29458   4.985   2.872   3.520
 9739WAT     H129459   4.902   2.923   3.543
 9739WAT     H229460   5.032   2.846   3.604
 9740WAT      O29461   0.414   3.929   8.096
 9740WAT     H129462   0.506   3.940   8.134
 9740WAT     H229463   0.385   3.834   8.107
 9741WAT      O29464   9.557   4.612   0.534
 9741WAT     H129465   9.458   4.613   0.547
 9741WAT     H229466   9.602   4.591   0.622
 9742WAT      O29467   8.654   6.449   7.946
 9742WAT     H129468   8.640   6.398   7.861
 9742WAT     H229469   8.622   6.543   7.934
 9743WAT      O29470   7.018   6.695   5.064
 9743WAT     H129471   7.092   6.632   5.040
 9743WAT     H229472   7.053   6.766   5.125
 9744WAT      O29473   3.603   7.704   9.076
 9744WAT     H129474   3.671   7.681   9.145
 9744WAT     H229475   3.519   7.733   9.120
 9745WAT      O29476   8.923   8.357   2.740
 9745WAT     H129477   8.992   8.335   2.672
 9745WAT     H229478   8.882   8.273   2.776
 9746WAT      O29479   4.493   4.085   9.496
 9746WAT     H129480   4.545   4.058   9.577
 9746WAT     H229481   4.447   4.173   9.513
 9747WAT      O29482   3.811   0.975   2.473
 9747WAT     H129483   3.882   1.045   2.470
 9747WAT     H229484   3.825   0.910   2.398
 9748WAT      O29485   2.622   8.283   2.798
 9748WAT     H129486   2.677   8.224   2.738
 9748WAT     H229487   2.593   8.230   2.878
 9749WAT      O29488   6.972   1.559   8.156
 9749WAT     H129489   7.048   1.554   8.220
 9749WAT     H229490   7.003   1.598   8.069
 9750WAT      O29491   4.662   6.409   1.073
 9750WAT     H129492   4.609   6.483   1.031
 9750WAT     H229493   4.718   6.364   1.004
 9751WAT      O29494   3.029   1.079   3.555
 9751WAT     H129495   3.044   1.150   3.624
 9751WAT     H229496   2.956   1.018   3.585
 9752WAT      O29497   7.718   7.189   9.060
 9752WAT     H129498   7.672   7.106   9.028
 9752WAT     H229499   7.808   7.164   9.098
 9753WAT      O29500   8.269   3.179   9.051
 9753WAT     H129501   8.318   3.110   9.104
 9753WAT     H229502   8.194   3.216   9.107
 9754WAT      O29503   9.240   8.645   6.382
 9754WAT     H129504   9.335   8.665   6.406
 9754WAT     H229505   9.179   8.682   6.452
 9755WAT      O29506   7.337   9.739   0.392
 9755WAT     H129507   7.300   9.691   0.471
 9755WAT     H229508   7.431   9.708   0.374
 9756WAT      O29509   7.211   0.865   6.736
 9756WAT     H129510   7.166   0.783   6.771
 9756WAT     H229511   7.142   0.933   6.711
 9757WAT      O29512   9.164   3.451   6.748
 9757WAT     H129513   9.264   3.450   6.745
 9757WAT     H229514   9.134   3.435   6.843
 9758WAT      O29515   1.426   5.114   7.059
 9758WAT     H129516   1.388   5.059   6.986
 9758WAT     H229517   1.430   5.060   7.143
 9759WAT      O29518   2.967   9.786   3.721
 9759WAT     H129519   3.049   9.745   3.681
 9759WAT     H229520   2.946   9.872   3.674
 9760WAT      O29521   0.712   1.120   5.615
 9760WAT     H129522   0.657   1.068   5.680
 9760WAT     H229523   0.788   1.164   5.663
 9761WAT      O29524   5.311   6.970   7.649
 9761WAT     H129525   5.234   6.957   7.713
 9761WAT     H229526   5.276   6.997   7.560
 9762WAT      O29527   4.595   4.968   6.629
 9762WAT     H129528   4.540   4.936   6.706
 9762WAT     H229529   4.595   4.899   6.556
 9763WAT      O29530   5.926   9.037   8.817
 9763WAT     H129531   6.007   9.001   8.771
 9763WAT     H229532   5.920   9.136   8.802
 9764WAT      O29533   5.921   8.514   5.590
 9764WAT     H129534   5.991   8.496   5.659
 9764WAT     H229535   5.836   8.467   5.615
 9765WAT      O29536   0.358   1.176   3.473
 9765WAT     H129537   0.276   1.189   3.416
 9765WAT     H229538   0.432   1.234   3.438
 9766WAT      O29539   9.405   3.464   0.282
 9766WAT     H129540   9.494   3.494   0.247
 9766WAT     H229541   9.407   3.461   0.382
 9767WAT      O29542   4.401   4.872   7.598
 9767WAT     H129543   4.442   4.807   7.662
 9767WAT     H229544   4.337   4.824   7.538
 9768WAT      O29545   7.264   1.396   0.231
 9768WAT     H129546   7.252   1.487   0.193
 9768WAT     H229547   7.362   1.378   0.243
 9769WAT      O29548   3.543   4.878   1.854
 9769WAT     H129549   3.630   4.830   1.845
 9769WAT     H229550   3.536   4.949   1.784
 9770WAT      O29551   8.407   8.851   9.575
 9770WAT     H129552   8.428   8.948   9.565
 9770WAT     H229553   8.424   8.804   9.488
 9771WAT      O29554   8.224   4.815   0.847
 9771WAT     H129555   8.301   4.874   0.871
 9771WAT     H229556   8.226   4.795   0.749
 9772WAT      O29557   4.758   3.574   6.098
 9772WAT     H129558   4.847   3.611   6.126
 9772WAT     H229559   4.714   3.638   6.035
 9773WAT      O29560   0.544   4.794   8.985
 9773WAT     H129561   0.459   4.838   9.014
 9773WAT     H229562   0.621   4.855   9.002
 9774WAT      O29563   3.357   6.771   6.897
 9774WAT     H129564   3.365   6.861   6.940
 9774WAT     H229565   3.445   6.724   6.903
 9775WAT      O29566   5.584   6.380   3.221
 9775WAT     H129567   5.533   6.325   3.156
 9775WAT     H229568   5.677   6.394   3.188
 9776WAT      O29569   2.724   7.930   5.420
 9776WAT     H129570   2.824   7.935   5.424
 9776WAT     H229571   2.695   7.834   5.421
 9777WAT      O29572   2.163   3.798   0.964
 9777WAT     H129573   2.121   3.823   0.877
 9777WAT     H229574   2.143   3.703   0.984
 9778WAT      O29575   7.364   8.287   9.583
 9778WAT     H129576   7.383   8.326   9.673
 9778WAT     H229577   7.361   8.360   9.515
 9779WAT      O29578   4.373   2.917   7.941
 9779WAT     H129579   4.437   2.895   7.868
 9779WAT     H229580   4.288   2.866   7.928
 9780WAT      O29581   4.627   8.596   5.482
 9780WAT     H129582   4.595   8.564   5.571
 9780WAT     H229583   4.617   8.695   5.477
 9781WAT      O29584   2.199   6.928   2.115
 9781WAT     H129585   2.227   7.003   2.175
 9781WAT     H229586   2.123   6.879   2.157
 9782WAT      O29587   2.497   0.533   3.207
 9782WAT     H129588   2.490   0.438   3.236
 9782WAT     H229589   2.519   0.591   3.286
 9783WAT      O29590   7.568   1.259   7.260
 9783WAT     H129591   7.468   1.265   7.257
 9783WAT     H229592   7.606   1.350   7.278
 9784WAT      O29593   9.358   4.381   2.895
 9784WAT     H129594   9.271   4.371   2.848
 9784WAT     H229595   9.377   4.478   2.911
 9785WAT      O29596   3.485   1.455   9.468
 9785WAT     H129597   3.582   1.460   9.492
 9785WAT     H229598   3.440   1.388   9.526
 9786WAT      O29599   8.491   6.341   2.231
 9786WAT     H129600   8.555   6.270   2.261
 9786WAT     H229601   8.409   6.337   2.289
 9787WAT      O29602   1.336   0.260   7.940
 9787WAT     H129603   1.319   0.174   7.892
 9787WAT     H229604   1.357   0.241   8.036
 9788WAT      O29605   4.847   2.544   7.653
 9788WAT     H129606   4.914   2.533   7.580
 9788WAT     H229607   4.863   2.476   7.724
 9789WAT      O29608   2.649   6.029   0.856
 9789WAT     H129609   2.667   6.077   0.942
 9789WAT     H229610   2.674   6.088   0.779
 9790WAT      O29611   1.180   6.041   3.591
 9790WAT     H129612   1.088   6.074   3.569
 9790WAT     H229613   1.178   5.992   3.678
 9791WAT      O29614   5.863   4.890   3.352
 9791WAT     H129615   5.852   4.943   3.268
 9791WAT     H229616   5.945   4.920   3.400
 9792WAT      O29617   5.014   3.268   2.736
 9792WAT     H129618   5.099   3.259   2.788
 9792WAT     H229619   4.947   3.320   2.789
 9793WAT      O29620   1.965   5.623   9.877
 9793WAT     H129621   1.963   5.712   9.832
 9793WAT     H229622   1.874   5.582   9.874
 9794WAT      O29623   6.794   8.015   0.446
 9794WAT     H129624   6.841   8.041   0.531
 9794WAT     H229625   6.862   7.992   0.376
 9795WAT      O29626   3.858   6.867   8.879
 9795WAT     H129627   3.778   6.927   8.874
 9795WAT     H229628   3.844   6.788   8.819
 9796WAT      O29629   7.555   4.540   7.558
 9796WAT     H129630   7.607   4.625   7.557
 9796WAT     H229631   7.519   4.522   7.466
 9797WAT      O29632   8.793   3.732   0.242
 9797WAT     H129633   8.822   3.747   0.148
 9797WAT     H229634   8.843   3.653   0.280
 9798WAT      O29635   3.640   3.869   6.986
 9798WAT     H129636   3.589   3.795   7.031
 9798WAT     H229637   3.735   3.866   7.014
 9799WAT      O29638   5.550   8.547   5.670
 9799WAT     H129639   5.626   8.501   5.717
 9799WAT     H229640   5.490   8.589   5.738
 9800WAT      O29641   5.491   0.259   2.147
 9800WAT     H129642   5.565   0.296   2.204
 9800WAT     H229643   5.502   0.160   2.139
 9801WAT      O29644   5.800   5.391   6.765
 9801WAT     H129645   5.706   5.356   6.763
 9801WAT     H229646   5.854   5.336   6.829
 9802WAT      O29647   0.623   6.460   2.657
 9802WAT     H129648   0.537   6.420   2.623
 9802WAT     H229649   0.614   6.478   2.755
 9803WAT      O29650   8.868   3.358   9.380
 9803WAT     H129651   8.814   3.274   9.381
 9803WAT     H229652   8.848   3.410   9.297
 9804WAT      O29653   4.747   5.121   1.865
 9804WAT     H129654   4.670   5.064   1.893
 9804WAT     H229655   4.824   5.063   1.838
 9805WAT      O29656   2.427   3.702   0.512
 9805WAT     H129657   2.493   3.628   0.498
 9805WAT     H229658   2.447   3.776   0.448
 9806WAT      O29659   6.947   9.707   2.560
 9806WAT     H129660   7.043   9.706   2.588
 9806WAT     H229661   6.889   9.725   2.639
 9807WAT      O29662   8.674   8.165   9.636
 9807WAT     H129663   8.693   8.158   9.734
 9807WAT     H229664   8.586   8.123   9.616
 9808WAT      O29665   5.578   3.898   6.719
 9808WAT     H129666   5.611   3.900   6.814
 9808WAT     H229667   5.610   3.980   6.671
 9809WAT      O29668   5.305   5.499   0.621
 9809WAT     H129669   5.374   5.533   0.558
 9809WAT     H229670   5.347   5.437   0.687
 9810WAT      O29671   0.771   6.399   4.885
 9810WAT     H129672   0.723   6.346   4.955
 9810WAT     H229673   0.822   6.474   4.929
 9811WAT      O29674   8.172   6.937   1.872
 9811WAT     H129675   8.227   6.853   1.875
 9811WAT     H229676   8.145   6.956   1.777
 9812WAT      O29677   6.835   4.820   5.808
 9812WAT     H129678   6.736   4.807   5.802
 9812WAT     H229679   6.856   4.918   5.798
 9813WAT      O29680   5.918   5.858   0.306
 9813WAT     H129681   6.012   5.856   0.273
 9813WAT     H229682   5.858   5.816   0.238
 9814WAT      O29683   2.523   0.301   8.066
 9814WAT     H129684   2.455   0.237   8.101
 9814WAT     H229685   2.479   0.368   8.007
 9815WAT      O29686   3.212   7.059   4.341
 9815WAT     H129687   3.123   7.028   4.309
 9815WAT     H229688   3.237   7.144   4.295
 9816WAT      O29689   2.954   4.039   4.615
 9816WAT     H129690   2.870   4.080   4.582
 9816WAT     H229691   2.949   3.939   4.605
 9817WAT      O29692   0.861   0.335   6.530
 9817WAT     H129693   0.814   0.409   6.482
 9817WAT     H229694   0.888   0.264   6.465
 9818WAT      O29695   9.295   6.967   5.332
 9818WAT     H129696   9.196   6.979   5.342
 9818WAT     H229697   9.332   6.924   5.415
 9819WAT      O29698   9.363   6.969   9.375
 9819WAT     H129699   9.331   6.875   9.368
 9819WAT     H229700   9.404   6.997   9.288
 9820WAT      O29701   5.611   8.118   2.884
 9820WAT     H129702   5.535   8.090   2.942
 9820WAT     H229703   5.577   8.175   2.809
 9821WAT      O29704   7.293   0.207   1.844
 9821WAT     H129705   7.348   0.128   1.815
 9821WAT     H229706   7.198   0.192   1.818
 9822WAT      O29707   0.427   0.702   6.997
 9822WAT     H129708   0.404   0.672   6.904
 9822WAT     H229709   0.448   0.800   6.996
 9823WAT      O29710   2.484   4.645   5.844
 9823WAT     H129711   2.447   4.556   5.872
 9823WAT     H229712   2.548   4.677   5.914
 9824WAT      O29713   7.802   5.771   6.290
 9824WAT     H129714   7.817   5.832   6.212
 9824WAT     H229715   7.706   5.774   6.317
 9825WAT      O29716   7.151   6.283   0.263
 9825WAT     H129717   7.073   6.319   0.315
 9825WAT     H229718   7.169   6.341   0.185
 9826WAT      O29719   8.850   6.853   4.477
 9826WAT     H129720   8.907   6.826   4.399
 9826WAT     H229721   8.792   6.777   4.505
 9827WAT      O29722   6.267   8.306   4.072
 9827WAT     H129723   6.337   8.349   4.014
 9827WAT     H229724   6.312   8.258   4.148
 9828WAT      O29725   9.421   3.371   6.718
 9828WAT     H129726   9.456   3.366   6.624
 9828WAT     H229727   9.414   3.278   6.755
 9829WAT      O29728   6.847   6.602   3.019
 9829WAT     H129729   6.779   6.657   3.067
 9829WAT     H229730   6.811   6.574   2.930
 9830WAT      O29731   0.325   8.162   8.957
 9830WAT     H129732   0.416   8.122   8.969
 9830WAT     H229733   0.270   8.102   8.900
 9831WAT      O29734   0.150   4.430   2.473
 9831WAT     H129735   0.237   4.382   2.482
 9831WAT     H229736   0.088   4.399   2.545
 9832WAT      O29737   6.700   5.087   2.695
 9832WAT     H129738   6.744   5.165   2.740
 9832WAT     H229739   6.604   5.109   2.676
 9833WAT      O29740   3.461   3.862   2.141
 9833WAT     H129741   3.500   3.947   2.177
 9833WAT     H229742   3.533   3.794   2.130
 9834WAT      O29743   8.056   5.289   1.945
 9834WAT     H129744   7.997   5.362   1.980
 9834WAT     H229745   8.142   5.328   1.913
 9835WAT      O29746   4.319   1.489   5.671
 9835WAT     H129747   4.334   1.417   5.603
 9835WAT     H229748   4.312   1.577   5.626
 9836WAT      O29749   7.095   2.155   7.163
 9836WAT     H129750   7.128   2.193   7.249
 9836WAT     H229751   7.151   2.077   7.137
 9837WAT      O29752   4.734   9.708   3.216
 9837WAT     H129753   4.816   9.756   3.247
 9837WAT     H229754   4.733   9.616   3.257
 9838WAT      O29755   7.257   3.958   1.968
 9838WAT     H129756   7.170   4.006   1.983
 9838WAT     H229757   7.294   3.929   2.057
 9839WAT      O29758   6.024   6.281   7.369
 9839WAT     H129759   5.938   6.282   7.421
 9839WAT     H229760   6.027   6.361   7.309
 9840WAT      O29761   1.279   1.878   8.574
 9840WAT     H129762   1.306   1.875   8.671
 9840WAT     H229763   1.345   1.934   8.524
 9841WAT      O29764   1.326   7.999   1.190
 9841WAT     H129765   1.396   8.003   1.262
 9841WAT     H229766   1.262   8.076   1.201
 9842WAT      O29767   7.749   5.284   7.516
 9842WAT     H129768   7.731   5.342   7.436
 9842WAT     H229769   7.820   5.218   7.493
 9843WAT      O29770   8.629   6.873   1.003
 9843WAT     H129771   8.657   6.899   1.095
 9843WAT     H229772   8.691   6.914   0.936
 9844WAT      O29773   8.105   5.057   2.907
 9844WAT     H129774   8.189   5.012   2.875
 9844WAT     H229775   8.026   5.005   2.877
 9845WAT      O29776   5.662   9.033   8.785
 9845WAT     H129777   5.757   9.007   8.804
 9845WAT     H229778   5.630   9.098   8.854
 9846WAT      O29779   8.819   6.559   8.282
 9846WAT     H129780   8.788   6.543   8.188
 9846WAT     H229781   8.776   6.493   8.343
 9847WAT      O29782   2.774   3.699   1.177
 9847WAT     H129783   2.812   3.606   1.169
 9847WAT     H229784   2.838   3.764   1.138
 9848WAT      O29785   8.109   0.331   9.588
 9848WAT     H129786   8.093   0.245   9.635
 9848WAT     H229787   8.154   0.395   9.651
 9849WAT      O29788   7.380   5.826   8.174
 9849WAT     H129789   7.288   5.859   8.155
 9849WAT     H229790   7.404   5.754   8.109
 9850WAT      O29791   4.636   0.180   4.428
 9850WAT     H129792   4.733   0.153   4.423
 9850WAT     H229793   4.579   0.105   4.396
 9851WAT      O29794   7.419   8.688   0.220
 9851WAT     H129795   7.492   8.675   0.153
 9851WAT     H229796   7.452   8.661   0.310
 9852WAT      O29797   9.136   6.932   7.450
 9852WAT     H129798   9.160   6.835   7.459
 9852WAT     H229799   9.081   6.945   7.367
 9853WAT      O29800   5.494   3.318   8.566
 9853WAT     H129801   5.528   3.400   8.612
 9853WAT     H229802   5.461   3.253   8.635
 9854WAT      O29803   2.938   5.146   3.770
 9854WAT     H129804   2.863   5.153   3.704
 9854WAT     H229805   2.945   5.232   3.820
 9855WAT      O29806   4.788   5.989   5.003
 9855WAT     H129807   4.740   6.077   5.007
 9855WAT     H229808   4.759   5.932   5.080
 9856WAT      O29809   7.643   2.228   9.083
 9856WAT     H129810   7.559   2.272   9.114
 9856WAT     H229811   7.629   2.130   9.077
 9857WAT      O29812   7.102   6.727   3.517
 9857WAT     H129813   7.176   6.694   3.576
 9857WAT     H229814   7.015   6.699   3.555
 9858WAT      O29815   2.891   2.059   7.487
 9858WAT     H129816   2.955   2.093   7.418
 9858WAT     H229817   2.928   1.977   7.530
 9859WAT      O29818   4.380   0.242   1.208
 9859WAT     H129819   4.300   0.267   1.263
 9859WAT     H229820   4.417   0.324   1.164
 9860WAT      O29821   7.442   9.383   4.200
 9860WAT     H129822   7.354   9.423   4.227
 9860WAT     H229823   7.478   9.329   4.276
 9861WAT      O29824   2.955   3.416   5.115
 9861WAT     H129825   3.022   3.438   5.044
 9861WAT     H229826   2.915   3.500   5.151
 9862WAT      O29827   8.625   8.902   6.598
 9862WAT     H129828   8.561   8.951   6.657
 9862WAT     H229829   8.716   8.941   6.607
 9863WAT      O29830   0.846   8.846   0.551
 9863WAT     H129831   0.824   8.849   0.454
 9863WAT     H229832   0.942   8.821   0.563
 9864WAT      O29833   3.250   0.643   8.537
 9864WAT     H129834   3.279   0.710   8.468
 9864WAT     H229835   3.270   0.551   8.505
 9865WAT      O29836   9.390   5.414   4.915
 9865WAT     H129837   9.386   5.317   4.893
 9865WAT     H229838   9.351   5.467   4.840
 9866WAT      O29839   0.690   5.949   7.012
 9866WAT     H129840   0.624   6.016   7.047
 9866WAT     H229841   0.782   5.976   7.041
 9867WAT      O29842   0.056   6.034   4.721
 9867WAT     H129843   0.064   6.038   4.821
 9867WAT     H229844   0.139   5.992   4.683
 9868WAT      O29845   2.338   0.276   7.165
 9868WAT     H129846   2.380   0.354   7.212
 9868WAT     H229847   2.337   0.197   7.226
 9869WAT      O29848   3.357   5.107   8.378
 9869WAT     H129849   3.270   5.078   8.418
 9869WAT     H229850   3.432   5.080   8.439
 9870WAT      O29851   6.887   5.446   6.063
 9870WAT     H129852   6.814   5.482   6.122
 9870WAT     H229853   6.971   5.498   6.079
 9871WAT      O29854   4.510   6.069   4.606
 9871WAT     H129855   4.529   5.982   4.650
 9871WAT     H229856   4.492   6.139   4.675
 9872WAT      O29857   9.423   1.472   0.337
 9872WAT     H129858   9.398   1.506   0.246
 9872WAT     H229859   9.503   1.412   0.329
 9873WAT      O29860   7.354   7.296   4.165
 9873WAT     H129861   7.428   7.363   4.158
 9873WAT     H229862   7.266   7.344   4.163
 9874WAT      O29863   6.695   6.031   9.198
 9874WAT     H129864   6.656   6.029   9.290
 9874WAT     H229865   6.793   6.054   9.203
 9875WAT      O29866   2.303   2.976   9.604
 9875WAT     H129867   2.305   3.075   9.621
 9875WAT     H229868   2.259   2.930   9.681
 9876WAT      O29869   7.790   4.236   3.130
 9876WAT     H129870   7.808   4.330   3.100
 9876WAT     H229871   7.833   4.173   3.066
 9877WAT      O29872   2.468   4.305   1.163
 9877WAT     H129873   2.522   4.268   1.240
 9877WAT     H229874   2.375   4.271   1.169
 9878WAT      O29875   4.664   8.575   6.960
 9878WAT     H129876   4.620   8.653   6.915
 9878WAT     H229877   4.742   8.545   6.904
 9879WAT      O29878   8.007   8.536   4.085
 9879WAT     H129879   8.028   8.439   4.095
 9879WAT     H229880   8.087   8.590   4.111
 9880WAT      O29881   2.356   5.458   1.523
 9880WAT     H129882   2.353   5.487   1.618
 9880WAT     H229883   2.354   5.358   1.517
 9881WAT      O29884   0.331   6.774   8.249
 9881WAT     H129885   0.429   6.753   8.241
 9881WAT     H229886   0.286   6.752   8.162
 9882WAT      O29887   2.312   4.164   5.367
 9882WAT     H129888   2.351   4.256   5.370
 9882WAT     H229889   2.379   4.099   5.403
 9883WAT      O29890   5.447   5.689   1.041
 9883WAT     H129891   5.530   5.715   0.992
 9883WAT     H229892   5.465   5.606   1.094
 9884WAT      O29893   3.207   7.074   5.020
 9884WAT     H129894   3.284   7.068   5.083
 9884WAT     H229895   3.146   6.996   5.036
 9885WAT      O29896   0.634   7.467   1.085
 9885WAT     H129897   0.685   7.480   1.001
 9885WAT     H229898   0.637   7.551   1.140
 9886WAT      O29899   9.664   4.963   6.735
 9886WAT     H129900   9.677   4.951   6.636
 9886WAT     H229901   9.581   4.914   6.763
 9887WAT      O29902   6.166   3.199   4.632
 9887WAT     H129903   6.089   3.212   4.569
 9887WAT     H229904   6.137   3.144   4.710
 9888WAT      O29905   1.983   8.276   7.499
 9888WAT     H129906   2.082   8.291   7.496
 9888WAT     H229907   1.943   8.293   7.409
 9889WAT      O29908   2.468   7.269   6.930
 9889WAT     H129909   2.481   7.343   6.864
 9889WAT     H229910   2.464   7.182   6.880
 9890WAT      O29911   5.875   8.156   0.276
 9890WAT     H129912   5.950   8.135   0.339
 9890WAT     H229913   5.790   8.165   0.327
 9891WAT      O29914   0.165   8.780   6.974
 9891WAT     H129915   0.204   8.706   7.029
 9891WAT     H229916   0.177   8.867   7.021
 9892WAT      O29917   5.160   8.702   9.860
 9892WAT     H129918   5.114   8.765   9.797
 9892WAT     H229919   5.237   8.748   9.903
 9893WAT      O29920   4.388   9.009   7.759
 9893WAT     H129921   4.418   9.075   7.827
 9893WAT     H229922   4.431   9.030   7.671
 9894WAT      O29923   1.471   0.162   8.202
 9894WAT     H129924   1.567   0.140   8.186
 9894WAT     H229925   1.426   0.085   8.249
 9895WAT      O29926   7.102   3.411   5.049
 9895WAT     H129927   7.163   3.339   5.082
 9895WAT     H229928   7.146   3.460   4.974
 9896WAT      O29929   6.733   2.013   3.665
 9896WAT     H129930   6.777   2.001   3.576
 9896WAT     H229931   6.792   1.977   3.737
 9897WAT      O29932   8.762   8.262   8.463
 9897WAT     H129933   8.678   8.211   8.479
 9897WAT     H229934   8.837   8.199   8.442
 9898WAT      O29935   4.151   5.629   4.711
 9898WAT     H129936   4.187   5.536   4.711
 9898WAT     H229937   4.222   5.692   4.681
 9899WAT      O29938   3.821   0.682   4.989
 9899WAT     H129939   3.896   0.729   5.036
 9899WAT     H229940   3.845   0.586   4.975
 9900WAT      O29941   7.068   4.459   9.240
 9900WAT     H129942   7.022   4.417   9.162
 9900WAT     H229943   7.029   4.550   9.257
 9901WAT      O29944   5.749   2.115   6.436
 9901WAT     H129945   5.724   2.072   6.349
 9901WAT     H229946   5.666   2.146   6.483
 9902WAT      O29947   3.695   5.514   5.715
 9902WAT     H129948   3.770   5.581   5.719
 9902WAT     H229949   3.695   5.469   5.626
 9903WAT      O29950   6.750   0.429   0.815
 9903WAT     H129951   6.746   0.411   0.717
 9903WAT     H229952   6.776   0.524   0.831
 9904WAT      O29953   3.800   4.943   8.794
 9904WAT     H129954   3.785   4.845   8.798
 9904WAT     H229955   3.831   4.969   8.702
 9905WAT      O29956   5.156   5.646   7.314
 9905WAT     H129957   5.246   5.669   7.351
 9905WAT     H229958   5.147   5.682   7.222
 9906WAT      O29959   4.684   4.597   0.005
 9906WAT     H129960   4.705   4.691   0.028
 9906WAT     H229961   4.646   4.593  -0.088
 9907WAT      O29962   4.121   3.669   2.717
 9907WAT     H129963   4.179   3.749   2.699
 9907WAT     H229964   4.027   3.698   2.732
 9908WAT      O29965   8.138   5.509   9.620
 9908WAT     H129966   8.129   5.545   9.527
 9908WAT     H229967   8.174   5.580   9.680
 9909WAT      O29968   4.732   6.386   1.779
 9909WAT     H129969   4.713   6.289   1.797
 9909WAT     H229970   4.819   6.411   1.822
 9910WAT      O29971   3.781   3.244   4.193
 9910WAT     H129972   3.754   3.338   4.173
 9910WAT     H229973   3.751   3.220   4.285
 9911WAT      O29974   2.067   0.442   6.389
 9911WAT     H129975   2.112   0.373   6.446
 9911WAT     H229976   2.127   0.521   6.379
 9912WAT      O29977   4.006   8.518   2.778
 9912WAT     H129978   4.082   8.454   2.784
 9912WAT     H229979   3.923   8.476   2.816
 9913WAT      O29980   5.740   8.820   4.869
 9913WAT     H129981   5.719   8.765   4.788
 9913WAT     H229982   5.791   8.765   4.934
 9914WAT      O29983   4.535   6.667   7.100
 9914WAT     H129984   4.465   6.597   7.084
 9914WAT     H229985   4.597   6.670   7.021
 9915WAT      O29986   9.332   7.352   6.021
 9915WAT     H129987   9.316   7.438   5.973
 9915WAT     H229988   9.336   7.369   6.120
 9916WAT      O29989   0.244   3.183   7.634
 9916WAT     H129990   0.319   3.128   7.599
 9916WAT     H229991   0.252   3.191   7.734
 9917WAT      O29992   6.579   1.829   7.223
 9917WAT     H129993   6.665   1.834   7.172
 9917WAT     H229994   6.503   1.852   7.163
 9918WAT      O29995   6.742   2.171   1.602
 9918WAT     H129996   6.743   2.202   1.507
 9918WAT     H229997   6.651   2.184   1.641
 9919WAT      O29998   0.155   4.798   2.696
 9919WAT     H129999   0.234   4.854   2.719
 9919WAT     H230000   0.125   4.818   2.603
 9920WAT      O30001   7.761   2.862   1.811
 9920WAT     H130002   7.764   2.769   1.775
 9920WAT     H230003   7.797   2.862   1.904
 9921WAT      O30004   5.360   3.909   3.345
 9921WAT     H130005   5.436   3.903   3.281
 9921WAT     H230006   5.321   4.000   3.343
 9922WAT      O30007   4.029   1.522   6.630
 9922WAT     H130008   3.938   1.563   6.624
 9922WAT     H230009   4.068   1.539   6.721
 9923WAT      O30010   6.591   8.926   7.264
 9923WAT     H130011   6.553   9.018   7.251
 9923WAT     H230012   6.684   8.934   7.300
 9924WAT      O30013   1.440   3.901   6.624
 9924WAT     H130014   1.535   3.897   6.654
 9924WAT     H230015   1.396   3.982   6.664
 9925WAT      O30016   0.073   0.775   6.858
 9925WAT     H130017   0.113   0.867   6.853
 9925WAT     H230018   0.094   0.725   6.774
 9926WAT      O30019   8.472   1.850   3.784
 9926WAT     H130020   8.378   1.879   3.800
 9926WAT     H230021   8.480   1.752   3.805
 9927WAT      O30022   3.305   3.097   8.726
 9927WAT     H130023   3.237   3.170   8.722
 9927WAT     H230024   3.374   3.118   8.795
 9928WAT      O30025   1.682   2.965   6.904
 9928WAT     H130026   1.727   3.047   6.940
 9928WAT     H230027   1.640   2.915   6.980
 9929WAT      O30028   0.531   3.454   9.572
 9929WAT     H130029   0.603   3.505   9.621
 9929WAT     H230030   0.483   3.516   9.510
 9930WAT      O30031   4.137   4.981   0.499
 9930WAT     H130032   4.048   4.955   0.536
 9930WAT     H230033   4.125   5.022   0.408
 9931WAT      O30034   8.199   5.452   2.656
 9931WAT     H130035   8.232   5.469   2.749
 9931WAT     H230036   8.267   5.398   2.606
 9932WAT      O30037   9.817   0.395   9.779
 9932WAT     H130038   9.768   0.401   9.866
 9932WAT     H230039   9.902   0.447   9.785
 9933WAT      O30040   7.656   2.120   6.070
 9933WAT     H130041   7.587   2.189   6.094
 9933WAT     H230042   7.714   2.103   6.150
 9934WAT      O30043   5.801   1.340   4.997
 9934WAT     H130044   5.738   1.416   4.978
 9934WAT     H230045   5.895   1.372   4.991
 9935WAT      O30046   1.100   9.262   9.362
 9935WAT     H130047   1.095   9.176   9.412
 9935WAT     H230048   1.138   9.245   9.271
 9936WAT      O30049   4.752   3.460   7.744
 9936WAT     H130050   4.684   3.533   7.748
 9936WAT     H230051   4.722   3.390   7.680
 9937WAT      O30052   0.708   2.150   0.704
 9937WAT     H130053   0.696   2.221   0.773
 9937WAT     H230054   0.619   2.127   0.664
 9938WAT      O30055   2.405   9.571   3.149
 9938WAT     H130056   2.332   9.552   3.085
 9938WAT     H230057   2.380   9.536   3.240
 9939WAT      O30058   5.618   5.023   9.437
 9939WAT     H130059   5.662   5.020   9.526
 9939WAT     H230060   5.610   4.930   9.400
 9940WAT      O30061   2.678   2.603   1.144
 9940WAT     H130062   2.647   2.695   1.169
 9940WAT     H230063   2.712   2.556   1.225
 9941WAT      O30064   2.766   5.872   7.313
 9941WAT     H130065   2.783   5.781   7.273
 9941WAT     H230066   2.697   5.919   7.258
 9942WAT      O30067   2.672   0.123   9.615
 9942WAT     H130068   2.592   0.180   9.599
 9942WAT     H230069   2.644   0.027   9.615
 9943WAT      O30070   1.123   0.991   3.103
 9943WAT     H130071   1.092   1.067   3.047
 9943WAT     H230072   1.218   1.005   3.129
 9944WAT      O30073   1.528   1.883   7.248
 9944WAT     H130074   1.452   1.948   7.247
 9944WAT     H230075   1.510   1.811   7.315
 9945WAT      O30076   7.097   6.375   6.531
 9945WAT     H130077   7.184   6.327   6.527
 9945WAT     H230078   7.110   6.465   6.574
 9946WAT      O30079   6.998   3.083   8.064
 9946WAT     H130080   6.921   3.037   8.109
 9946WAT     H230081   6.964   3.158   8.009
 9947WAT      O30082   8.890   1.287   7.976
 9947WAT     H130083   8.962   1.280   7.908
 9947WAT     H230084   8.879   1.199   8.022
 9948WAT      O30085   0.039   2.963   3.870
 9948WAT     H130086  -0.016   2.913   3.937
 9948WAT     H230087  -0.018   3.030   3.823
 9949WAT      O30088   7.180   8.382   2.772
 9949WAT     H130089   7.142   8.474   2.760
 9949WAT     H230090   7.269   8.377   2.727
 9950WAT      O30091   3.982   6.325   6.150
 9950WAT     H130092   3.951   6.235   6.181
 9950WAT     H230093   3.972   6.331   6.050
 9951WAT      O30094   4.666   8.401   9.336
 9951WAT     H130095   4.758   8.416   9.300
 9951WAT     H230096   4.598   8.425   9.266
 9952WAT      O30097   3.872   3.361   9.372
 9952WAT     H130098   3.785   3.353   9.323
 9952WAT     H230099   3.895   3.458   9.382
 9953WAT      O30100   5.546   1.639   7.032
 9953WAT     H130101   5.511   1.722   7.074
 9953WAT     H230102   5.542   1.563   7.097
 9954WAT      O30103   6.204   3.110   3.923
 9954WAT     H130104   6.138   3.074   3.857
 9954WAT     H230105   6.168   3.099   4.015
 9955WAT      O30106   2.901   6.853   3.708
 9955WAT     H130107   2.872   6.928   3.767
 9955WAT     H230108   2.856   6.768   3.738
 9956WAT      O30109   0.894   3.931   7.518
 9956WAT     H130110   0.906   3.832   7.526
 9956WAT     H230111   0.959   3.978   7.579
 9957WAT      O30112   2.734   4.007   3.565
 9957WAT     H130113   2.762   4.073   3.496
 9957WAT     H230114   2.777   4.029   3.652
 9958WAT      O30115   8.257   4.329   1.723
 9958WAT     H130116   8.338   4.275   1.700
 9958WAT     H230117   8.219   4.369   1.640
 9959WAT      O30118   1.917   5.380   2.358
 9959WAT     H130119   1.942   5.442   2.284
 9959WAT     H230120   1.999   5.353   2.408
 9960WAT      O30121   4.573   5.612   3.745
 9960WAT     H130122   4.636   5.543   3.710
 9960WAT     H230123   4.489   5.567   3.778
 9961WAT      O30124   7.810   7.262   3.125
 9961WAT     H130125   7.898   7.309   3.115
 9961WAT     H230126   7.795   7.202   3.047
 9962WAT      O30127   6.042   8.672   3.038
 9962WAT     H130128   6.027   8.693   2.941
 9962WAT     H230129   6.057   8.574   3.049
 9963WAT      O30130   3.218   7.555   3.248
 9963WAT     H130131   3.190   7.506   3.166
 9963WAT     H230132   3.189   7.505   3.329
 9964WAT      O30133   7.687   2.656   9.326
 9964WAT     H130134   7.768   2.610   9.290
 9964WAT     H230135   7.667   2.623   9.418
 9965WAT      O30136   6.797   8.979   7.051
 9965WAT     H130137   6.708   8.976   7.096
 9965WAT     H230138   6.804   9.062   6.997
 9966WAT      O30139   2.135   1.060   8.249
 9966WAT     H130140   2.103   0.967   8.266
 9966WAT     H230141   2.132   1.113   8.334
 9967WAT      O30142   7.894   9.212   5.640
 9967WAT     H130143   7.890   9.300   5.593
 9967WAT     H230144   7.892   9.138   5.572
 9968WAT      O30145   5.457   4.220   1.447
 9968WAT     H130146   5.506   4.256   1.368
 9968WAT     H230147   5.483   4.124   1.462
 9969WAT      O30148   8.098   9.425   3.321
 9969WAT     H130149   8.100   9.340   3.372
 9969WAT     H230150   8.131   9.409   3.228
 9970WAT      O30151   5.646   1.298   9.275
 9970WAT     H130152   5.586   1.301   9.195
 9970WAT     H230153   5.646   1.387   9.320
 9971WAT      O30154   2.198   2.709   1.750
 9971WAT     H130155   2.170   2.748   1.838
 9971WAT     H230156   2.128   2.729   1.681
 9972WAT      O30157   0.843   1.119   6.804
 9972WAT     H130158   0.896   1.036   6.785
 9972WAT     H230159   0.746   1.099   6.795
 9973WAT      O30160   3.996   0.449   3.399
 9973WAT     H130161   4.044   0.421   3.316
 9973WAT     H230162   3.900   0.423   3.392
 9974WAT      O30163   7.916   0.250   4.144
 9974WAT     H130164   7.874   0.204   4.222
 9974WAT     H230165   7.934   0.183   4.072
 9975WAT      O30166   9.791   6.536   8.789
 9975WAT     H130167   9.767   6.586   8.873
 9975WAT     H230168   9.740   6.450   8.785
 9976WAT      O30169   9.844   0.292   5.831
 9976WAT     H130170   9.942   0.303   5.811
 9976WAT     H230171   9.833   0.243   5.918
 9977WAT      O30172   4.984   5.857   1.288
 9977WAT     H130173   5.081   5.835   1.275
 9977WAT     H230174   4.954   5.823   1.377
 9978WAT      O30175   1.384   1.271   6.946
 9978WAT     H130176   1.409   1.216   7.025
 9978WAT     H230177   1.459   1.332   6.922
 9979WAT      O30178   5.618   1.031   1.538
 9979WAT     H130179   5.699   0.994   1.492
 9979WAT     H230180   5.615   0.998   1.632
 9980WAT      O30181   5.821   7.411   2.240
 9980WAT     H130182   5.856   7.320   2.264
 9980WAT     H230183   5.767   7.405   2.156
 9981WAT      O30184   6.966   6.222   3.933
 9981WAT     H130185   6.933   6.135   3.969
 9981WAT     H230186   6.958   6.222   3.833
 9982WAT      O30187   6.976   7.691   3.121
 9982WAT     H130188   6.997   7.593   3.127
 9982WAT     H230189   6.878   7.705   3.134
 9983WAT      O30190   0.970   2.973   5.096
 9983WAT     H130191   0.920   3.000   5.179
 9983WAT     H230192   0.948   3.036   5.022
 9984WAT      O30193   9.562   2.610   5.585
 9984WAT     H130194   9.482   2.616   5.644
 9984WAT     H230195   9.618   2.532   5.614
 9985WAT      O30196   4.819   4.608   3.992
 9985WAT     H130197   4.807   4.699   4.031
 9985WAT     H230198   4.811   4.539   4.063
 9986WAT      O30199   1.241   5.124   5.452
 9986WAT     H130200   1.200   5.076   5.530
 9986WAT     H230201   1.304   5.062   5.405
 9987WAT      O30202   9.756   1.654   0.101
 9987WAT     H130203   9.831   1.590   0.083
 9987WAT     H230204   9.778   1.742   0.059
 9988WAT      O30205   5.293   5.862   6.513
 9988WAT     H130206   5.379   5.832   6.553
 9988WAT     H230207   5.229   5.886   6.586
 9989WAT      O30208   2.654   9.192   9.751
 9989WAT     H130209   2.746   9.166   9.720
 9989WAT     H230210   2.586   9.161   9.684
 9990WAT      O30211   8.994   1.205   5.308
 9990WAT     H130212   9.009   1.299   5.277
 9990WAT     H230213   8.919   1.204   5.374
 9991WAT      O30214   8.706   3.510   8.163
 9991WAT     H130215   8.671   3.422   8.194
 9991WAT     H230216   8.658   3.538   8.080
 9992WAT      O30217   4.237   6.701   7.816
 9992WAT     H130218   4.332   6.717   7.789
 9992WAT     H230219   4.177   6.759   7.761
 9993WAT      O30220   0.296   7.270   3.046
 9993WAT     H130221   0.224   7.339   3.041
 9993WAT     H230222   0.259   7.182   3.017
 9994WAT      O30223   4.813   7.645   8.984
 9994WAT     H130224   4.833   7.640   8.886
 9994WAT     H230225   4.724   7.604   9.002
 9995WAT      O30226   2.281   0.872   4.036
 9995WAT     H130227   2.324   0.960   4.015
 9995WAT     H230228   2.209   0.885   4.104
 9996WAT      O30229   8.871   3.314   5.322
 9996WAT     H130230   8.804   3.277   5.257
 9996WAT     H230231   8.953   3.343   5.272
 9997WAT      O30232   9.226   4.638   8.463
 9997WAT     H130233   9.139   4.648   8.511
 9997WAT     H230234   9.237   4.713   8.398
 9998WAT      O30235   9.055   7.191   8.428
 9998WAT     H130236   9.130   7.230   8.375
 9998WAT     H230237   9.092   7.125   8.494
 9999WAT      O30238   2.168   7.742   8.328
 9999WAT     H130239   2.264   7.723   8.313
 9999WAT     H230240   2.125   7.768   8.242
10000WAT      O30241   0.637   4.459   1.432
10000WAT     H130242   0.710   4.522   1.406
10000WAT     H230243   0.553   4.511   1.450
10001WAT      O30244   3.381   5.024   6.218
10001WAT     H130245   3.460   4.972   6.251
10001WAT     H230246   3.335   5.068   6.295
10002WAT      O30247   3.467   1.407   5.850
10002WAT     H130248   3.369   1.410   5.830
10002WAT     H230249   3.480   1.396   5.948
10003WAT      O30250   2.278   9.264   9.413
10003WAT     H130251   2.265   9.330   9.339
10003WAT     H230252   2.189   9.228   9.442
10004WAT      O30253   8.475   6.809   3.924
10004WAT     H130254   8.482   6.894   3.977
10004WAT     H230255   8.379   6.786   3.912
10005WAT      O30256   0.689   5.772   2.779
10005WAT     H130257   0.720   5.677   2.782
10005WAT     H230258   0.753   5.826   2.724
10006WAT      O30259   0.602   7.363   7.960
10006WAT     H130260   0.612   7.452   7.916
10006WAT     H230261   0.615   7.373   8.059
10007WAT      O30262   6.386   6.567   4.960
10007WAT     H130263   6.378   6.573   4.860
10007WAT     H230264   6.325   6.633   5.003
10008WAT      O30265   3.005   6.820   5.736
10008WAT     H130266   2.985   6.848   5.830
10008WAT     H230267   3.082   6.756   5.736
10009WAT      O30268   4.297   4.557   3.728
10009WAT     H130269   4.239   4.565   3.647
10009WAT     H230270   4.313   4.460   3.747
10010WAT      O30271   7.747   5.152   6.765
10010WAT     H130272   7.803   5.134   6.846
10010WAT     H230273   7.657   5.185   6.794
10011WAT      O30274   8.513   6.241   9.146
10011WAT     H130275   8.580   6.210   9.213
10011WAT     H230276   8.436   6.285   9.193
10012WAT      O30277   7.959   1.953   8.819
10012WAT     H130278   8.013   1.925   8.898
10012WAT     H230279   8.019   1.962   8.740
10013WAT      O30280   6.482   5.279   4.553
10013WAT     H130281   6.431   5.196   4.577
10013WAT     H230282   6.568   5.255   4.508
10014WAT      O30283   2.175   0.093   5.767
10014WAT     H130284   2.149  -0.000   5.742
10014WAT     H230285   2.271   0.095   5.797
10015WAT      O30286   7.971   1.366   9.653
10015WAT     H130287   8.048   1.429   9.664
10015WAT     H230288   7.924   1.387   9.567
10016WAT      O30289   4.214   6.909   0.426
10016WAT     H130290   4.194   7.006   0.442
10016WAT     H230291   4.230   6.864   0.514
10017WAT      O30292   5.379   4.100   0.697
10017WAT     H130293   5.418   4.166   0.633
10017WAT     H230294   5.288   4.131   0.726
10018WAT      O30295   2.744   2.845   9.502
10018WAT     H130296   2.760   2.937   9.465
10018WAT     H230297   2.758   2.847   9.601
10019WAT      O30298   1.584   9.706   0.821
10019WAT     H130299   1.598   9.783   0.759
10019WAT     H230300   1.505   9.724   0.879
10020WAT      O30301   3.199   3.362   3.276
10020WAT     H130302   3.230   3.292   3.341
10020WAT     H230303   3.279   3.408   3.237
10021WAT      O30304   6.762   3.186   8.295
10021WAT     H130305   6.744   3.105   8.240
10021WAT     H230306   6.692   3.196   8.365
10022WAT      O30307   2.319   0.723   2.678
10022WAT     H130308   2.402   0.715   2.623
10022WAT     H230309   2.312   0.644   2.739
10023WAT      O30310   2.978   0.589   7.129
10023WAT     H130311   2.953   0.673   7.082
10023WAT     H230312   3.045   0.608   7.200
10024WAT      O30313   5.243   4.999   0.972
10024WAT     H130314   5.338   4.990   1.002
10024WAT     H230315   5.189   4.923   1.010
10025WAT      O30316   3.140   6.089   7.085
10025WAT     H130317   3.123   6.082   6.986
10025WAT     H230318   3.097   6.171   7.121
10026WAT      O30319   9.268   0.755   2.559
10026WAT     H130320   9.336   0.683   2.575
10026WAT     H230321   9.236   0.750   2.465
10027WAT      O30322   0.198   9.103   1.553
10027WAT     H130323   0.117   9.155   1.527
10027WAT     H230324   0.197   9.014   1.509
10028WAT      O30325   7.233   5.319   6.419
10028WAT     H130326   7.304   5.286   6.357
10028WAT     H230327   7.158   5.254   6.423
10029WAT      O30328   2.251   1.368   6.560
10029WAT     H130329   2.200   1.369   6.646
10029WAT     H230330   2.190   1.394   6.485
10030WAT      O30331   2.161   6.683   7.953
10030WAT     H130332   2.240   6.694   8.013
10030WAT     H230333   2.096   6.757   7.969
10031WAT      O30334   3.296   5.103   0.603
10031WAT     H130335   3.328   5.172   0.668
10031WAT     H230336   3.210   5.133   0.562
10032WAT      O30337   3.808   3.481   0.544
10032WAT     H130338   3.848   3.428   0.469
10032WAT     H230339   3.849   3.452   0.631
10033WAT      O30340   1.827   7.031   1.637
10033WAT     H130341   1.830   7.117   1.686
10033WAT     H230342   1.732   6.997   1.634
10034WAT      O30343   5.794   6.244   9.666
10034WAT     H130344   5.858   6.216   9.594
10034WAT     H230345   5.753   6.163   9.707
10035WAT      O30346   4.516   2.519   1.930
10035WAT     H130347   4.505   2.616   1.949
10035WAT     H230348   4.515   2.468   2.016
10036WAT      O30349   0.133   9.479   3.311
10036WAT     H130350   0.082   9.479   3.225
10036WAT     H230351   0.230   9.465   3.293
10037WAT      O30352   6.137   7.685   6.423
10037WAT     H130353   6.208   7.661   6.357
10037WAT     H230354   6.169   7.760   6.481
10038WAT      O30355   5.039   2.724   6.582
10038WAT     H130356   5.017   2.629   6.560
10038WAT     H230357   4.955   2.771   6.610
10039WAT      O30358   6.365   5.063   0.229
10039WAT     H130359   6.408   4.975   0.250
10039WAT     H230360   6.369   5.122   0.309
10040WAT      O30361   1.380   5.269   6.262
10040WAT     H130362   1.376   5.353   6.316
10040WAT     H230363   1.391   5.191   6.323
10041WAT      O30364   2.723   6.216   8.150
10041WAT     H130365   2.631   6.240   8.120
10041WAT     H230366   2.773   6.299   8.177
10042WAT      O30367   1.248   5.273   7.162
10042WAT     H130368   1.175   5.214   7.195
10042WAT     H230369   1.318   5.217   7.116
10043WAT      O30370   6.347   8.990   7.021
10043WAT     H130371   6.429   8.987   6.963
10043WAT     H230372   6.320   9.086   7.036
10044WAT      O30373   5.253   8.463   7.918
10044WAT     H130374   5.161   8.468   7.956
10044WAT     H230375   5.319   8.450   7.992
10045WAT      O30376   1.958   7.383   9.057
10045WAT     H130377   1.966   7.377   9.156
10045WAT     H230378   1.897   7.312   9.024
10046WAT      O30379   4.307   4.887   6.525
10046WAT     H130380   4.385   4.829   6.550
10046WAT     H230381   4.248   4.899   6.605
10047WAT      O30382   5.447   3.617   0.816
10047WAT     H130383   5.499   3.563   0.882
10047WAT     H230384   5.354   3.581   0.808
10048WAT      O30385   3.955   4.738   0.958
10048WAT     H130386   3.874   4.794   0.974
10048WAT     H230387   4.033   4.797   0.938
10049WAT      O30388   3.636   2.583   7.605
10049WAT     H130389   3.593   2.551   7.690
10049WAT     H230390   3.616   2.680   7.592
10050WAT      O30391   8.815   3.788   3.229
10050WAT     H130392   8.866   3.716   3.276
10050WAT     H230393   8.826   3.874   3.279
10051WAT      O30394   9.673   7.013   4.528
10051WAT     H130395   9.694   7.108   4.548
10051WAT     H230396   9.738   6.953   4.576
10052WAT      O30397   4.580   4.273   5.041
10052WAT     H130398   4.558   4.207   4.969
10052WAT     H230399   4.517   4.351   5.035
10053WAT      O30400   0.407   5.010   9.815
10053WAT     H130401   0.424   5.023   9.913
10053WAT     H230402   0.465   5.072   9.762
10054WAT      O30403   8.864   2.556   9.259
10054WAT     H130404   8.822   2.518   9.341
10054WAT     H230405   8.865   2.487   9.186
10055WAT      O30406   8.837   5.785   8.579
10055WAT     H130407   8.911   5.718   8.587
10055WAT     H230408   8.863   5.857   8.516
10056WAT      O30409   9.690   0.438   7.196
10056WAT     H130410   9.647   0.362   7.147
10056WAT     H230411   9.684   0.521   7.141
10057WAT      O30412   2.828   5.588   3.016
10057WAT     H130413   2.907   5.541   2.978
10057WAT     H230414   2.763   5.520   3.051
10058WAT      O30415   6.499   8.477   7.822
10058WAT     H130416   6.429   8.441   7.883
10058WAT     H230417   6.588   8.442   7.849
10059WAT      O30418   4.695   4.037   6.381
10059WAT     H130419   4.691   4.136   6.365
10059WAT     H230420   4.685   3.989   6.294
10060WAT      O30421   1.429   6.243   0.980
10060WAT     H130422   1.390   6.297   0.905
10060WAT     H230423   1.359   6.226   1.050
10061WAT      O30424   4.070   3.596   5.213
10061WAT     H130425   4.040   3.567   5.304
10061WAT     H230426   4.152   3.545   5.187
10062WAT      O30427   5.633   8.120   1.948
10062WAT     H130428   5.538   8.149   1.964
10062WAT     H230429   5.694   8.199   1.956
10063WAT      O30430   5.116   4.462   0.556
10063WAT     H130431   5.086   4.368   0.570
10063WAT     H230432   5.056   4.525   0.606
10064WAT      O30433   1.483   3.656   5.866
10064WAT     H130434   1.486   3.669   5.965
10064WAT     H230435   1.427   3.727   5.825
10065WAT      O30436   7.795   4.260   0.741
10065WAT     H130437   7.756   4.350   0.718
10065WAT     H230438   7.894   4.266   0.744
10066WAT      O30439   3.585   2.665   5.252
10066WAT     H130440   3.677   2.657   5.214
10066WAT     H230441   3.563   2.761   5.269
10067WAT      O30442   1.016   6.195   5.567
10067WAT     H130443   0.984   6.209   5.473
10067WAT     H230444   0.940   6.204   5.630
10068WAT      O30445   5.694   8.918   7.421
10068WAT     H130446   5.657   9.010   7.437
10068WAT     H230447   5.634   8.850   7.464
10069WAT      O30448   6.953   5.589   8.224
10069WAT     H130449   6.981   5.606   8.130
10069WAT     H230450   6.911   5.671   8.263
10070WAT      O30451   7.507   4.235   1.532
10070WAT     H130452   7.423   4.237   1.586
10070WAT     H230453   7.485   4.210   1.437
10071WAT      O30454   3.656   6.790   3.138
10071WAT     H130455   3.732   6.812   3.077
10071WAT     H230456   3.593   6.868   3.143
10072WAT      O30457   2.119   2.065   0.452
10072WAT     H130458   2.101   2.156   0.490
10072WAT     H230459   2.151   2.004   0.525
10073WAT      O30460   8.202   1.408   8.816
10073WAT     H130461   8.120   1.352   8.832
10073WAT     H230462   8.179   1.483   8.755
10074WAT      O30463   3.006   7.838   1.117
10074WAT     H130464   2.939   7.779   1.162
10074WAT     H230465   3.096   7.794   1.116
10075WAT      O30466   6.305   8.315   6.378
10075WAT     H130467   6.367   8.337   6.454
10075WAT     H230468   6.347   8.246   6.320
10076WAT      O30469   4.368   4.559   0.368
10076WAT     H130470   4.299   4.623   0.403
10076WAT     H230471   4.458   4.601   0.372
10077WAT      O30472   4.091   2.572   2.660
10077WAT     H130473   4.100   2.560   2.561
10077WAT     H230474   4.154   2.642   2.691
10078WAT      O30475   6.781   6.742   1.473
10078WAT     H130476   6.692   6.702   1.453
10078WAT     H230477   6.845   6.668   1.497
10079WAT      O30478   5.132   4.226   7.957
10079WAT     H130479   5.101   4.304   7.901
10079WAT     H230480   5.091   4.233   8.048
10080WAT      O30481   1.344   8.553   9.405
10080WAT     H130482   1.324   8.589   9.496
10080WAT     H230483   1.442   8.531   9.398
10081WAT      O30484   0.798   0.579   0.749
10081WAT     H130485   0.781   0.562   0.652
10081WAT     H230486   0.870   0.518   0.781
10082WAT      O30487   7.936   5.578   7.595
10082WAT     H130488   7.969   5.495   7.640
10082WAT     H230489   7.968   5.580   7.500
10083WAT      O30490   7.967   8.439   1.583
10083WAT     H130491   7.989   8.525   1.537
10083WAT     H230492   8.051   8.396   1.615
10084WAT      O30493   4.539   7.680   3.828
10084WAT     H130494   4.551   7.686   3.729
10084WAT     H230495   4.622   7.644   3.869
10085WAT      O30496   8.898  -0.001   4.700
10085WAT     H130497   8.892   0.087   4.653
10085WAT     H230498   8.814  -0.018   4.751
10086WAT      O30499   3.910   7.880   4.091
10086WAT     H130500   3.938   7.909   4.183
10086WAT     H230501   3.832   7.935   4.061
10087WAT      O30502   4.882   7.095   7.321
10087WAT     H130503   4.817   7.052   7.258
10087WAT     H230504   4.834   7.126   7.403
10088WAT      O30505   8.071   4.501   2.969
10088WAT     H130506   8.122   4.542   3.044
10088WAT     H230507   8.092   4.549   2.884
10089WAT      O30508   1.201   9.128   1.246
10089WAT     H130509   1.202   9.175   1.158
10089WAT     H230510   1.128   9.059   1.246
10090WAT      O30511   4.859   4.299   7.285
10090WAT     H130512   4.893   4.251   7.204
10090WAT     H230513   4.841   4.233   7.358
10091WAT      O30514   0.344   3.499   5.460
10091WAT     H130515   0.374   3.405   5.478
10091WAT     H230516   0.267   3.521   5.519
10092WAT      O30517   5.248   1.208   9.007
10092WAT     H130518   5.256   1.156   9.091
10092WAT     H230519   5.274   1.151   8.929
10093WAT      O30520   1.396   5.049   6.484
10093WAT     H130521   1.385   5.040   6.582
10093WAT     H230522   1.433   4.964   6.446
10094WAT      O30523   6.547   7.037   1.309
10094WAT     H130524   6.457   7.019   1.348
10094WAT     H230525   6.556   6.989   1.222
10095WAT      O30526   6.700   5.582   6.243
10095WAT     H130527   6.643   5.577   6.325
10095WAT     H230528   6.645   5.553   6.164
10096WAT      O30529   0.153   1.643   9.453
10096WAT     H130530   0.158   1.572   9.382
10096WAT     H230531   0.124   1.729   9.412
10097WAT      O30532   4.106   7.977   3.550
10097WAT     H130533   4.092   7.928   3.636
10097WAT     H230534   4.119   8.075   3.569
10098WAT      O30535   6.102   7.904   8.161
10098WAT     H130536   6.012   7.916   8.119
10098WAT     H230537   6.092   7.895   8.260
10099WAT      O30538   4.771   2.273   6.656
10099WAT     H130539   4.714   2.214   6.714
10099WAT     H230540   4.785   2.229   6.567
10100WAT      O30541   6.017   2.043   7.146
10100WAT     H130542   6.098   2.012   7.097
10100WAT     H230543   5.985   1.970   7.206
10101WAT      O30544   4.312   4.801   3.833
10101WAT     H130545   4.310   4.712   3.787
10101WAT     H230546   4.349   4.789   3.925
10102WAT      O30547   9.535   0.035   0.586
10102WAT     H130548   9.583   0.068   0.505
10102WAT     H230549   9.437   0.027   0.567
10103WAT      O30550   8.506   3.848   6.098
10103WAT     H130551   8.545   3.920   6.041
10103WAT     H230552   8.467   3.777   6.041
10104WAT      O30553   6.489   4.203   2.756
10104WAT     H130554   6.448   4.117   2.784
10104WAT     H230555   6.430   4.279   2.782
10105WAT      O30556   2.862   9.358   5.849
10105WAT     H130557   2.835   9.453   5.833
10105WAT     H230558   2.942   9.356   5.909
10106WAT      O30559   7.380   7.493   0.072
10106WAT     H130560   7.340   7.403   0.056
10106WAT     H230561   7.318   7.563   0.036
10107WAT      O30562   3.935   2.805   6.477
10107WAT     H130563   3.992   2.745   6.420
10107WAT     H230564   3.854   2.832   6.426
10108WAT      O30565   5.191   6.804   6.354
10108WAT     H130566   5.133   6.753   6.417
10108WAT     H230567   5.147   6.892   6.333
10109WAT      O30568   0.997   1.105   2.370
10109WAT     H130569   1.027   1.191   2.328
10109WAT     H230570   0.989   1.035   2.300
10110WAT      O30571   5.377   8.833   0.049
10110WAT     H130572   5.361   8.921   0.004
10110WAT     H230573   5.387   8.847   0.148
10111WAT      O30574   1.041   0.860   4.936
10111WAT     H130575   1.049   0.925   5.012
10111WAT     H230576   0.965   0.888   4.876
10112WAT      O30577   1.392   1.298   9.438
10112WAT     H130578   1.353   1.361   9.504
10112WAT     H230579   1.366   1.326   9.345
10113WAT      O30580   0.398   9.559   2.091
10113WAT     H130581   0.406   9.647   2.043
10113WAT     H230582   0.486   9.512   2.088
10114WAT      O30583   1.269   5.070   4.138
10114WAT     H130584   1.332   5.011   4.088
10114WAT     H230585   1.177   5.060   4.101
10115WAT      O30586   3.910   6.504   8.123
10115WAT     H130587   3.999   6.547   8.108
10115WAT     H230588   3.904   6.420   8.069
10116WAT      O30589   2.626   7.418   9.293
10116WAT     H130590   2.674   7.495   9.249
10116WAT     H230591   2.693   7.356   9.332
10117WAT      O30592   9.312   6.236   5.547
10117WAT     H130593   9.394   6.187   5.576
10117WAT     H230594   9.295   6.313   5.608
10118WAT      O30595   6.418   2.450   6.965
10118WAT     H130596   6.476   2.379   7.005
10118WAT     H230597   6.348   2.476   7.031
10119WAT      O30598   1.552   0.370   4.984
10119WAT     H130599   1.501   0.297   5.031
10119WAT     H230600   1.538   0.361   4.885
10120WAT      O30601   7.198   4.533   7.857
10120WAT     H130602   7.275   4.482   7.819
10120WAT     H230603   7.225   4.573   7.945
10121WAT      O30604   1.108   8.746   3.927
10121WAT     H130605   1.192   8.750   3.872
10121WAT     H230606   1.091   8.836   3.967
10122WAT      O30607   1.713   6.487   0.730
10122WAT     H130608   1.761   6.475   0.643
10122WAT     H230609   1.623   6.525   0.714
10123WAT      O30610   1.391   9.214   4.437
10123WAT     H130611   1.431   9.291   4.387
10123WAT     H230612   1.453   9.135   4.433
10124WAT      O30613   8.069   0.314   3.388
10124WAT     H130614   7.988   0.286   3.336
10124WAT     H230615   8.138   0.349   3.325
10125WAT      O30616   3.674   0.204   7.232
10125WAT     H130617   3.761   0.205   7.183
10125WAT     H230618   3.690   0.189   7.330
10126WAT      O30619   6.185   5.765   2.266
10126WAT     H130620   6.168   5.687   2.206
10126WAT     H230621   6.270   5.811   2.238
10127WAT      O30622   6.532   9.198   5.254
10127WAT     H130623   6.533   9.293   5.220
10127WAT     H230624   6.553   9.198   5.351
10128WAT      O30625   1.787   9.759   8.570
10128WAT     H130626   1.772   9.668   8.530
10128WAT     H230627   1.758   9.758   8.666
10129WAT      O30628   7.001   9.007   2.671
10129WAT     H130629   7.039   8.970   2.586
10129WAT     H230630   7.027   8.949   2.748
10130WAT      O30631   5.634   3.357   4.443
10130WAT     H130632   5.648   3.404   4.530
10130WAT     H230633   5.547   3.386   4.403
10131WAT      O30634   4.909   2.934   5.810
10131WAT     H130635   4.899   2.920   5.908
10131WAT     H230636   4.993   2.986   5.793
10132WAT      O30637   5.789   2.632   9.870
10132WAT     H130638   5.782   2.639   9.771
10132WAT     H230639   5.855   2.699   9.904
10133WAT      O30640   2.001   4.270   0.234
10133WAT     H130641   2.061   4.284   0.156
10133WAT     H230642   2.016   4.342   0.302
10134WAT      O30643   3.317   9.637   8.008
10134WAT     H130644   3.408   9.679   8.011
10134WAT     H230645   3.296   9.598   8.098
10135WAT      O30646   0.380   4.825   1.030
10135WAT     H130647   0.470   4.858   1.003
10135WAT     H230648   0.382   4.794   1.125
10136WAT      O30649   3.505   1.205   2.759
10136WAT     H130650   3.481   1.132   2.695
10136WAT     H230651   3.553   1.278   2.709
10137WAT      O30652   6.870   0.747   3.965
10137WAT     H130653   6.925   0.697   3.899
10137WAT     H230654   6.866   0.844   3.940
10138WAT      O30655   6.229   3.337   5.744
10138WAT     H130656   6.187   3.402   5.808
10138WAT     H230657   6.272   3.387   5.669
10139WAT      O30658   3.291   0.616   4.215
10139WAT     H130659   3.230   0.628   4.293
10139WAT     H230660   3.384   0.602   4.248
10140WAT      O30661   6.940   6.891   7.916
10140WAT     H130662   6.999   6.913   7.839
10140WAT     H230663   6.991   6.898   8.002
10141WAT      O30664   0.418   1.345   6.096
10141WAT     H130665   0.411   1.359   6.195
10141WAT     H230666   0.327   1.342   6.056
10142WAT      O30667   7.681   2.862   6.307
10142WAT     H130668   7.611   2.932   6.302
10142WAT     H230669   7.699   2.825   6.216
10143WAT      O30670   4.817   6.149   5.555
10143WAT     H130671   4.802   6.051   5.546
10143WAT     H230672   4.915   6.168   5.552
10144WAT      O30673   4.744   2.235   5.941
10144WAT     H130674   4.696   2.322   5.925
10144WAT     H230675   4.815   2.249   6.009
10145WAT      O30676   0.877   3.719   6.478
10145WAT     H130677   0.962   3.770   6.488
10145WAT     H230678   0.835   3.740   6.389
10146WAT      O30679   6.393   6.841   7.132
10146WAT     H130680   6.416   6.880   7.043
10146WAT     H230681   6.352   6.912   7.190
10147WAT      O30682   5.326   0.269   3.824
10147WAT     H130683   5.333   0.356   3.873
10147WAT     H230684   5.372   0.276   3.736
10148WAT      O30685   2.079   9.000   8.749
10148WAT     H130686   2.025   8.979   8.667
10148WAT     H230687   2.068   8.926   8.816
10149WAT      O30688   3.473   6.531   5.179
10149WAT     H130689   3.511   6.475   5.105
10149WAT     H230690   3.536   6.531   5.256
10150WAT      O30691   4.248   3.001   9.613
10150WAT     H130692   4.263   3.093   9.577
10150WAT     H230693   4.241   2.936   9.538
10151WAT      O30694   1.423   7.677   1.439
10151WAT     H130695   1.389   7.757   1.488
10151WAT     H230696   1.490   7.705   1.371
10152WAT      O30697   6.110   3.774   0.262
10152WAT     H130698   6.157   3.723   0.334
10152WAT     H230699   6.030   3.820   0.301
10153WAT      O30700   5.398   7.753   4.117
10153WAT     H130701   5.349   7.796   4.193
10153WAT     H230702   5.453   7.822   4.070
10154WAT      O30703   4.414   6.515   3.556
10154WAT     H130704   4.411   6.593   3.493
10154WAT     H230705   4.410   6.549   3.650
10155WAT      O30706   0.127   5.832   8.466
10155WAT     H130707   0.131   5.765   8.392
10155WAT     H230708   0.032   5.859   8.482
10156WAT      O30709   7.385   0.924   5.224
10156WAT     H130710   7.336   0.852   5.273
10156WAT     H230711   7.357   0.924   5.128
10157WAT      O30712   8.560   4.002   5.679
10157WAT     H130713   8.639   3.987   5.620
10157WAT     H230714   8.590   4.039   5.767
10158WAT      O30715   3.153   6.004   6.094
10158WAT     H130716   3.135   6.083   6.035
10158WAT     H230717   3.069   5.951   6.106
10159WAT      O30718   6.427   3.795   2.156
10159WAT     H130719   6.364   3.869   2.129
10159WAT     H230720   6.378   3.708   2.156
10160WAT      O30721   8.758   0.325   7.961
10160WAT     H130722   8.809   0.255   8.011
10160WAT     H230723   8.811   0.353   7.880
10161WAT      O30724   3.983   4.107   2.604
10161WAT     H130725   4.074   4.066   2.593
10161WAT     H230726   3.925   4.079   2.528
10162WAT      O30727   3.044   9.571   2.158
10162WAT     H130728   3.093   9.492   2.194
10162WAT     H230729   3.076   9.654   2.204
10163WAT      O30730   9.114   6.241   6.406
10163WAT     H130731   9.112   6.334   6.443
10163WAT     H230732   9.183   6.188   6.456
10164WAT      O30733   6.789   9.457   7.150
10164WAT     H130734   6.817   9.506   7.232
10164WAT     H230735   6.693   9.478   7.130
10165WAT      O30736   9.456   7.389   4.115
10165WAT     H130737   9.372   7.337   4.101
10165WAT     H230738   9.522   7.364   4.044
10166WAT      O30739   3.348   7.707   6.413
10166WAT     H130740   3.409   7.636   6.378
10166WAT     H230741   3.312   7.680   6.502
10167WAT      O30742   5.797   3.914   9.677
10167WAT     H130743   5.788   4.013   9.661
10167WAT     H230744   5.846   3.872   9.601
10168WAT      O30745   0.519   8.506   6.393
10168WAT     H130746   0.538   8.572   6.466
10168WAT     H230747   0.421   8.505   6.372
10169WAT      O30748   0.685   1.194   7.629
10169WAT     H130749   0.585   1.200   7.622
10169WAT     H230750   0.726   1.237   7.549
10170WAT      O30751   3.860   3.450   0.838
10170WAT     H130752   3.766   3.421   0.818
10170WAT     H230753   3.900   3.389   0.906
10171WAT      O30754   0.028   5.860   7.236
10171WAT     H130755  -0.037   5.929   7.267
10171WAT     H230756   0.018   5.777   7.291
10172WAT      O30757   6.244   4.938   2.779
10172WAT     H130758   6.268   4.927   2.876
10172WAT     H230759   6.157   4.988   2.772
10173WAT      O30760   7.067   9.207   8.085
10173WAT     H130761   6.971   9.232   8.101
10173WAT     H230762   7.076   9.108   8.091
10174WAT      O30763   3.809   2.741   7.976
10174WAT     H130764   3.849   2.800   8.046
10174WAT     H230765   3.845   2.648   7.987
10175WAT      O30766   8.065   6.145   5.230
10175WAT     H130767   8.087   6.048   5.239
10175WAT     H230768   7.999   6.158   5.157
10176WAT      O30769   8.166   7.309   8.062
10176WAT     H130770   8.207   7.303   8.153
10176WAT     H230771   8.073   7.344   8.069
10177WAT      O30772   4.347   6.013   0.759
10177WAT     H130773   4.414   5.943   0.736
10177WAT     H230774   4.255   5.979   0.742
10178WAT      O30775   7.875   7.310   8.715
10178WAT     H130776   7.910   7.263   8.796
10178WAT     H230777   7.884   7.250   8.635
10179WAT      O30778   8.004   4.460   5.028
10179WAT     H130779   8.081   4.500   4.977
10179WAT     H230780   7.919   4.498   4.992
10180WAT      O30781   6.110   0.736   8.575
10180WAT     H130782   6.033   0.702   8.628
10180WAT     H230783   6.135   0.828   8.606
10181WAT      O30784   0.620   3.073   0.900
10181WAT     H130785   0.624   3.119   0.811
10181WAT     H230786   0.703   3.094   0.952
10182WAT      O30787   8.624   2.675   7.351
10182WAT     H130788   8.703   2.615   7.355
10182WAT     H230789   8.639   2.745   7.281
10183WAT      O30790   0.283   5.543   1.824
10183WAT     H130791   0.226   5.609   1.775
10183WAT     H230792   0.264   5.451   1.789
10184WAT      O30793   0.681   8.739   3.980
10184WAT     H130794   0.747   8.813   3.995
10184WAT     H230795   0.671   8.686   4.064
10185WAT      O30796   9.497   1.677   5.029
10185WAT     H130797   9.596   1.689   5.024
10185WAT     H230798   9.458   1.687   4.937
10186WAT      O30799   9.788   9.599   4.154
10186WAT     H130800   9.794   9.698   4.171
10186WAT     H230801   9.693   9.572   4.147
10187WAT      O30802   2.040   8.841   0.133
10187WAT     H130803   1.946   8.848   0.167
10187WAT     H230804   2.098   8.801   0.203
10188WAT      O30805   2.237   3.480   5.180
10188WAT     H130806   2.230   3.471   5.279
10188WAT     H230807   2.332   3.468   5.152
10189WAT      O30808   8.587   4.481   5.291
10189WAT     H130809   8.510   4.509   5.235
10189WAT     H230810   8.556   4.415   5.360
10190WAT      O30811   4.764   3.006   9.007
10190WAT     H130812   4.786   3.079   8.942
10190WAT     H230813   4.829   3.008   9.082
10191WAT      O30814   5.534   4.433   6.179
10191WAT     H130815   5.540   4.481   6.267
10191WAT     H230816   5.441   4.400   6.166
10192WAT      O30817   1.308   6.813   0.266
10192WAT     H130818   1.333   6.741   0.330
10192WAT     H230819   1.318   6.902   0.310
10193WAT      O30820   3.099   1.174   9.542
10193WAT     H130821   3.175   1.237   9.560
10193WAT     H230822   3.113   1.089   9.593
10194WAT      O30823   2.895   0.872   8.594
10194WAT     H130824   2.876   0.945   8.528
10194WAT     H230825   2.815   0.856   8.651
10195WAT      O30826   5.351   6.728   2.716
10195WAT     H130827   5.389   6.772   2.635
10195WAT     H230828   5.263   6.686   2.693
10196WAT      O30829   5.037   8.060   5.319
10196WAT     H130830   5.045   7.963   5.341
10196WAT     H230831   5.090   8.114   5.386
10197WAT      O30832   0.420   0.192   2.752
10197WAT     H130833   0.368   0.189   2.837
10197WAT     H230834   0.503   0.246   2.766
10198WAT      O30835   0.039   7.238   7.227
10198WAT     H130836   0.002   7.288   7.149
10198WAT     H230837   0.094   7.161   7.194
10199WAT      O30838   4.194   5.968   4.532
10199WAT     H130839   4.266   5.917   4.580
10199WAT     H230840   4.158   5.913   4.457
10200WAT      O30841   8.817   7.559   2.225
10200WAT     H130842   8.885   7.574   2.153
10200WAT     H230843   8.863   7.537   2.311
10201WAT      O30844   9.025   0.101   7.651
10201WAT     H130845   9.026   0.016   7.599
10201WAT     H230846   9.006   0.178   7.590
10202WAT      O30847   1.000   9.286   1.990
10202WAT     H130848   1.084   9.327   2.025
10202WAT     H230849   0.987   9.196   2.030
10203WAT      O30850   2.815   6.133   5.912
10203WAT     H130851   2.725   6.155   5.949
10203WAT     H230852   2.835   6.191   5.834
10204WAT      O30853   5.721   0.162   0.442
10204WAT     H130854   5.763   0.164   0.351
10204WAT     H230855   5.646   0.229   0.445
10205WAT      O30856   3.060   4.923   1.988
10205WAT     H130857   3.157   4.935   2.009
10205WAT     H230858   3.005   4.957   2.064
10206WAT      O30859   2.288   6.565   1.644
10206WAT     H130860   2.293   6.580   1.546
10206WAT     H230861   2.194   6.579   1.675
10207WAT      O30862   3.810   8.008   6.884
10207WAT     H130863   3.833   8.103   6.901
10207WAT     H230864   3.893   7.954   6.873
10208WAT      O30865   5.803   6.921   5.723
10208WAT     H130866   5.900   6.911   5.702
10208WAT     H230867   5.751   6.924   5.637
10209WAT      O30868   6.645   2.909   5.676
10209WAT     H130869   6.647   2.965   5.593
10209WAT     H230870   6.714   2.837   5.668
10210WAT      O30871   4.849   3.641   0.783
10210WAT     H130872   4.799   3.673   0.702
10210WAT     H230873   4.822   3.696   0.862
10211WAT      O30874   1.235   0.811   5.372
10211WAT     H130875   1.272   0.763   5.451
10211WAT     H230876   1.141   0.781   5.355
10212WAT      O30877   1.413   1.035   8.652
10212WAT     H130878   1.328   1.075   8.617
10212WAT     H230879   1.478   1.107   8.673
10213WAT      O30880   6.080   5.625   8.788
10213WAT     H130881   6.176   5.601   8.802
10213WAT     H230882   6.069   5.663   8.696
10214WAT      O30883   6.530   3.722   1.709
10214WAT     H130884   6.609   3.753   1.656
10214WAT     H230885   6.479   3.654   1.656
10215WAT      O30886   1.937   6.301   3.406
10215WAT     H130887   1.885   6.386   3.419
10215WAT     H230888   1.873   6.224   3.398
10216WAT      O30889   1.345   6.423   1.704
10216WAT     H130890   1.349   6.468   1.614
10216WAT     H230891   1.320   6.327   1.692
10217WAT      O30892   9.797   6.048   6.057
10217WAT     H130893   9.816   6.083   5.965
10217WAT     H230894   9.721   5.983   6.053
10218WAT      O30895   6.804   9.294   7.694
10218WAT     H130896   6.773   9.389   7.704
10218WAT     H230897   6.904   9.293   7.696
10219WAT      O30898   1.963   2.464   0.685
10219WAT     H130899   1.985   2.406   0.763
10219WAT     H230900   1.868   2.495   0.692
10220WAT      O30901   6.029   2.734   3.278
10220WAT     H130902   6.000   2.709   3.185
10220WAT     H230903   5.969   2.806   3.312
10221WAT      O30904   4.795   0.763   6.737
10221WAT     H130905   4.711   0.735   6.782
10221WAT     H230906   4.774   0.812   6.653
10222WAT      O30907   8.284   9.718   7.089
10222WAT     H130908   8.189   9.687   7.080
10222WAT     H230909   8.346   9.644   7.061
10223WAT      O30910   7.939   4.284   3.352
10223WAT     H130911   7.885   4.268   3.269
10223WAT     H230912   7.899   4.233   3.428
10224WAT      O30913   0.343   5.941   6.028
10224WAT     H130914   0.413   5.966   6.096
10224WAT     H230915   0.305   5.851   6.051
10225WAT      O30916   0.537   7.835   6.374
10225WAT     H130917   0.469   7.769   6.344
10225WAT     H230918   0.541   7.910   6.308
10226WAT      O30919   2.089   2.852   4.144
10226WAT     H130920   2.134   2.853   4.233
10226WAT     H230921   1.993   2.825   4.156
10227WAT      O30922   8.514   7.013   2.799
10227WAT     H130923   8.509   7.111   2.780
10227WAT     H230924   8.424   6.972   2.785
10228WAT      O30925   3.852   0.915   0.849
10228WAT     H130926   3.753   0.901   0.845
10228WAT     H230927   3.894   0.838   0.897
10229WAT      O30928   2.756   8.244   4.437
10229WAT     H130929   2.814   8.203   4.367
10229WAT     H230930   2.807   8.315   4.486
10230WAT      O30931   8.165   9.328   3.094
10230WAT     H130932   8.239   9.262   3.079
10230WAT     H230933   8.177   9.406   3.033
10231WAT      O30934   9.238   8.292   1.182
10231WAT     H130935   9.295   8.374   1.173
10231WAT     H230936   9.290   8.213   1.152
10232WAT      O30937   5.926   5.719   9.817
10232WAT     H130938   5.920   5.791   9.748
10232WAT     H230939   6.017   5.676   9.812
10233WAT      O30940   0.503   4.754   9.800
10233WAT     H130941   0.457   4.716   9.879
10233WAT     H230942   0.491   4.853   9.798
10234WAT      O30943   2.182   7.605   1.336
10234WAT     H130944   2.275   7.602   1.373
10234WAT     H230945   2.185   7.638   1.241
10235WAT      O30946   8.315   7.487   0.683
10235WAT     H130947   8.327   7.586   0.689
10235WAT     H230948   8.283   7.452   0.771
10236WAT      O30949   5.900   6.917   3.854
10236WAT     H130950   5.942   6.993   3.805
10236WAT     H230951   5.933   6.830   3.816
10237WAT      O30952   4.701   2.269   0.382
10237WAT     H130953   4.612   2.314   0.388
10237WAT     H230954   4.689   2.170   0.388
10238WAT      O30955   8.785   1.666   9.500
10238WAT     H130956   8.852   1.641   9.570
10238WAT     H230957   8.798   1.762   9.474
10239WAT      O30958   4.409   2.904   5.498
10239WAT     H130959   4.487   2.916   5.560
10239WAT     H230960   4.350   2.831   5.532
10240WAT      O30961   1.376   4.709   4.657
10240WAT     H130962   1.323   4.718   4.573
10240WAT     H230963   1.447   4.779   4.659
10241WAT      O30964   2.639   1.877   8.595
10241WAT     H130965   2.691   1.795   8.572
10241WAT     H230966   2.656   1.947   8.526
10242WAT      O30967   2.413   7.209   7.934
10242WAT     H130968   2.417   7.214   7.834
10242WAT     H230969   2.376   7.295   7.969
10243WAT      O30970   1.123   1.134   7.494
10243WAT     H130971   1.081   1.059   7.444
10243WAT     H230972   1.145   1.105   7.587
10244WAT      O30973   1.564   0.628   3.039
10244WAT     H130974   1.570   0.544   3.092
10244WAT     H230975   1.567   0.707   3.100
10245WAT      O30976   0.323   1.845   6.856
10245WAT     H130977   0.285   1.917   6.914
10245WAT     H230978   0.419   1.831   6.879
10246WAT      O30979   8.115   3.686   8.784
10246WAT     H130980   8.160   3.757   8.731
10246WAT     H230981   8.080   3.725   8.870
10247WAT      O30982   9.669   6.760   5.707
10247WAT     H130983   9.752   6.726   5.663
10247WAT     H230984   9.677   6.750   5.806
10248WAT      O30985   0.289   7.616   2.457
10248WAT     H130986   0.332   7.675   2.389
10248WAT     H230987   0.337   7.624   2.544
10249WAT      O30988   1.178   1.620   6.395
10249WAT     H130989   1.276   1.609   6.377
10249WAT     H230990   1.156   1.717   6.403
10250WAT      O30991   6.434   6.668   3.346
10250WAT     H130992   6.531   6.651   3.365
10250WAT     H230993   6.379   6.596   3.387
10251WAT      O30994   5.094   1.945   0.598
10251WAT     H130995   5.127   2.024   0.547
10251WAT     H230996   4.996   1.956   0.617
10252WAT      O30997   0.451   8.884   9.123
10252WAT     H130998   0.437   8.896   9.222
10252WAT     H230999   0.362   8.878   9.078
10253WAT      O31000   4.236   9.245   5.732
10253WAT     H131001   4.171   9.317   5.752
10253WAT     H231002   4.195   9.156   5.752
10254WAT      O31003   8.830   1.897   2.073
10254WAT     H131004   8.858   1.941   1.988
10254WAT     H231005   8.832   1.798   2.062
10255WAT      O31006   9.379   8.607   0.294
10255WAT     H131007   9.454   8.670   0.313
10255WAT     H231008   9.392   8.523   0.348
10256WAT      O31009   1.001   7.870   3.916
10256WAT     H131010   1.075   7.919   3.962
10256WAT     H231011   1.016   7.771   3.924
10257WAT      O31012   0.227   9.535   0.890
10257WAT     H131013   0.276   9.526   0.803
10257WAT     H231014   0.288   9.575   0.959
10258WAT      O31015   5.863   0.654   4.129
10258WAT     H131016   5.771   0.662   4.092
10258WAT     H231017   5.924   0.618   4.058
10259WAT      O31018   7.742   0.822   1.805
10259WAT     H131019   7.807   0.790   1.736
10259WAT     H231020   7.677   0.749   1.826
10260WAT      O31021   1.363   5.023   2.546
10260WAT     H131022   1.363   5.122   2.558
10260WAT     H231023   1.447   4.995   2.500
10261WAT      O31024   5.335   6.647   4.909
10261WAT     H131025   5.238   6.659   4.929
10261WAT     H231026   5.363   6.555   4.939
10262WAT      O31027   8.645   8.574   3.145
10262WAT     H131028   8.673   8.670   3.141
10262WAT     H231029   8.719   8.516   3.111
10263WAT      O31030   4.773   6.570   1.596
10263WAT     H131031   4.749   6.517   1.677
10263WAT     H231032   4.748   6.518   1.514
10264WAT      O31033   9.882   9.293   8.604
10264WAT     H131034   9.788   9.261   8.591
10264WAT     H231035   9.894   9.323   8.699
10265WAT      O31036   9.420   5.088   5.958
10265WAT     H131037   9.376   5.003   5.930
10265WAT     H231038   9.496   5.068   6.020
10266WAT      O31039   5.019   0.011   7.455
10266WAT     H131040   5.054   0.104   7.460
10266WAT     H231041   5.023  -0.022   7.360
10267WAT      O31042   1.577   4.170   1.309
10267WAT     H131043   1.497   4.195   1.254
10267WAT     H231044   1.553   4.175   1.406
10268WAT      O31045   5.436   0.306   9.794
10268WAT     H131046   5.345   0.304   9.752
10268WAT     H231047   5.503   0.336   9.726
10269WAT      O31048   0.865   5.284   3.393
10269WAT     H131049   0.816   5.364   3.426
10269WAT     H231050   0.954   5.312   3.357
10270WAT      O31051   8.429   8.858   7.797
10270WAT     H131052   8.484   8.777   7.777
10270WAT     H231053   8.335   8.842   7.768
10271WAT      O31054   2.516   3.351   4.604
10271WAT     H131055   2.551   3.346   4.697
10271WAT     H231056   2.535   3.442   4.566
10272WAT      O31057   4.112   4.003   5.737
10272WAT     H131058   4.025   4.050   5.751
10272WAT     H231059   4.150   4.029   5.648
10273WAT      O31060   9.647   4.735   6.982
10273WAT     H131061   9.575   4.666   6.984
10273WAT     H231062   9.606   4.826   6.977
10274WAT      O31063   8.796   0.695   1.507
10274WAT     H131064   8.872   0.629   1.510
10274WAT     H231065   8.814   0.770   1.570
10275WAT      O31066   7.085   1.638   9.662
10275WAT     H131067   7.152   1.657   9.590
10275WAT     H231068   7.037   1.553   9.642
10276WAT      O31069   8.303   8.299   5.009
10276WAT     H131070   8.267   8.226   5.067
10276WAT     H231071   8.257   8.385   5.031
10277WAT      O31072   5.173   7.274   5.199
10277WAT     H131073   5.139   7.182   5.223
10277WAT     H231074   5.272   7.270   5.186
10278WAT      O31075   0.606   7.345   9.388
10278WAT     H131076   0.581   7.256   9.427
10278WAT     H231077   0.524   7.393   9.359
10279WAT      O31078   3.087   0.852   5.735
10279WAT     H131079   3.172   0.871   5.784
10279WAT     H231080   3.092   0.762   5.693
10280WAT      O31081   6.904   3.743   6.314
10280WAT     H131082   6.887   3.729   6.216
10280WAT     H231083   6.816   3.743   6.363
10281WAT      O31084   4.585   6.292   3.598
10281WAT     H131085   4.534   6.378   3.600
10281WAT     H231086   4.529   6.220   3.641
10282WAT      O31087   8.549   5.952   5.463
10282WAT     H131088   8.464   5.900   5.474
10282WAT     H231089   8.596   5.923   5.380
10283WAT      O31090   2.793   2.935   1.117
10283WAT     H131091   2.750   2.914   1.029
10283WAT     H231092   2.756   2.875   1.188
10284WAT      O31093   8.723   8.341   1.693
10284WAT     H131094   8.747   8.278   1.767
10284WAT     H231095   8.698   8.430   1.731
10285WAT      O31096   5.343   8.585   2.369
10285WAT     H131097   5.356   8.533   2.454
10285WAT     H231098   5.246   8.609   2.359
10286WAT      O31099   9.184   8.351   7.595
10286WAT     H131100   9.125   8.334   7.674
10286WAT     H231101   9.140   8.419   7.536
10287WAT      O31102   8.577   3.905   7.500
10287WAT     H131103   8.538   3.925   7.410
10287WAT     H231104   8.567   3.985   7.559
10288WAT      O31105   7.941   2.979   4.720
10288WAT     H131106   8.013   3.026   4.669
10288WAT     H231107   7.977   2.896   4.761
10289WAT      O31108   7.639   5.873   8.205
10289WAT     H131109   7.705   5.798   8.206
10289WAT     H231110   7.548   5.839   8.224
10290WAT      O31111   0.117   1.454   4.084
10290WAT     H131112   0.118   1.365   4.130
10290WAT     H231113   0.172   1.519   4.136
10291WAT      O31114   6.772   1.312   9.857
10291WAT     H131115   6.728   1.274   9.776
10291WAT     H231116   6.790   1.238   9.923
10292WAT      O31117   0.953   6.837   8.674
10292WAT     H131118   1.012   6.884   8.608
10292WAT     H231119   0.937   6.895   8.753
10293WAT      O31120   5.040   6.734   1.345
10293WAT     H131121   4.963   6.727   1.282
10293WAT     H231122   5.077   6.827   1.343
10294WAT      O31123   4.971   0.218   7.044
10294WAT     H131124   5.063   0.250   7.019
10294WAT     H231125   4.941   0.150   6.977
10295WAT      O31126   6.239   5.580   0.451
10295WAT     H131127   6.159   5.525   0.473
10295WAT     H231128   6.283   5.610   0.535
10296WAT      O31129   0.716   3.530   9.055
10296WAT     H131130   0.755   3.502   8.967
10296WAT     H231131   0.628   3.574   9.040
10297WAT      O31132   5.497   3.951   1.524
10297WAT     H131133   5.414   3.912   1.484
10297WAT     H231134   5.555   3.877   1.558
10298WAT      O31135   8.173   5.194   8.837
10298WAT     H131136   8.170   5.160   8.931
10298WAT     H231137   8.165   5.294   8.837
10299WAT      O31138   0.726   9.607   0.388
10299WAT     H131139   0.659   9.669   0.348
10299WAT     H231140   0.776   9.655   0.461
10300WAT      O31141   1.347   4.689   0.473
10300WAT     H131142   1.370   4.593   0.458
10300WAT     H231143   1.281   4.696   0.548
10301WAT      O31144   3.956   3.241   0.999
10301WAT     H131145   4.042   3.274   1.038
10301WAT     H231146   3.889   3.229   1.073
10302WAT      O31147   4.068   7.269   0.709
10302WAT     H131148   4.027   7.178   0.703
10302WAT     H231149   4.138   7.269   0.780
10303WAT      O31150   8.202   7.829   1.728
10303WAT     H131151   8.281   7.784   1.685
10303WAT     H231152   8.174   7.907   1.672
10304WAT      O31153   2.829   1.455   2.704
10304WAT     H131154   2.771   1.411   2.773
10304WAT     H231155   2.777   1.528   2.659
10305WAT      O31156   4.514   0.273   8.541
10305WAT     H131157   4.605   0.236   8.524
10305WAT     H231158   4.509   0.367   8.508
10306WAT      O31159   8.847   7.947   9.739
10306WAT     H131160   8.880   7.855   9.718
10306WAT     H231161   8.761   7.941   9.789
10307WAT      O31162   4.257   7.733   8.135
10307WAT     H131163   4.332   7.798   8.122
10307WAT     H231164   4.292   7.640   8.137
10308WAT      O31165   3.775   7.803   2.825
10308WAT     H131166   3.814   7.769   2.911
10308WAT     H231167   3.694   7.750   2.801
10309WAT      O31168   2.240   1.591   0.797
10309WAT     H131169   2.261   1.585   0.699
10309WAT     H231170   2.169   1.524   0.819
10310WAT      O31171   8.395   1.153   9.500
10310WAT     H131172   8.334   1.074   9.498
10310WAT     H231173   8.464   1.143   9.428
10311WAT      O31174   8.981   4.636   7.261
10311WAT     H131175   9.016   4.695   7.189
10311WAT     H231176   8.926   4.689   7.325
10312WAT      O31177   3.744   4.529   1.474
10312WAT     H131178   3.723   4.491   1.384
10312WAT     H231179   3.667   4.584   1.506
10313WAT      O31180   9.609   7.185   9.452
10313WAT     H131181   9.521   7.212   9.413
10313WAT     H231182   9.653   7.264   9.493
10314WAT      O31183   4.475   6.027   9.888
10314WAT     H131184   4.412   6.046   9.963
10314WAT     H231185   4.524   6.110   9.864
10315WAT      O31186   0.393   9.334   4.388
10315WAT     H131187   0.320   9.399   4.366
10315WAT     H231188   0.432   9.298   4.303
10316WAT      O31189   8.320   7.393   7.862
10316WAT     H131190   8.339   7.488   7.886
10316WAT     H231191   8.247   7.357   7.920
10317WAT      O31192   2.245   9.435   8.722
10317WAT     H131193   2.250   9.458   8.625
10317WAT     H231194   2.256   9.519   8.776
10318WAT      O31195   5.434   7.943   5.060
10318WAT     H131196   5.508   7.908   5.118
10318WAT     H231197   5.474   7.993   4.982
10319WAT      O31198   7.997   3.027   2.097
10319WAT     H131199   7.898   3.040   2.105
10319WAT     H231200   8.023   2.940   2.139
10320WAT      O31201   7.637   5.793   6.653
10320WAT     H131202   7.599   5.757   6.738
10320WAT     H231203   7.718   5.848   6.674
10321WAT      O31204   8.630   3.412   5.071
10321WAT     H131205   8.583   3.325   5.053
10321WAT     H231206   8.723   3.407   5.035
10322WAT      O31207   0.802   6.154   1.081
10322WAT     H131208   0.834   6.220   1.149
10322WAT     H231209   0.802   6.062   1.121
10323WAT      O31210   0.482   2.923   2.219
10323WAT     H131211   0.542   2.897   2.143
10323WAT     H231212   0.513   3.009   2.258
10324WAT      O31213   6.020   3.080   3.090
10324WAT     H131214   6.065   2.994   3.065
10324WAT     H231215   6.038   3.101   3.186
10325WAT      O31216   2.689   7.274   3.214
10325WAT     H131217   2.737   7.268   3.302
10325WAT     H231218   2.725   7.205   3.152
10326WAT      O31219   6.409   9.691   8.279
10326WAT     H131220   6.326   9.637   8.265
10326WAT     H231221   6.445   9.675   8.371
10327WAT      O31222   7.315   9.036   3.450
10327WAT     H131223   7.338   9.129   3.420
10327WAT     H231224   7.249   9.040   3.524
10328WAT      O31225   8.403   3.479   3.335
10328WAT     H131226   8.326   3.460   3.275
10328WAT     H231227   8.441   3.569   3.312
10329WAT      O31228   3.948   9.420   9.818
10329WAT     H131229   3.949   9.446   9.914
10329WAT     H231230   3.934   9.502   9.761
10330WAT      O31231   4.319   7.613   4.691
10330WAT     H131232   4.295   7.695   4.742
10330WAT     H231233   4.406   7.576   4.725
10331WAT      O31234   7.071   3.844   0.565
10331WAT     H131235   7.159   3.858   0.519
10331WAT     H231236   7.000   3.827   0.497
10332WAT      O31237   0.793   3.466   3.240
10332WAT     H131238   0.755   3.419   3.320
10332WAT     H231239   0.755   3.558   3.233
10333WAT      O31240   5.998   5.671   5.067
10333WAT     H131241   5.957   5.722   5.142
10333WAT     H231242   6.016   5.577   5.095
10334WAT      O31243   0.391   6.863   2.379
10334WAT     H131244   0.359   6.956   2.396
10334WAT     H231245   0.478   6.866   2.330
10335WAT      O31246   8.429   6.299   5.201
10335WAT     H131247   8.405   6.222   5.142
10335WAT     H231248   8.354   6.365   5.201
10336WAT      O31249   6.342   8.167   7.411
10336WAT     H131250   6.344   8.239   7.481
10336WAT     H231251   6.247   8.148   7.385
10337WAT      O31252   1.007   9.580   4.218
10337WAT     H131253   1.013   9.519   4.297
10337WAT     H231254   0.911   9.591   4.191
10338WAT      O31255   0.148   3.268   0.111
10338WAT     H131256   0.150   3.356   0.063
10338WAT     H231257   0.212   3.205   0.067
10339WAT      O31258   3.374   2.422   1.109
10339WAT     H131259   3.393   2.421   1.207
10339WAT     H231260   3.303   2.490   1.089
10340WAT      O31261   4.106   9.266   9.063
10340WAT     H131262   4.174   9.288   8.993
10340WAT     H231263   4.117   9.328   9.141
10341WAT      O31264   8.629   1.342   7.915
10341WAT     H131265   8.724   1.324   7.942
10341WAT     H231266   8.567   1.289   7.972
10342WAT      O31267   2.931   5.551   6.122
10342WAT     H131268   2.848   5.535   6.067
10342WAT     H231269   2.912   5.532   6.218
10343WAT      O31270   9.755   6.306   4.071
10343WAT     H131271   9.672   6.351   4.036
10343WAT     H231272   9.836   6.355   4.038
10344WAT      O31273   8.334   4.990   9.107
10344WAT     H131274   8.299   4.897   9.118
10344WAT     H231275   8.375   5.000   9.017
10345WAT      O31276   6.036   9.298   3.377
10345WAT     H131277   6.099   9.333   3.308
10345WAT     H231278   6.069   9.209   3.410
10346WAT      O31279   1.844   2.560   3.667
10346WAT     H131280   1.912   2.620   3.708
10346WAT     H231281   1.889   2.483   3.623
10347WAT      O31282   1.974   1.331   9.433
10347WAT     H131283   2.071   1.308   9.438
10347WAT     H231284   1.940   1.354   9.524
10348WAT      O31285   1.105   3.857   9.401
10348WAT     H131286   1.151   3.881   9.486
10348WAT     H231287   1.016   3.817   9.422
10349WAT      O31288   0.649   0.397   3.231
10349WAT     H131289   0.698   0.327   3.179
10349WAT     H231290   0.629   0.475   3.172
10350WAT      O31291   6.377   8.769   3.684
10350WAT     H131292   6.342   8.775   3.777
10350WAT     H231293   6.476   8.753   3.687
10351WAT      O31294   0.691   7.504   0.057
10351WAT     H131295   0.630   7.571   0.099
10351WAT     H231296   0.687   7.418   0.108
10352WAT      O31297   5.831   6.913   9.799
10352WAT     H131298   5.919   6.865   9.793
10352WAT     H231299   5.777   6.874   9.874
10353WAT      O31300   9.865   7.685   8.034
10353WAT     H131301   9.862   7.606   7.972
10353WAT     H231302   9.961   7.710   8.050
10354WAT      O31303   3.043   3.570   7.160
10354WAT     H131304   3.043   3.659   7.115
10354WAT     H231305   3.038   3.582   7.259
10355WAT      O31306   3.583   7.035   8.807
10355WAT     H131307   3.567   6.945   8.847
10355WAT     H231308   3.497   7.073   8.774
10356WAT      O31309   7.456   3.687   1.122
10356WAT     H131310   7.484   3.686   1.218
10356WAT     H231311   7.431   3.594   1.094
10357WAT      O31312   7.754   0.140   2.861
10357WAT     H131313   7.751   0.042   2.842
10357WAT     H231314   7.815   0.157   2.939
10358WAT      O31315   4.689   9.420   1.986
10358WAT     H131316   4.719   9.500   2.038
10358WAT     H231317   4.678   9.444   1.890
10359WAT      O31318   3.173   2.784   8.358
10359WAT     H131319   3.128   2.699   8.330
10359WAT     H231320   3.124   2.862   8.318
10360WAT      O31321   7.612   1.750   0.548
10360WAT     H131322   7.515   1.735   0.566
10360WAT     H231323   7.662   1.665   0.567
10361WAT      O31324   0.779   7.010   7.103
10361WAT     H131325   0.712   7.043   7.036
10361WAT     H231326   0.731   6.977   7.184
10362WAT      O31327   2.154   4.958   4.812
10362WAT     H131328   2.076   5.018   4.794
10362WAT     H231329   2.218   5.003   4.873
10363WAT      O31330   2.439   2.245   7.590
10363WAT     H131331   2.508   2.235   7.518
10363WAT     H231332   2.462   2.187   7.668
10364WAT      O31333   7.884   7.794   0.031
10364WAT     H131334   7.887   7.784  -0.068
10364WAT     H231335   7.941   7.724   0.074
10365WAT      O31336   2.461   5.112   2.437
10365WAT     H131337   2.535   5.045   2.428
10365WAT     H231338   2.406   5.089   2.517
10366WAT      O31339   4.834   5.463   1.148
10366WAT     H131340   4.828   5.372   1.191
10366WAT     H231341   4.924   5.474   1.106
10367WAT      O31342   0.486   9.173   3.131
10367WAT     H131343   0.434   9.190   3.214
10367WAT     H231344   0.423   9.164   3.054
10368WAT      O31345   8.417   2.492   7.350
10368WAT     H131346   8.360   2.523   7.273
10368WAT     H231347   8.498   2.550   7.356
10369WAT      O31348   3.797   5.023   2.486
10369WAT     H131349   3.758   4.941   2.527
10369WAT     H231350   3.800   5.013   2.386
10370WAT      O31351   6.880   7.988   7.954
10370WAT     H131352   6.896   7.903   8.004
10370WAT     H231353   6.819   8.047   8.006
10371WAT      O31354   2.685   3.549   8.754
10371WAT     H131355   2.668   3.626   8.692
10371WAT     H231356   2.757   3.574   8.819
10372WAT      O31357   0.524   5.844   6.366
10372WAT     H131358   0.538   5.924   6.307
10372WAT     H231359   0.595   5.842   6.436
10373WAT      O31360   0.120   4.052   6.258
10373WAT     H131361   0.066   4.131   6.290
10373WAT     H231362   0.164   4.075   6.171
10374WAT      O31363   3.794   2.712   3.874
10374WAT     H131364   3.758   2.647   3.940
10374WAT     H231365   3.891   2.727   3.891
10375WAT      O31366   2.036   7.005   7.776
10375WAT     H131367   2.101   6.945   7.729
10375WAT     H231368   2.045   6.993   7.875
10376WAT      O31369   1.335   9.450   2.548
10376WAT     H131370   1.412   9.446   2.485
10376WAT     H231371   1.289   9.538   2.539
10377WAT      O31372   7.416   5.259   5.586
10377WAT     H131373   7.470   5.274   5.503
10377WAT     H231374   7.327   5.304   5.576
10378WAT      O31375   8.307   6.429   2.472
10378WAT     H131376   8.256   6.515   2.473
10378WAT     H231377   8.395   6.443   2.517
10379WAT      O31378   7.606   9.043   6.244
10379WAT     H131379   7.642   9.137   6.246
10379WAT     H231380   7.520   9.042   6.191
10380WAT      O31381   3.953   3.111   3.230
10380WAT     H131382   3.874   3.054   3.207
10380WAT     H231383   3.959   3.188   3.167
10381WAT      O31384   1.883   2.036  -0.001
10381WAT     H131385   1.934   2.113  -0.038
10381WAT     H231386   1.848   2.059   0.089
10382WAT      O31387   5.639   9.396   1.664
10382WAT     H131388   5.722   9.377   1.611
10382WAT     H231389   5.569   9.435   1.604
10383WAT      O31390   0.563   1.008   4.661
10383WAT     H131391   0.541   1.044   4.570
10383WAT     H231392   0.659   1.026   4.682
10384WAT      O31393   6.083   1.144   4.899
10384WAT     H131394   6.014   1.095   4.847
10384WAT     H231395   6.072   1.242   4.885
10385WAT      O31396   3.456   7.580   9.306
10385WAT     H131397   3.525   7.640   9.348
10385WAT     H231398   3.398   7.634   9.245
10386WAT      O31399   3.317   5.445   8.305
10386WAT     H131400   3.307   5.535   8.348
10386WAT     H231401   3.266   5.377   8.358
10387WAT      O31402   1.338   3.368   6.299
10387WAT     H131403   1.339   3.357   6.398
10387WAT     H231404   1.300   3.286   6.256
10388WAT      O31405   8.116   2.251   7.640
10388WAT     H131406   8.053   2.328   7.650
10388WAT     H231407   8.064   2.166   7.628
10389WAT      O31408   8.680   0.617   2.434
10389WAT     H131409   8.688   0.528   2.479
10389WAT     H231410   8.638   0.682   2.497
10390WAT      O31411   8.151   4.822   9.375
10390WAT     H131412   8.080   4.804   9.444
10390WAT     H231413   8.233   4.855   9.421
10391WAT      O31414   2.479   7.951   6.750
10391WAT     H131415   2.576   7.966   6.766
10391WAT     H231416   2.443   8.021   6.689
10392WAT      O31417   0.823   6.520   8.177
10392WAT     H131418   0.895   6.535   8.245
10392WAT     H231419   0.754   6.460   8.216
10393WAT      O31420   7.841   3.489   3.090
10393WAT     H131421   7.756   3.504   3.141
10393WAT     H231422   7.842   3.395   3.055
10394WAT      O31423   4.714   6.407   8.791
10394WAT     H131424   4.724   6.491   8.843
10394WAT     H231425   4.737   6.329   8.850
10395WAT      O31426   5.512   9.463   3.446
10395WAT     H131427   5.597   9.509   3.470
10395WAT     H231428   5.444   9.532   3.420
10396WAT      O31429   9.562   7.424   5.664
10396WAT     H131430   9.575   7.458   5.757
10396WAT     H231431   9.568   7.324   5.664
10397WAT      O31432   3.768   6.195   5.627
10397WAT     H131433   3.677   6.228   5.652
10397WAT     H231434   3.833   6.218   5.699
10398WAT      O31435   7.484   8.421   6.277
10398WAT     H131436   7.415   8.494   6.273
10398WAT     H231437   7.557   8.449   6.340
10399WAT      O31438   7.779   2.204   3.245
10399WAT     H131439   7.709   2.152   3.196
10399WAT     H231440   7.814   2.150   3.321
10400WAT      O31441   3.764   5.267   3.854
10400WAT     H131442   3.833   5.225   3.914
10400WAT     H231443   3.810   5.312   3.777
10401WAT      O31444   4.093   1.569   9.037
10401WAT     H131445   4.181   1.575   8.990
10401WAT     H231446   4.019   1.569   8.970
10402WAT      O31447   8.481   0.469   9.454
10402WAT     H131448   8.449   0.522   9.532
10402WAT     H231449   8.577   0.444   9.467
10403WAT      O31450   2.227   2.112   2.623
10403WAT     H131451   2.196   2.103   2.718
10403WAT     H231452   2.261   2.024   2.591
10404WAT      O31453   0.400   6.093   0.963
10404WAT     H131454   0.478   6.044   1.001
10404WAT     H231455   0.316   6.042   0.981
10405WAT      O31456   2.391   1.395   1.753
10405WAT     H131457   2.325   1.445   1.698
10405WAT     H231458   2.484   1.418   1.725
10406WAT      O31459   0.727   2.373   4.219
10406WAT     H131460   0.783   2.366   4.136
10406WAT     H231461   0.632   2.355   4.196
10407WAT      O31462   9.327   2.272   9.827
10407WAT     H131463   9.362   2.223   9.748
10407WAT     H231464   9.349   2.369   9.819
10408WAT      O31465   9.514   5.616   5.079
10408WAT     H131466   9.415   5.625   5.094
10408WAT     H231467   9.547   5.533   5.124
10409WAT      O31468   2.845   5.094   6.423
10409WAT     H131469   2.818   5.057   6.334
10409WAT     H231470   2.790   5.174   6.444
10410WAT      O31471   2.834   9.528   3.710
10410WAT     H131472   2.898   9.601   3.736
10410WAT     H231473   2.766   9.565   3.647
10411WAT      O31474   9.268   3.543   7.165
10411WAT     H131475   9.244   3.576   7.256
10411WAT     H231476   9.368   3.540   7.156
10412WAT      O31477   8.364   4.967   7.448
10412WAT     H131478   8.447   4.927   7.485
10412WAT     H231479   8.333   5.041   7.508
10413WAT      O31480   0.228   7.110   5.091
10413WAT     H131481   0.251   7.113   5.189
10413WAT     H231482   0.182   7.194   5.065
10414WAT      O31483   3.444   6.472   1.682
10414WAT     H131484   3.362   6.430   1.641
10414WAT     H231485   3.525   6.441   1.633
10415WAT      O31486   3.595   2.238   4.091
10415WAT     H131487   3.667   2.224   4.159
10415WAT     H231488   3.532   2.160   4.092
10416WAT      O31489   5.162   5.426   2.764
10416WAT     H131490   5.175   5.508   2.819
10416WAT     H231491   5.240   5.364   2.777
10417WAT      O31492   4.682   1.840   5.230
10417WAT     H131493   4.758   1.901   5.209
10417WAT     H231494   4.620   1.835   5.152
10418WAT      O31495   3.445   7.596   6.857
10418WAT     H131496   3.397   7.582   6.770
10418WAT     H231497   3.399   7.668   6.909
10419WAT      O31498   1.407   2.407   4.490
10419WAT     H131499   1.398   2.505   4.507
10419WAT     H231500   1.439   2.392   4.397
10420WAT      O31501   2.926   3.309   8.546
10420WAT     H131502   3.000   3.253   8.583
10420WAT     H231503   2.946   3.405   8.563
10421WAT      O31504   2.015   6.420   0.138
10421WAT     H131505   2.002   6.324   0.115
10421WAT     H231506   2.034   6.472   0.055
10422WAT      O31507   2.583   6.631   0.342
10422WAT     H131508   2.507   6.624   0.277
10422WAT     H231509   2.577   6.718   0.391
10423WAT      O31510   9.465   0.456   1.716
10423WAT     H131511   9.384   0.397   1.714
10423WAT     H231512   9.496   0.467   1.810
10424WAT      O31513   7.333   0.436   2.984
10424WAT     H131514   7.416   0.441   2.928
10424WAT     H231515   7.349   0.373   3.061
10425WAT      O31516   0.592   0.812   6.432
10425WAT     H131517   0.589   0.742   6.504
10425WAT     H231518   0.510   0.806   6.376
10426WAT      O31519   3.015   0.877   7.820
10426WAT     H131520   3.058   0.805   7.874
10426WAT     H231521   3.077   0.907   7.748
10427WAT      O31522   7.789   8.755   2.928
10427WAT     H131523   7.834   8.708   2.851
10427WAT     H231524   7.731   8.828   2.893
10428WAT      O31525   6.046   8.193   7.368
10428WAT     H131526   6.029   8.287   7.396
10428WAT     H231527   6.025   8.132   7.444
10429WAT      O31528   1.069   6.444   7.148
10429WAT     H131529   1.116   6.361   7.178
10429WAT     H231530   0.996   6.466   7.212
10430WAT      O31531   4.676   4.440   8.068
10430WAT     H131532   4.687   4.366   8.135
10430WAT     H231533   4.580   4.446   8.040
10431WAT      O31534   6.476   3.397   0.991
10431WAT     H131535   6.435   3.335   0.924
10431WAT     H231536   6.531   3.345   1.056
10432WAT      O31537   7.020   5.540   5.208
10432WAT     H131538   6.978   5.627   5.182
10432WAT     H231539   6.971   5.464   5.165
10433WAT      O31540   0.947   6.580   4.985
10433WAT     H131541   0.934   6.648   4.912
10433WAT     H231542   0.880   6.595   5.057
10434WAT      O31543   6.527   9.222   0.052
10434WAT     H131544   6.475   9.274   0.120
10434WAT     H231545   6.513   9.262  -0.038
10435WAT      O31546   7.306   5.336   2.206
10435WAT     H131547   7.281   5.351   2.110
10435WAT     H231548   7.224   5.330   2.262
10436WAT      O31549   2.082   3.629   3.333
10436WAT     H131550   2.084   3.669   3.425
10436WAT     H231551   2.074   3.702   3.265
10437WAT      O31552   4.200   8.972   0.367
10437WAT     H131553   4.275   9.037   0.380
10437WAT     H231554   4.118   9.006   0.414
10438WAT      O31555   4.191   0.480   2.865
10438WAT     H131556   4.173   0.496   2.768
10438WAT     H231557   4.136   0.543   2.920
10439WAT      O31558   3.176   0.225   5.381
10439WAT     H131559   3.193   0.242   5.284
10439WAT     H231560   3.082   0.247   5.403
10440WAT      O31561   5.225   8.639   7.686
10440WAT     H131562   5.258   8.598   7.771
10440WAT     H231563   5.133   8.604   7.666
10441WAT      O31564   2.842   6.820   1.490
10441WAT     H131565   2.886   6.803   1.578
10441WAT     H231566   2.835   6.735   1.439
10442WAT      O31567   1.460   2.734   1.842
10442WAT     H131568   1.513   2.780   1.913
10442WAT     H231569   1.415   2.802   1.784
10443WAT      O31570   0.932   5.057   9.204
10443WAT     H131571   1.002   5.124   9.181
10443WAT     H231572   0.848   5.104   9.229
10444WAT      O31573   4.821   7.947   5.732
10444WAT     H131574   4.754   8.022   5.736
10444WAT     H231575   4.810   7.888   5.812
10445WAT      O31576   2.573   4.993   9.839
10445WAT     H131577   2.631   4.917   9.811
10445WAT     H231578   2.629   5.075   9.851
10446WAT      O31579   8.077   5.366   5.285
10446WAT     H131580   8.029   5.388   5.200
10446WAT     H231581   8.132   5.444   5.314
10447WAT      O31582   7.796   5.650   0.785
10447WAT     H131583   7.832   5.560   0.763
10447WAT     H231584   7.825   5.676   0.877
10448WAT      O31585   1.026   6.759   3.187
10448WAT     H131586   1.029   6.857   3.206
10448WAT     H231587   1.116   6.719   3.207
10449WAT      O31588   2.001   9.706   7.556
10449WAT     H131589   2.055   9.787   7.534
10449WAT     H231590   2.036   9.628   7.504
10450WAT      O31591   9.749   2.835   5.612
10450WAT     H131592   9.705   2.924   5.595
10450WAT     H231593   9.688   2.762   5.584
10451WAT      O31594   2.982   7.398   1.953
10451WAT     H131595   3.042   7.343   2.011
10451WAT     H231596   2.891   7.403   1.994
10452WAT      O31597   6.152   9.841   1.332
10452WAT     H131598   6.143   9.763   1.270
10452WAT     H231599   6.095   9.826   1.413
10453WAT      O31600   1.813   6.565   1.849
10453WAT     H131601   1.746   6.490   1.845
10453WAT     H231602   1.840   6.580   1.944
10454WAT      O31603   7.050   8.114   6.101
10454WAT     H131604   7.073   8.023   6.134
10454WAT     H231605   7.109   8.138   6.024
10455WAT      O31606   7.382   6.773   1.612
10455WAT     H131607   7.475   6.739   1.626
10455WAT     H231608   7.385   6.855   1.555
10456WAT      O31609   6.421   0.189   7.178
10456WAT     H131610   6.408   0.289   7.181
10456WAT     H231611   6.481   0.162   7.254
10457WAT      O31612   4.664   4.441   3.319
10457WAT     H131613   4.756   4.472   3.296
10457WAT     H231614   4.625   4.499   3.390
10458WAT      O31615   1.607   0.697   7.286
10458WAT     H131616   1.685   0.647   7.325
10458WAT     H231617   1.524   0.644   7.299
10459WAT      O31618   2.950   0.746   1.196
10459WAT     H131619   2.980   0.763   1.290
10459WAT     H231620   2.992   0.814   1.135
10460WAT      O31621   2.328   0.408   2.411
10460WAT     H131622   2.255   0.412   2.478
10460WAT     H231623   2.362   0.314   2.403
10461WAT      O31624   6.136   4.439   0.521
10461WAT     H131625   6.116   4.341   0.521
10461WAT     H231626   6.051   4.491   0.524
10462WAT      O31627   5.098   5.831   9.594
10462WAT     H131628   5.174   5.768   9.611
10462WAT     H231629   5.099   5.904   9.662
10463WAT      O31630   0.929   0.771   8.661
10463WAT     H131631   0.986   0.704   8.707
10463WAT     H231632   0.942   0.764   8.562
10464WAT      O31633   7.558   4.452   4.390
10464WAT     H131634   7.611   4.369   4.402
10464WAT     H231635   7.501   4.468   4.470
10465WAT      O31636   8.083   0.722   6.775
10465WAT     H131637   7.999   0.709   6.827
10465WAT     H231638   8.159   0.739   6.837
10466WAT      O31639   0.673   4.958   1.958
10466WAT     H131640   0.625   4.929   1.875
10466WAT     H231641   0.675   4.882   2.023
10467WAT      O31642   5.078   3.360   6.825
10467WAT     H131643   5.173   3.342   6.850
10467WAT     H231644   5.060   3.458   6.830
10468WAT      O31645   0.482   7.234   1.076
10468WAT     H131646   0.537   7.316   1.066
10468WAT     H231647   0.387   7.254   1.051
10469WAT      O31648   6.090   0.134   0.034
10469WAT     H131649   6.031   0.085   0.099
10469WAT     H231650   6.057   0.228   0.024
10470WAT      O31651   6.504   8.326   4.703
10470WAT     H131652   6.559   8.409   4.711
10470WAT     H231653   6.462   8.306   4.792
10471WAT      O31654   0.108   5.858   3.071
10471WAT     H131655   0.043   5.918   3.024
10471WAT     H231656   0.071   5.765   3.074
10472WAT      O31657   8.025   2.597   7.331
10472WAT     H131658   8.108   2.585   7.278
10472WAT     H231659   7.992   2.690   7.321
10473WAT      O31660   2.023   4.633   3.560
10473WAT     H131661   2.120   4.610   3.562
10473WAT     H231662   2.003   4.700   3.632
10474WAT      O31663   5.410   3.203   1.076
10474WAT     H131664   5.488   3.144   1.094
10474WAT     H231665   5.377   3.188   0.983
10475WAT      O31666   3.811   8.934   1.872
10475WAT     H131667   3.739   9.003   1.880
10475WAT     H231668   3.865   8.952   1.790
10476WAT      O31669   5.664   4.898   2.696
10476WAT     H131670   5.717   4.950   2.629
10476WAT     H231671   5.691   4.802   2.693
10477WAT      O31672   2.432   2.771   2.594
10477WAT     H131673   2.344   2.810   2.566
10477WAT     H231674   2.497   2.845   2.611
10478WAT      O31675   0.136   3.786   9.858
10478WAT     H131676   0.233   3.788   9.837
10478WAT     H231677   0.117   3.844   9.937
10479WAT      O31678   3.065   0.044   5.775
10479WAT     H131679   3.086   0.025   5.679
10479WAT     H231680   3.066  -0.041   5.827
10480WAT      O31681   2.334   1.272   0.669
10480WAT     H131682   2.419   1.263   0.618
10480WAT     H231683   2.317   1.188   0.720
10481WAT      O31684   5.049   8.860   6.152
10481WAT     H131685   5.128   8.803   6.174
10481WAT     H231686   5.074   8.924   6.079
10482WAT      O31687   5.586   6.275   7.123
10482WAT     H131688   5.625   6.231   7.204
10482WAT     H231689   5.523   6.348   7.150
10483WAT      O31690   0.402   0.559   3.154
10483WAT     H131691   0.319   0.573   3.208
10483WAT     H231692   0.378   0.522   3.064
10484WAT      O31693   3.809   2.174   1.296
10484WAT     H131694   3.740   2.189   1.225
10484WAT     H231695   3.778   2.215   1.382
10485WAT      O31696   9.744   3.762   9.403
10485WAT     H131697   9.656   3.731   9.438
10485WAT     H231698   9.794   3.809   9.476
10486WAT      O31699   7.629   8.856   7.248
10486WAT     H131700   7.546   8.848   7.193
10486WAT     H231701   7.651   8.953   7.262
10487WAT      O31702   1.549   0.685   6.985
10487WAT     H131703   1.560   0.688   7.084
10487WAT     H231704   1.640   0.683   6.942
10488WAT      O31705   2.166   6.258   6.995
10488WAT     H131706   2.142   6.350   7.025
10488WAT     H231707   2.146   6.193   7.068
10489WAT      O31708   3.977   1.779   6.837
10489WAT     H131709   4.045   1.709   6.856
10489WAT     H231710   4.020   1.869   6.841
10490WAT      O31711   0.928   1.831   5.812
10490WAT     H131712   0.969   1.769   5.745
10490WAT     H231713   0.831   1.843   5.791
10491WAT      O31714   4.208   8.320   5.413
10491WAT     H131715   4.203   8.221   5.398
10491WAT     H231716   4.303   8.346   5.429
10492WAT      O31717   3.260   2.447   6.280
10492WAT     H131718   3.196   2.387   6.327
10492WAT     H231719   3.350   2.439   6.323
10493WAT      O31720   6.817   2.110   4.331
10493WAT     H131721   6.769   2.022   4.327
10493WAT     H231722   6.908   2.096   4.370
10494WAT      O31723   3.166   0.159   3.161
10494WAT     H131724   3.119   0.207   3.086
10494WAT     H231725   3.162   0.215   3.244
10495WAT      O31726   3.117   1.361   0.497
10495WAT     H131727   3.049   1.409   0.552
10495WAT     H231728   3.090   1.265   0.489
10496WAT      O31729   9.347   2.984   9.360
10496WAT     H131730   9.389   2.894   9.365
10496WAT     H231731   9.338   3.022   9.453
10497WAT      O31732   5.314   0.095   7.654
10497WAT     H131733   5.282   0.170   7.596
10497WAT     H231734   5.238   0.059   7.707
10498WAT      O31735   4.886   0.134   0.185
10498WAT     H131736   4.955   0.199   0.151
10498WAT     H231737   4.919   0.091   0.269
10499WAT      O31738   2.552   8.757   9.633
10499WAT     H131739   2.567   8.829   9.701
10499WAT     H231740   2.629   8.756   9.569
10500WAT      O31741   3.701   8.858   8.610
10500WAT     H131742   3.626   8.914   8.644
10500WAT     H231743   3.786   8.884   8.656
10501WAT      O31744   1.418   7.107   3.733
10501WAT     H131745   1.400   7.096   3.831
10501WAT     H231746   1.509   7.147   3.720
10502WAT      O31747   5.285   8.868   7.564
10502WAT     H131748   5.267   8.776   7.599
10502WAT     H231749   5.216   8.892   7.495
10503WAT      O31750   1.697   1.430   8.865
10503WAT     H131751   1.791   1.395   8.858
10503WAT     H231752   1.692   1.520   8.823
10504WAT      O31753   3.518   1.351   4.062
10504WAT     H131754   3.420   1.364   4.051
10504WAT     H231755   3.551   1.289   3.991
10505WAT      O31756   7.867   2.629   6.622
10505WAT     H131757   7.823   2.554   6.572
10505WAT     H231758   7.805   2.708   6.625
10506WAT      O31759   3.133   1.959   7.023
10506WAT     H131760   3.196   1.959   7.101
10506WAT     H231761   3.040   1.939   7.056
10507WAT      O31762   5.604   6.500   8.952
10507WAT     H131763   5.590   6.401   8.961
10507WAT     H231764   5.674   6.517   8.882
10508WAT      O31765   7.316   6.040   1.893
10508WAT     H131766   7.338   5.943   1.909
10508WAT     H231767   7.391   6.097   1.927
10509WAT      O31768   6.729   7.380   8.092
10509WAT     H131769   6.731   7.283   8.117
10509WAT     H231770   6.811   7.425   8.129
10510WAT      O31771   1.035   4.883   3.510
10510WAT     H131772   0.973   4.835   3.448
10510WAT     H231773   1.101   4.818   3.547
10511WAT      O31774   1.562   2.523   8.022
10511WAT     H131775   1.567   2.554   7.927
10511WAT     H231776   1.551   2.424   8.025
10512WAT      O31777   7.424   1.488   8.604
10512WAT     H131778   7.515   1.524   8.581
10512WAT     H231779   7.373   1.557   8.656
10513WAT      O31780   9.725   5.342   0.476
10513WAT     H131781   9.742   5.408   0.549
10513WAT     H231782   9.679   5.388   0.400
10514WAT      O31783   8.642   3.910   8.147
10514WAT     H131784   8.574   3.982   8.156
10514WAT     H231785   8.687   3.894   8.235
10515WAT      O31786   1.181   5.755   3.160
10515WAT     H131787   1.168   5.855   3.157
10515WAT     H231788   1.218   5.729   3.249
10516WAT      O31789   0.139   3.320   4.823
10516WAT     H131790   0.232   3.349   4.801
10516WAT     H231791   0.113   3.244   4.764
10517WAT      O31792   7.981   1.348   6.541
10517WAT     H131793   7.909   1.312   6.600
10517WAT     H231794   8.011   1.277   6.478
10518WAT      O31795   0.577   8.094   2.519
10518WAT     H131796   0.601   8.161   2.590
10518WAT     H231797   0.660   8.056   2.480
10519WAT      O31798   8.632   3.927   4.338
10519WAT     H131799   8.590   3.914   4.248
10519WAT     H231800   8.686   4.011   4.338
10520WAT      O31801   4.940   1.437   6.046
10520WAT     H131802   5.032   1.412   6.016
10520WAT     H231803   4.875   1.367   6.017
10521WAT      O31804   6.248   0.847   3.929
10521WAT     H131805   6.170   0.884   3.979
10521WAT     H231806   6.216   0.801   3.846
10522WAT      O31807   2.757   9.271   9.061
10522WAT     H131808   2.694   9.310   9.128
10522WAT     H231809   2.709   9.201   9.008
10523WAT      O31810   4.105   0.662   0.566
10523WAT     H131811   4.147   0.609   0.493
10523WAT     H231812   4.158   0.745   0.581
10524WAT      O31813   2.282   0.499   2.829
10524WAT     H131814   2.183   0.514   2.823
10524WAT     H231815   2.302   0.445   2.911
10525WAT      O31816   8.162   9.382   8.488
10525WAT     H131817   8.145   9.332   8.403
10525WAT     H231818   8.255   9.418   8.488
10526WAT      O31819   5.257   9.501   9.397
10526WAT     H131820   5.204   9.546   9.469
10526WAT     H231821   5.355   9.520   9.411
10527WAT      O31822   4.996   5.534   7.783
10527WAT     H131823   5.028   5.580   7.700
10527WAT     H231824   4.935   5.596   7.833
10528WAT      O31825   4.559   3.011   1.127
10528WAT     H131826   4.557   2.920   1.170
10528WAT     H231827   4.503   3.074   1.181
10529WAT      O31828   4.062   6.459   3.582
10529WAT     H131829   4.030   6.524   3.652
10529WAT     H231830   4.130   6.504   3.525
10530WAT      O31831   6.114   7.989   4.905
10530WAT     H131832   6.210   8.016   4.908
10530WAT     H231833   6.106   7.904   4.852
10531WAT      O31834   8.475   9.444   8.200
10531WAT     H131835   8.560   9.404   8.234
10531WAT     H231836   8.497   9.525   8.145
10532WAT      O31837   0.561   5.509   5.137
10532WAT     H131838   0.470   5.484   5.170
10532WAT     H231839   0.627   5.440   5.168
10533WAT      O31840   7.244   7.469   1.048
10533WAT     H131841   7.245   7.372   1.022
10533WAT     H231842   7.158   7.491   1.093
10534WAT      O31843   0.734   4.684   2.395
10534WAT     H131844   0.782   4.758   2.442
10534WAT     H231845   0.796   4.638   2.331
10535WAT      O31846   2.025   3.267   9.134
10535WAT     H131847   2.070   3.191   9.087
10535WAT     H231848   2.053   3.267   9.230
10536WAT      O31849   2.027   8.204   5.998
10536WAT     H131850   1.971   8.126   5.972
10536WAT     H231851   2.084   8.231   5.920
10537WAT      O31852   0.258   4.251   7.562
10537WAT     H131853   0.254   4.336   7.510
10537WAT     H231854   0.332   4.193   7.525
10538WAT      O31855   7.864   0.100   3.548
10538WAT     H131856   7.882   0.060   3.637
10538WAT     H231857   7.794   0.171   3.557
10539WAT      O31858   6.875   3.187   0.102
10539WAT     H131859   6.862   3.141   0.015
10539WAT     H231860   6.959   3.155   0.145
10540WAT      O31861   6.583   1.161   2.364
10540WAT     H131862   6.647   1.086   2.380
10540WAT     H231863   6.601   1.202   2.275
10541WAT      O31864   1.219   1.225   7.241
10541WAT     H131865   1.198   1.194   7.334
10541WAT     H231866   1.295   1.170   7.204
10542WAT      O31867   1.670   3.123   3.648
10542WAT     H131868   1.711   3.077   3.569
10542WAT     H231869   1.729   3.110   3.728
10543WAT      O31870   9.374   8.865   9.841
10543WAT     H131871   9.294   8.926   9.841
10543WAT     H231872   9.448   8.908   9.790
10544WAT      O31873   4.657   6.958   2.269
10544WAT     H131874   4.615   7.048   2.255
10544WAT     H231875   4.714   6.936   2.190
10545WAT      O31876   1.109   4.038   6.293
10545WAT     H131877   1.134   4.015   6.199
10545WAT     H231878   1.092   4.136   6.300
10546WAT      O31879   7.116   2.165   5.126
10546WAT     H131880   7.095   2.083   5.178
10546WAT     H231881   7.033   2.218   5.111
10547WAT      O31882   3.401   9.151   0.530
10547WAT     H131883   3.401   9.140   0.629
10547WAT     H231884   3.472   9.216   0.503
10548WAT      O31885   4.714   3.225   7.598
10548WAT     H131886   4.740   3.200   7.691
10548WAT     H231887   4.647   3.158   7.564
10549WAT      O31888   9.131   2.008   2.821
10549WAT     H131889   9.060   2.069   2.786
10549WAT     H231890   9.089   1.931   2.869
10550WAT      O31891   0.169   7.790   6.071
10550WAT     H131892   0.100   7.821   6.006
10550WAT     H231893   0.159   7.841   6.157
10551WAT      O31894   4.357   5.198   3.221
10551WAT     H131895   4.333   5.102   3.207
10551WAT     H231896   4.388   5.212   3.315
10552WAT      O31897   0.890   2.417   2.301
10552WAT     H131898   0.909   2.491   2.236
10552WAT     H231899   0.796   2.385   2.287
10553WAT      O31900   9.041   7.207   8.843
10553WAT     H131901   8.942   7.220   8.839
10553WAT     H231902   9.067   7.129   8.785
10554WAT      O31903   3.594   8.184   1.694
10554WAT     H131904   3.636   8.093   1.704
10554WAT     H231905   3.510   8.176   1.641
10555WAT      O31906   3.078   0.914   2.449
10555WAT     H131907   3.076   0.961   2.537
10555WAT     H231908   3.115   0.975   2.379
10556WAT      O31909   0.683   7.557   1.976
10556WAT     H131910   0.774   7.525   1.949
10556WAT     H231911   0.691   7.640   2.031
10557WAT      O31912   9.698   3.218   5.782
10557WAT     H131913   9.667   3.270   5.861
10557WAT     H231914   9.671   3.122   5.792
10558WAT      O31915   7.099   7.690   4.259
10558WAT     H131916   7.033   7.698   4.185
10558WAT     H231917   7.055   7.708   4.347
10559WAT      O31918   0.963   8.541   4.047
10559WAT     H131919   1.003   8.613   3.990
10559WAT     H231920   0.953   8.575   4.141
10560WAT      O31921   4.395   0.430   1.560
10560WAT     H131922   4.369   0.411   1.654
10560WAT     H231923   4.442   0.350   1.522
10561WAT      O31924   8.893   3.240   8.494
10561WAT     H131925   8.888   3.140   8.490
10561WAT     H231926   8.801   3.278   8.489
10562WAT      O31927   0.850   2.628   4.773
10562WAT     H131928   0.900   2.541   4.769
10562WAT     H231929   0.847   2.660   4.867
10563WAT      O31930   2.428   1.114   2.801
10563WAT     H131931   2.414   1.029   2.852
10563WAT     H231932   2.487   1.095   2.722
10564WAT      O31933   0.548   3.799   8.551
10564WAT     H131934   0.598   3.885   8.557
10564WAT     H231935   0.452   3.817   8.529
10565WAT      O31936   6.378   9.257   9.289
10565WAT     H131937   6.418   9.168   9.269
10565WAT     H231938   6.278   9.252   9.282
10566WAT      O31939   0.648   5.886   9.826
10566WAT     H131940   0.571   5.951   9.829
10566WAT     H231941   0.678   5.875   9.731
10567WAT      O31942   9.780   5.665   4.721
10567WAT     H131943   9.719   5.587   4.734
10567WAT     H231944   9.845   5.669   4.797
10568WAT      O31945   7.619   7.113   5.534
10568WAT     H131946   7.714   7.124   5.562
10568WAT     H231947   7.611   7.039   5.468
10569WAT      O31948   1.580   9.095   9.513
10569WAT     H131949   1.665   9.099   9.566
10569WAT     H231950   1.535   9.007   9.529
10570WAT      O31951   1.024   4.592   6.047
10570WAT     H131952   0.949   4.611   5.984
10570WAT     H231953   0.995   4.613   6.140
10571WAT      O31954   9.230   4.155   9.274
10571WAT     H131955   9.251   4.139   9.370
10571WAT     H231956   9.304   4.118   9.217
10572WAT      O31957   5.036   9.001   1.985
10572WAT     H131958   4.973   9.075   1.961
10572WAT     H231959   5.130   9.033   1.979
10573WAT      O31960   0.713   2.941   0.363
10573WAT     H131961   0.761   2.856   0.388
10573WAT     H231962   0.777   3.017   0.365
10574WAT      O31963   7.323   7.611   4.683
10574WAT     H131964   7.400   7.629   4.622
10574WAT     H231965   7.312   7.513   4.694
10575WAT      O31966   3.197   1.390   6.365
10575WAT     H131967   3.191   1.357   6.459
10575WAT     H231968   3.121   1.351   6.312
10576WAT      O31969   8.010   0.887   7.800
10576WAT     H131970   8.068   0.869   7.880
10576WAT     H231971   7.982   0.800   7.759
10577WAT      O31972   0.988   0.866   1.094
10577WAT     H131973   0.966   0.945   1.151
10577WAT     H231974   0.903   0.824   1.062
10578WAT      O31975   0.570   4.235   2.245
10578WAT     H131976   0.496   4.249   2.311
10578WAT     H231977   0.642   4.180   2.287
10579WAT      O31978   5.183   5.380   6.799
10579WAT     H131979   5.120   5.458   6.803
10579WAT     H231980   5.258   5.401   6.736
10580WAT      O31981   0.987   3.693   6.127
10580WAT     H131982   0.953   3.787   6.133
10580WAT     H231983   0.911   3.629   6.139
10581WAT      O31984   6.116   8.313   4.562
10581WAT     H131985   6.092   8.285   4.469
10581WAT     H231986   6.216   8.323   4.568
10582WAT      O31987   1.761   0.634   1.428
10582WAT     H131988   1.689   0.670   1.488
10582WAT     H231989   1.740   0.658   1.333
10583WAT      O31990   2.479   7.801   8.867
10583WAT     H131991   2.575   7.826   8.881
10583WAT     H231992   2.444   7.849   8.786
10584WAT      O31993   8.754   8.798   2.177
10584WAT     H131994   8.750   8.705   2.212
10584WAT     H231995   8.739   8.862   2.253
10585WAT      O31996   7.926   9.537   0.584
10585WAT     H131997   7.922   9.526   0.484
10585WAT     H231998   7.947   9.449   0.626
10586WAT      O31999   8.283   1.890   9.319
10586WAT     H132000   8.186   1.869   9.302
10586WAT     H232001   8.303   1.983   9.288
10587WAT      O32002   7.810   8.636   6.140
10587WAT     H132003   7.880   8.701   6.111
10587WAT     H232004   7.833   8.545   6.106
10588WAT      O32005   6.793   6.285   7.420
10588WAT     H132006   6.854   6.360   7.397
10588WAT     H232007   6.820   6.203   7.371
10589WAT      O32008   9.311   7.108   5.094
10589WAT     H132009   9.309   7.206   5.113
10589WAT     H232010   9.315   7.057   5.180
10590WAT      O32011   3.868   5.474   0.144
10590WAT     H132012   3.873   5.457   0.242
10590WAT     H232013   3.853   5.571   0.128
10591WAT      O32014   6.258   4.190   6.999
10591WAT     H132015   6.283   4.102   7.039
10591WAT     H232016   6.162   4.188   6.972
10592WAT      O32017   0.983   2.002   2.074
10592WAT     H132018   1.008   2.071   2.006
10592WAT     H232019   1.041   2.013   2.155
10593WAT      O32020   4.822   7.004   1.284
10593WAT     H132021   4.834   6.965   1.193
10593WAT     H232022   4.899   7.064   1.305
10594WAT      O32023   8.087   4.179   6.020
10594WAT     H132024   8.137   4.265   6.034
10594WAT     H232025   8.144   4.102   6.049
10595WAT      O32026   7.958   1.690   0.389
10595WAT     H132027   7.933   1.787   0.389
10595WAT     H232028   8.042   1.678   0.336
10596WAT      O32029   2.740   6.210   5.017
10596WAT     H132030   2.753   6.112   5.037
10596WAT     H232031   2.829   6.257   5.023
10597WAT      O32032   6.985   0.609   3.761
10597WAT     H132033   6.948   0.561   3.681
10597WAT     H232034   7.029   0.543   3.822
10598WAT      O32035   4.640   7.990   0.459
10598WAT     H132036   4.587   8.069   0.428
10598WAT     H232037   4.666   7.934   0.381
10599WAT      O32038   9.636   4.944   8.634
10599WAT     H132039   9.700   4.887   8.686
10599WAT     H232040   9.564   4.887   8.595
10600WAT      O32041   0.369   1.215   0.634
10600WAT     H132042   0.412   1.242   0.548
10600WAT     H232043   0.270   1.207   0.621
10601WAT      O32044   2.174   1.876   0.667
10601WAT     H132045   2.111   1.820   0.612
10601WAT     H232046   2.122   1.925   0.737
10602WAT      O32047   9.016   8.311   6.819
10602WAT     H132048   9.103   8.261   6.815
10602WAT     H232049   9.034   8.406   6.847
10603WAT      O32050   5.611   6.459   2.126
10603WAT     H132051   5.598   6.556   2.105
10603WAT     H232052   5.569   6.437   2.214
10604WAT      O32053   3.553   7.704   2.402
10604WAT     H132054   3.618   7.738   2.335
10604WAT     H232055   3.574   7.609   2.424
10605WAT      O32056   6.809   6.981   1.357
10605WAT     H132057   6.796   6.901   1.415
10605WAT     H232058   6.722   7.027   1.344
10606WAT      O32059   3.971   3.952   6.365
10606WAT     H132060   3.956   3.960   6.463
10606WAT     H232061   3.962   4.042   6.323
10607WAT      O32062   7.493   0.815   9.285
10607WAT     H132063   7.548   0.851   9.361
10607WAT     H232064   7.432   0.887   9.251
10608WAT      O32065   1.747   0.873   0.088
10608WAT     H132066   1.820   0.867   0.155
10608WAT     H232067   1.742   0.967   0.053
10609WAT      O32068   4.872   1.537   4.248
10609WAT     H132069   4.805   1.538   4.173
10609WAT     H232070   4.942   1.607   4.231
10610WAT      O32071   6.942   6.356   7.889
10610WAT     H132072   6.965   6.424   7.819
10610WAT     H232073   6.902   6.275   7.846
10611WAT      O32074   8.962   2.317   8.207
10611WAT     H132075   8.863   2.330   8.205
10611WAT     H232076   8.982   2.224   8.240
10612WAT      O32077   1.533   6.487   9.287
10612WAT     H132078   1.627   6.468   9.315
10612WAT     H232079   1.473   6.412   9.315
10613WAT      O32080   6.388   5.629   5.621
10613WAT     H132081   6.482   5.662   5.615
10613WAT     H232082   6.381   5.563   5.696
10614WAT      O32083   5.124   7.913   4.753
10614WAT     H132084   5.127   8.011   4.730
10614WAT     H232085   5.215   7.885   4.785
10615WAT      O32086   6.280   0.848   0.278
10615WAT     H132087   6.319   0.850   0.370
10615WAT     H232088   6.185   0.877   0.281
10616WAT      O32089   7.269   7.321   6.585
10616WAT     H132090   7.287   7.400   6.645
10616WAT     H232091   7.355   7.289   6.546
10617WAT      O32092   6.972   9.580   5.123
10617WAT     H132093   6.987   9.490   5.165
10617WAT     H232094   6.900   9.573   5.054
10618WAT      O32095   5.162   2.416   8.856
10618WAT     H132096   5.162   2.360   8.773
10618WAT     H232097   5.256   2.428   8.887
10619WAT      O32098   5.276   0.980   0.602
10619WAT     H132099   5.244   0.906   0.660
10619WAT     H232100   5.201   1.043   0.583
10620WAT      O32101   7.644   7.912   0.978
10620WAT     H132102   7.731   7.899   1.025
10620WAT     H232103   7.659   7.960   0.891
10621WAT      O32104   1.746   3.766   9.080
10621WAT     H132105   1.768   3.841   9.142
10621WAT     H232106   1.648   3.747   9.086
10622WAT      O32107   0.680   3.030   7.786
10622WAT     H132108   0.678   3.122   7.748
10622WAT     H232109   0.587   3.001   7.808
10623WAT      O32110   3.534   4.169   6.679
10623WAT     H132111   3.455   4.152   6.620
10623WAT     H232112   3.611   4.115   6.647
10624WAT      O32113   5.496   2.284   7.040
10624WAT     H132114   5.493   2.195   6.996
10624WAT     H232115   5.549   2.279   7.124
10625WAT      O32116   1.786   1.935   7.310
10625WAT     H132117   1.791   2.004   7.382
10625WAT     H232118   1.706   1.951   7.253
10626WAT      O32119   8.101   9.646   1.391
10626WAT     H132120   8.200   9.647   1.407
10626WAT     H232121   8.053   9.669   1.475
10627WAT      O32122   7.735   2.802   1.435
10627WAT     H132123   7.651   2.767   1.394
10627WAT     H232124   7.723   2.899   1.456
10628WAT      O32125   4.529   1.524   2.089
10628WAT     H132126   4.616   1.506   2.042
10628WAT     H232127   4.544   1.589   2.163
10629WAT      O32128   3.881   0.263   1.276
10629WAT     H132129   3.845   0.242   1.185
10629WAT     H232130   3.810   0.245   1.345
10630WAT      O32131   7.826   0.585   1.152
10630WAT     H132132   7.887   0.607   1.229
10630WAT     H232133   7.878   0.590   1.067
10631WAT      O32134   2.560   2.739   2.094
10631WAT     H132135   2.570   2.837   2.110
10631WAT     H232136   2.505   2.699   2.168
10632WAT      O32137   6.251   9.059   7.843
10632WAT     H132138   6.186   9.003   7.793
10632WAT     H232139   6.206   9.142   7.875
10633WAT      O32140   6.417   7.297   0.984
10633WAT     H132141   6.343   7.230   0.983
10633WAT     H232142   6.504   7.250   0.974
10634WAT      O32143   6.562   5.581   8.216
10634WAT     H132144   6.644   5.630   8.244
10634WAT     H232145   6.584   5.519   8.141
10635WAT      O32146   8.889   2.195   0.329
10635WAT     H132147   8.830   2.167   0.404
10635WAT     H232148   8.965   2.130   0.321
10636WAT      O32149   2.445   1.557   9.180
10636WAT     H132150   2.540   1.560   9.147
10636WAT     H232151   2.394   1.487   9.130
10637WAT      O32152   5.557   7.919   3.950
10637WAT     H132153   5.609   7.999   3.981
10637WAT     H232154   5.569   7.908   3.851
10638WAT      O32155   9.554   9.451   6.511
10638WAT     H132156   9.463   9.486   6.533
10638WAT     H232157   9.547   9.368   6.456
10639WAT      O32158   4.859   9.822   5.821
10639WAT     H132159   4.948   9.792   5.787
10639WAT     H232160   4.872   9.892   5.891
10640WAT      O32161   3.869   3.844   7.127
10640WAT     H132162   3.912   3.922   7.083
10640WAT     H232163   3.858   3.862   7.225
10641WAT      O32164   5.855   7.994   1.225
10641WAT     H132165   5.886   7.904   1.194
10641WAT     H232166   5.922   8.031   1.290
10642WAT      O32167   5.007   5.713   6.093
10642WAT     H132168   5.001   5.811   6.075
10642WAT     H232169   5.101   5.689   6.119
10643WAT      O32170   3.533   5.762   4.813
10643WAT     H132171   3.629   5.788   4.826
10643WAT     H232172   3.490   5.749   4.903
10644WAT      O32173   4.207   6.368   7.824
10644WAT     H132174   4.237   6.459   7.853
10644WAT     H232175   4.284   6.319   7.783
10645WAT      O32176   6.073   3.035   5.993
10645WAT     H132177   6.007   3.077   6.056
10645WAT     H232178   6.161   3.024   6.039
10646WAT      O32179   3.854   5.323   2.870
10646WAT     H132180   3.878   5.397   2.807
10646WAT     H232181   3.903   5.240   2.842
10647WAT      O32182   6.903   2.358   4.082
10647WAT     H132183   6.875   2.394   3.993
10647WAT     H232184   6.926   2.261   4.072
10648WAT      O32185   6.354   1.043   6.344
10648WAT     H132186   6.385   0.963   6.396
10648WAT     H232187   6.296   1.100   6.401
10649WAT      O32188   7.988   3.294   8.781
10649WAT     H132189   8.073   3.346   8.788
10649WAT     H232190   7.929   3.316   8.858
10650WAT      O32191   4.840   1.274   2.622
10650WAT     H132192   4.909   1.294   2.552
10650WAT     H232193   4.786   1.356   2.640
10651WAT      O32194   5.159   1.373   7.543
10651WAT     H132195   5.164   1.324   7.631
10651WAT     H232196   5.157   1.471   7.560
10652WAT      O32197   5.843   0.136   2.108
10652WAT     H132198   5.778   0.114   2.035
10652WAT     H232199   5.936   0.136   2.071
10653WAT      O32200   3.772   7.067   6.466
10653WAT     H132201   3.679   7.084   6.432
10653WAT     H232202   3.792   7.132   6.540
10654WAT      O32203   4.289   7.060   9.418
10654WAT     H132204   4.325   7.040   9.509
10654WAT     H232205   4.229   6.986   9.389
10655WAT      O32206   5.337   9.052   7.874
10655WAT     H132207   5.301   9.124   7.815
10655WAT     H232208   5.272   8.976   7.877
10656WAT      O32209   1.813   9.206   6.164
10656WAT     H132210   1.815   9.152   6.248
10656WAT     H232211   1.718   9.218   6.135
10657WAT      O32212   7.911   7.549   3.312
10657WAT     H132213   7.882   7.624   3.253
10657WAT     H232214   7.967   7.485   3.259
10658WAT      O32215   0.722   1.910   2.359
10658WAT     H132216   0.725   1.957   2.271
10658WAT     H232217   0.777   1.960   2.426
10659WAT      O32218   3.326   2.923   7.584
10659WAT     H132219   3.326   3.000   7.520
10659WAT     H232220   3.259   2.855   7.556
10660WAT      O32221   3.045   0.402   7.632
10660WAT     H132222   3.116   0.443   7.690
10660WAT     H232223   2.957   0.446   7.650
10661WAT      O32224   4.460   0.573   6.270
10661WAT     H132225   4.428   0.504   6.335
10661WAT     H232226   4.529   0.533   6.210
10662WAT      O32227   5.179   7.510   8.187
10662WAT     H132228   5.232   7.440   8.235
10662WAT     H232229   5.110   7.466   8.130
10663WAT      O32230   1.745   5.857   3.820
10663WAT     H132231   1.650   5.882   3.804
10663WAT     H232232   1.779   5.804   3.742
10664WAT      O32233   5.958   9.150   0.529
10664WAT     H132234   5.874   9.106   0.498
10664WAT     H232235   5.979   9.228   0.470
10665WAT      O32236   0.380   3.876   3.109
10665WAT     H132237   0.404   3.873   3.206
10665WAT     H232238   0.436   3.945   3.063
10666WAT      O32239   6.049   8.781   7.254
10666WAT     H132240   6.131   8.773   7.197
10666WAT     H232241   6.077   8.792   7.350
10667WAT      O32242   3.536   6.938   6.773
10667WAT     H132243   3.529   6.900   6.865
10667WAT     H232244   3.510   6.869   6.706
10668WAT      O32245   5.635   0.604   3.989
10668WAT     H132246   5.698   0.636   3.919
10668WAT     H232247   5.547   0.579   3.948
10669WAT      O32248   6.650   4.746   9.366
10669WAT     H132249   6.629   4.774   9.460
10669WAT     H232250   6.565   4.722   9.319
10670WAT      O32251   8.933   6.447   7.875
10670WAT     H132252   8.957   6.478   7.783
10670WAT     H232253   8.834   6.439   7.884
10671WAT      O32254   4.403   1.366   0.753
10671WAT     H132255   4.500   1.347   0.769
10671WAT     H232256   4.349   1.284   0.771
10672WAT      O32257   7.132   2.006   5.580
10672WAT     H132258   7.097   2.073   5.645
10672WAT     H232259   7.063   1.987   5.510
10673WAT      O32260   5.692   1.769   6.578
10673WAT     H132261   5.765   1.762   6.509
10673WAT     H232262   5.731   1.752   6.669
10674WAT      O32263   6.198   1.259   3.273
10674WAT     H132264   6.168   1.281   3.366
10674WAT     H232265   6.204   1.343   3.219
10675WAT      O32266   4.471   6.248   4.793
10675WAT     H132267   4.399   6.317   4.782
10675WAT     H232268   4.456   6.198   4.879
10676WAT      O32269   6.611   2.911   0.611
10676WAT     H132270   6.661   2.923   0.697
10676WAT     H232271   6.578   3.000   0.579
10677WAT      O32272   8.799   9.057   4.962
10677WAT     H132273   8.742   9.139   4.971
10677WAT     H232274   8.743   8.981   4.931
10678WAT      O32275   8.818   3.194   1.688
10678WAT     H132276   8.856   3.109   1.652
10678WAT     H232277   8.726   3.208   1.652
10679WAT      O32278   8.145   2.809   7.624
10679WAT     H132279   8.055   2.834   7.659
10679WAT     H232280   8.141   2.798   7.524
10680WAT      O32281   6.926   2.946   2.429
10680WAT     H132282   6.961   2.871   2.372
10680WAT     H232283   6.827   2.953   2.418
10681WAT      O32284   1.117   1.041   4.372
10681WAT     H132285   1.182   1.035   4.449
10681WAT     H232286   1.111   1.136   4.341
10682WAT      O32287   2.368   2.053   6.844
10682WAT     H132288   2.279   2.083   6.811
10682WAT     H232289   2.365   1.955   6.862
10683WAT      O32290   6.731   8.812   2.653
10683WAT     H132291   6.745   8.828   2.750
10683WAT     H232292   6.780   8.730   2.625
10684WAT      O32293   3.189   8.390   8.376
10684WAT     H132294   3.262   8.455   8.398
10684WAT     H232295   3.111   8.407   8.436
10685WAT      O32296   6.982   7.594   1.438
10685WAT     H132297   7.007   7.515   1.494
10685WAT     H232298   7.064   7.644   1.412
10686WAT      O32299   3.905   3.200   9.823
10686WAT     H132300   3.895   3.208   9.724
10686WAT     H232301   3.831   3.252   9.868
10687WAT      O32302   4.169   5.077   9.060
10687WAT     H132303   4.088   5.018   9.055
10687WAT     H232304   4.231   5.042   9.130
10688WAT      O32305   9.420   0.286   2.236
10688WAT     H132306   9.508   0.330   2.215
10688WAT     H232307   9.432   0.187   2.240
10689WAT      O32308   0.676   6.034   7.956
10689WAT     H132309   0.771   6.020   7.983
10689WAT     H232310   0.619   6.041   8.038
10690WAT      O32311   2.758   7.401   0.842
10690WAT     H132312   2.751   7.421   0.940
10690WAT     H232313   2.716   7.475   0.790
10691WAT      O32314   0.800   0.841   3.180
10691WAT     H132315   0.836   0.911   3.119
10691WAT     H232316   0.828   0.860   3.274
10692WAT      O32317   1.612   4.896   5.778
10692WAT     H132318   1.566   4.945   5.852
10692WAT     H232319   1.616   4.798   5.799
10693WAT      O32320   0.383   6.059   3.832
10693WAT     H132321   0.373   5.960   3.824
10693WAT     H232322   0.306   6.096   3.884
10694WAT      O32323   8.521   7.848   6.277
10694WAT     H132324   8.517   7.946   6.256
10694WAT     H232325   8.514   7.796   6.192
10695WAT      O32326   7.405   6.244   8.328
10695WAT     H132327   7.412   6.220   8.232
10695WAT     H232328   7.441   6.170   8.384
10696WAT      O32329   0.168   4.110   2.147
10696WAT     H132330   0.267   4.118   2.164
10696WAT     H232331   0.118   4.157   2.218
10697WAT      O32332   3.521   1.312   6.101
10697WAT     H132333   3.511   1.358   6.190
10697WAT     H232334   3.581   1.233   6.111
10698WAT      O32335   1.478   5.401   4.692
10698WAT     H132336   1.495   5.492   4.654
10698WAT     H232337   1.566   5.358   4.716
10699WAT      O32338   1.260   7.386   0.971
10699WAT     H132339   1.338   7.449   0.974
10699WAT     H232340   1.280   7.313   0.905
10700WAT      O32341   9.265   3.217   8.703
10700WAT     H132342   9.218   3.252   8.621
10700WAT     H232343   9.298   3.294   8.758
10701WAT      O32344   6.514   0.278   9.305
10701WAT     H132345   6.548   0.190   9.338
10701WAT     H232346   6.435   0.264   9.246
10702WAT      O32347   1.344   6.000   5.750
10702WAT     H132348   1.292   6.009   5.665
10702WAT     H232349   1.358   6.090   5.791
10703WAT      O32350   3.056   0.519   1.995
10703WAT     H132351   3.030   0.427   2.024
10703WAT     H232352   3.154   0.533   2.012
10704WAT      O32353   3.756   2.250   1.560
10704WAT     H132354   3.749   2.349   1.561
10704WAT     H232355   3.682   2.210   1.613
10705WAT      O32356   0.920   2.034   4.071
10705WAT     H132357   0.910   2.134   4.071
10705WAT     H232358   1.016   2.010   4.078
10706WAT      O32359   9.210   9.551   3.435
10706WAT     H132360   9.294   9.604   3.424
10706WAT     H232361   9.134   9.598   3.391
10707WAT      O32362   1.613   6.789   3.904
10707WAT     H132363   1.528   6.754   3.943
10707WAT     H232364   1.604   6.794   3.805
10708WAT      O32365   7.565   3.788   4.244
10708WAT     H132366   7.580   3.856   4.173
10708WAT     H232367   7.481   3.736   4.224
10709WAT      O32368   6.530   6.650   9.048
10709WAT     H132369   6.555   6.715   9.119
10709WAT     H232370   6.435   6.622   9.061
10710WAT      O32371   2.946   1.704   1.484
10710WAT     H132372   2.927   1.739   1.576
10710WAT     H232373   2.910   1.768   1.416
10711WAT      O32374   2.610   1.418   7.503
10711WAT     H132375   2.679   1.349   7.525
10711WAT     H232376   2.654   1.509   7.501
10712WAT      O32377   4.309   1.121   6.914
10712WAT     H132378   4.261   1.206   6.935
10712WAT     H232379   4.374   1.137   6.839
10713WAT      O32380   9.372   8.169   7.656
10713WAT     H132381   9.297   8.231   7.633
10713WAT     H232382   9.358   8.132   7.747
10714WAT      O32383   2.497   4.314   3.875
10714WAT     H132384   2.544   4.232   3.909
10714WAT     H232385   2.465   4.369   3.953
10715WAT      O32386   1.251   3.644   6.851
10715WAT     H132387   1.313   3.606   6.783
10715WAT     H232388   1.160   3.604   6.839
10716WAT      O32389   3.139   7.265   5.253
10716WAT     H132390   3.191   7.199   5.200
10716WAT     H232391   3.193   7.293   5.333
10717WAT      O32392   2.901   2.336   0.940
10717WAT     H132393   2.941   2.427   0.929
10717WAT     H232394   2.801   2.343   0.930
10718WAT      O32395   9.424   4.643   2.857
10718WAT     H132396   9.511   4.673   2.817
10718WAT     H232397   9.385   4.718   2.910
10719WAT      O32398   1.166   3.167   3.845
10719WAT     H132399   1.205   3.077   3.866
10719WAT     H232400   1.198   3.197   3.755
10720WAT      O32401   7.004   0.455   9.110
10720WAT     H132402   6.914   0.418   9.133
10720WAT     H232403   7.024   0.436   9.013
10721WAT      O32404   1.109   8.267   0.590
10721WAT     H132405   1.193   8.232   0.633
10721WAT     H232406   1.029   8.233   0.640
10722WAT      O32407   4.049   8.075   4.790
10722WAT     H132408   4.022   7.987   4.751
10722WAT     H232409   4.124   8.114   4.736
10723WAT      O32410   6.266   3.371   4.101
10723WAT     H132411   6.349   3.363   4.156
10723WAT     H232412   6.284   3.341   4.008
10724WAT      O32413   8.884   3.589   5.999
10724WAT     H132414   8.801   3.541   6.027
10724WAT     H232415   8.897   3.577   5.900
10725WAT      O32416   9.394   0.860   7.998
10725WAT     H132417   9.445   0.777   7.980
10725WAT     H232418   9.345   0.851   8.085
10726WAT      O32419   2.504   0.904   0.022
10726WAT     H132420   2.526   0.816   0.064
10726WAT     H232421   2.523   0.978   0.087
10727WAT      O32422   6.197   5.623   9.812
10727WAT     H132423   6.280   5.667   9.776
10727WAT     H232424   6.215   5.527   9.830
10728WAT      O32425   9.398   6.229   5.889
10728WAT     H132426   9.318   6.263   5.839
10728WAT     H232427   9.423   6.138   5.854
10729WAT      O32428   4.345   7.290   4.803
10729WAT     H132429   4.321   7.243   4.888
10729WAT     H232430   4.370   7.223   4.733
10730WAT      O32431   7.603   4.624   6.537
10730WAT     H132432   7.697   4.658   6.541
10730WAT     H232433   7.594   4.545   6.598
10731WAT      O32434   2.401   5.998   9.008
10731WAT     H132435   2.449   6.038   9.086
10731WAT     H232436   2.367   5.907   9.032
10732WAT      O32437   2.415   1.486   3.212
10732WAT     H132438   2.417   1.583   3.236
10732WAT     H232439   2.324   1.462   3.178
10733WAT      O32440   0.918   4.504   2.241
10733WAT     H132441   0.975   4.577   2.203
10733WAT     H232442   0.948   4.416   2.205
10734WAT      O32443   8.398   0.979   5.211
10734WAT     H132444   8.402   0.989   5.112
10734WAT     H232445   8.395   1.069   5.254
10735WAT      O32446   8.377   5.424   6.061
10735WAT     H132447   8.287   5.428   6.105
10735WAT     H232448   8.441   5.483   6.109
10736WAT      O32449   5.494   8.318   9.038
10736WAT     H132450   5.469   8.384   8.967
10736WAT     H232451   5.560   8.360   9.101
10737WAT      O32452   0.511   7.825   7.080
10737WAT     H132453   0.588   7.762   7.067
10737WAT     H232454   0.441   7.806   7.010
10738WAT      O32455   6.118   9.371   1.085
10738WAT     H132456   6.190   9.339   1.023
10738WAT     H232457   6.043   9.408   1.030
10739WAT      O32458   4.043   7.481   3.445
10739WAT     H132459   4.041   7.397   3.391
10739WAT     H232460   4.105   7.546   3.402
10740WAT      O32461   0.017   8.814   6.765
10740WAT     H132462   0.069   8.833   6.848
10740WAT     H232463  -0.061   8.756   6.788
10741WAT      O32464   3.216   6.307   1.540
10741WAT     H132465   3.159   6.225   1.533
10741WAT     H232466   3.224   6.350   1.450
10742WAT      O32467   4.462   5.315   3.457
10742WAT     H132468   4.435   5.368   3.537
10742WAT     H232469   4.535   5.251   3.482
10743WAT      O32470   4.277   5.924   7.982
10743WAT     H132471   4.204   5.981   7.943
10743WAT     H232472   4.294   5.952   8.077
10744WAT      O32473   6.692   7.181   2.935
10744WAT     H132474   6.677   7.199   3.032
10744WAT     H232475   6.604   7.177   2.888
10745WAT      O32476   4.882   4.269   3.776
10745WAT     H132477   4.949   4.341   3.788
10745WAT     H232478   4.801   4.305   3.730
10746WAT      O32479   9.800   4.906   7.495
10746WAT     H132480   9.772   4.827   7.550
10746WAT     H232481   9.751   4.905   7.408
10747WAT      O32482   0.053   0.987   8.119
10747WAT     H132483   0.108   0.933   8.183
10747WAT     H232484   0.109   1.062   8.082
10748WAT      O32485   3.629   9.820   3.332
10748WAT     H132486   3.651   9.878   3.253
10748WAT     H232487   3.681   9.851   3.411
10749WAT      O32488   1.756   7.758   4.636
10749WAT     H132489   1.734   7.723   4.727
10749WAT     H232490   1.755   7.682   4.571
10750WAT      O32491   2.151   3.451   4.680
10750WAT     H132492   2.082   3.397   4.632
10750WAT     H232493   2.123   3.547   4.682
10751WAT      O32494   5.895   1.292   9.197
10751WAT     H132495   5.796   1.293   9.208
10751WAT     H232496   5.929   1.199   9.205
10752WAT      O32497   3.794   6.506   4.569
10752WAT     H132498   3.704   6.475   4.601
10752WAT     H232499   3.865   6.472   4.631
10753WAT      O32500   9.690   0.126   2.952
10753WAT     H132501   9.773   0.075   2.973
10753WAT     H232502   9.614   0.090   3.006
10754WAT      O32503   6.706   8.529   8.090
10754WAT     H132504   6.781   8.581   8.130
10754WAT     H232505   6.738   8.481   8.009
10755WAT      O32506   1.989   1.644   2.637
10755WAT     H132507   1.956   1.705   2.710
10755WAT     H232508   1.949   1.553   2.649
10756WAT      O32509   5.294   1.901   0.797
10756WAT     H132510   5.214   1.931   0.745
10756WAT     H232511   5.285   1.931   0.892
10757WAT      O32512   1.339   6.481   5.428
10757WAT     H132513   1.396   6.407   5.393
10757WAT     H232514   1.278   6.514   5.355
10758WAT      O32515   2.175   4.030   7.034
10758WAT     H132516   2.135   4.121   7.044
10758WAT     H232517   2.142   3.971   7.107
10759WAT      O32518   8.842   9.272   7.028
10759WAT     H132519   8.936   9.300   7.044
10759WAT     H232520   8.806   9.226   7.109
10760WAT      O32521   8.726   0.376   2.588
10760WAT     H132522   8.658   0.303   2.591
10760WAT     H232523   8.814   0.342   2.621
10761WAT      O32524   6.694   8.626   6.981
10761WAT     H132525   6.776   8.659   7.028
10761WAT     H232526   6.632   8.583   7.047
10762WAT      O32527   5.132   4.325   9.082
10762WAT     H132528   5.098   4.267   9.156
10762WAT     H232529   5.099   4.291   8.994
10763WAT      O32530   0.280   9.131   8.635
10763WAT     H132531   0.348   9.148   8.706
10763WAT     H232532   0.240   9.217   8.605
10764WAT      O32533   9.508   9.592   7.147
10764WAT     H132534   9.424   9.646   7.131
10764WAT     H232535   9.544   9.612   7.238
10765WAT      O32536   0.434   1.084   7.461
10765WAT     H132537   0.471   1.139   7.386
10765WAT     H232538   0.363   1.024   7.426
10766WAT      O32539   6.024   9.548   2.929
10766WAT     H132540   6.103   9.511   2.880
10766WAT     H232541   6.055   9.614   2.998
10767WAT      O32542   1.654   8.905   0.453
10767WAT     H132543   1.749   8.927   0.435
10767WAT     H232544   1.641   8.886   0.550
10768WAT      O32545   3.064   8.465   1.169
10768WAT     H132546   3.063   8.557   1.129
10768WAT     H232547   3.138   8.458   1.236
10769WAT      O32548   4.596   0.752   8.280
10769WAT     H132549   4.560   0.823   8.340
10769WAT     H232550   4.580   0.778   8.185
10770WAT      O32551   9.089   6.740   0.328
10770WAT     H132552   9.117   6.647   0.305
10770WAT     H232553   9.017   6.737   0.398
10771WAT      O32554   9.545   4.025   7.311
10771WAT     H132555   9.600   3.965   7.253
10771WAT     H232556   9.477   4.072   7.254
10772WAT      O32557   7.339   4.910   9.606
10772WAT     H132558   7.326   4.981   9.676
10772WAT     H232559   7.343   4.820   9.650
10773WAT      O32560   2.441   1.293   8.289
10773WAT     H132561   2.493   1.284   8.204
10773WAT     H232562   2.344   1.308   8.268
10774WAT      O32563   7.401   3.562   1.865
10774WAT     H132564   7.376   3.553   1.961
10774WAT     H232565   7.346   3.634   1.823
10775WAT      O32566   9.044   6.155   4.235
10775WAT     H132567   9.109   6.207   4.289
10775WAT     H232568   9.041   6.060   4.267
10776WAT      O32569   8.425   8.956   1.341
10776WAT     H132570   8.461   8.944   1.248
10776WAT     H232571   8.474   8.896   1.404
10777WAT      O32572   8.573   1.380   4.247
10777WAT     H132573   8.592   1.308   4.180
10777WAT     H232574   8.658   1.405   4.294
10778WAT      O32575   3.834   1.606   0.892
10778WAT     H132576   3.837   1.692   0.842
10778WAT     H232577   3.743   1.565   0.883
10779WAT      O32578   1.005   8.388   6.711
10779WAT     H132579   1.035   8.418   6.801
10779WAT     H232580   1.083   8.384   6.649
10780WAT      O32581   3.999   7.981   2.826
10780WAT     H132582   3.920   7.924   2.848
10780WAT     H232583   4.015   8.046   2.900
10781WAT      O32584   9.260   1.449   1.199
10781WAT     H132585   9.192   1.432   1.128
10781WAT     H232586   9.246   1.385   1.275
10782WAT      O32587   6.866   9.130   3.895
10782WAT     H132588   6.931   9.083   3.954
10782WAT     H232589   6.889   9.227   3.889
10783WAT      O32590   6.156   9.116   1.866
10783WAT     H132591   6.208   9.198   1.842
10783WAT     H232592   6.059   9.139   1.872
10784WAT      O32593   3.381   4.384   5.579
10784WAT     H132594   3.422   4.464   5.622
10784WAT     H232595   3.416   4.301   5.623
10785WAT      O32596   0.795   4.879   9.583
10785WAT     H132597   0.795   4.910   9.487
10785WAT     H232598   0.818   4.782   9.586
10786WAT      O32599   5.045   0.272   1.981
10786WAT     H132600   5.080   0.362   2.008
10786WAT     H232601   5.099   0.237   1.905
10787WAT      O32602   9.414   5.748   1.743
10787WAT     H132603   9.459   5.677   1.689
10787WAT     H232604   9.360   5.806   1.682
10788WAT      O32605   5.035   7.488   4.004
10788WAT     H132606   5.084   7.575   4.016
10788WAT     H232607   5.080   7.434   3.933
10789WAT      O32608   4.987   7.643   4.254
10789WAT     H132609   4.968   7.578   4.181
10789WAT     H232610   5.068   7.614   4.305
10790WAT      O32611   5.443   3.787   2.939
10790WAT     H132612   5.449   3.767   2.841
10790WAT     H232613   5.501   3.865   2.961
10791WAT      O32614   1.049   7.904   2.770
10791WAT     H132615   1.113   7.859   2.707
10791WAT     H232616   1.074   7.880   2.864
10792WAT      O32617   1.639   9.263   2.244
10792WAT     H132618   1.712   9.207   2.284
10792WAT     H232619   1.678   9.324   2.174
10793WAT      O32620   5.946   6.459   1.743
10793WAT     H132621   5.869   6.491   1.799
10793WAT     H232622   6.015   6.530   1.738
10794WAT      O32623   7.445   8.170   6.382
10794WAT     H132624   7.472   8.261   6.351
10794WAT     H232625   7.517   8.132   6.441
10795WAT      O32626   8.175   9.484   5.513
10795WAT     H132627   8.108   9.558   5.507
10795WAT     H232628   8.208   9.477   5.607
10796WAT      O32629   0.217   8.640   8.962
10796WAT     H132630   0.179   8.548   8.955
10796WAT     H232631   0.232   8.676   8.870
10797WAT      O32632   2.515   8.741   2.562
10797WAT     H132633   2.561   8.688   2.633
10797WAT     H232634   2.505   8.685   2.480
10798WAT      O32635   2.219   3.609   7.158
10798WAT     H132636   2.162   3.634   7.081
10798WAT     H232637   2.289   3.543   7.129
10799WAT      O32638   1.513   7.430   9.628
10799WAT     H132639   1.554   7.341   9.607
10799WAT     H232640   1.417   7.428   9.600
10800WAT      O32641   7.949   2.944   1.113
10800WAT     H132642   7.867   2.902   1.073
10800WAT     H232643   7.963   2.907   1.205
10801WAT      O32644   1.618   6.158   5.520
10801WAT     H132645   1.610   6.232   5.586
10801WAT     H232646   1.686   6.092   5.551
10802WAT      O32647   0.347   9.542   4.932
10802WAT     H132648   0.417   9.498   4.988
10802WAT     H232649   0.363   9.521   4.835
10803WAT      O32650   4.813   1.243   2.265
10803WAT     H132651   4.723   1.222   2.304
10803WAT     H232652   4.882   1.185   2.308
10804WAT      O32653   5.293   2.611   9.362
10804WAT     H132654   5.285   2.684   9.429
10804WAT     H232655   5.378   2.560   9.379
10805WAT      O32656   9.292   3.282   3.795
10805WAT     H132657   9.211   3.241   3.836
10805WAT     H232658   9.351   3.318   3.867
10806WAT      O32659   2.758   6.702   5.742
10806WAT     H132660   2.844   6.751   5.730
10806WAT     H232661   2.683   6.768   5.746
10807WAT      O32662   4.245   5.741   1.958
10807WAT     H132663   4.197   5.661   1.921
10807WAT     H232664   4.192   5.824   1.938
10808WAT      O32665   1.706   4.267   6.961
10808WAT     H132666   1.722   4.180   7.007
10808WAT     H232667   1.668   4.332   7.026
10809WAT      O32668   6.237   7.384   7.604
10809WAT     H132669   6.173   7.449   7.647
10809WAT     H232670   6.284   7.332   7.676
10810WAT      O32671   5.727   1.844   8.968
10810WAT     H132672   5.741   1.871   9.064
10810WAT     H232673   5.720   1.926   8.911
10811WAT      O32674   5.882   1.132   7.879
10811WAT     H132675   5.950   1.065   7.849
10811WAT     H232676   5.792   1.105   7.844
10812WAT      O32677   5.844   0.266   6.826
10812WAT     H132678   5.921   0.257   6.763
10812WAT     H232679   5.877   0.292   6.916
10813WAT      O32680   7.585   9.582   8.376
10813WAT     H132681   7.490   9.558   8.393
10813WAT     H232682   7.639   9.499   8.363
10814WAT      O32683   1.373   0.687   9.076
10814WAT     H132684   1.274   0.697   9.072
10814WAT     H232685   1.396   0.595   9.108
10815WAT      O32686   2.581   3.311   4.895
10815WAT     H132687   2.516   3.243   4.861
10815WAT     H232688   2.656   3.265   4.943
10816WAT      O32689   0.400   7.765   9.354
10816WAT     H132690   0.398   7.821   9.271
10816WAT     H232691   0.436   7.674   9.331
10817WAT      O32692   0.416   1.372   3.114
10817WAT     H132693   0.333   1.400   3.066
10817WAT     H232694   0.455   1.451   3.163
10818WAT      O32695   1.507   5.058   5.980
10818WAT     H132696   1.485   5.131   5.915
10818WAT     H232697   1.425   5.031   6.029
10819WAT      O32698   6.467   1.494   8.685
10819WAT     H132699   6.374   1.529   8.694
10819WAT     H232700   6.526   1.539   8.753
10820WAT      O32701   1.577   6.978   1.745
10820WAT     H132702   1.523   6.898   1.717
10820WAT     H232703   1.524   7.033   1.810
10821WAT      O32704   0.306   9.755   1.726
10821WAT     H132705   0.377   9.795   1.667
10821WAT     H232706   0.312   9.796   1.817
10822WAT      O32707   1.418   3.000   1.493
10822WAT     H132708   1.367   2.969   1.573
10822WAT     H232709   1.449   2.921   1.441
10823WAT      O32710   2.599   3.256   6.789
10823WAT     H132711   2.638   3.346   6.812
10823WAT     H232712   2.609   3.239   6.691
10824WAT      O32713   2.808   9.314   2.358
10824WAT     H132714   2.818   9.291   2.261
10824WAT     H232715   2.751   9.396   2.367
10825WAT      O32716   5.528   1.597   0.993
10825WAT     H132717   5.540   1.677   0.935
10825WAT     H232718   5.544   1.621   1.088
10826WAT      O32719   8.499   8.949   3.992
10826WAT     H132720   8.571   9.006   4.030
10826WAT     H232721   8.480   8.873   4.054
10827WAT      O32722   2.652   0.334   0.552
10827WAT     H132723   2.641   0.271   0.475
10827WAT     H232724   2.562   0.356   0.590
10828WAT      O32725   4.375   7.301   1.857
10828WAT     H132726   4.407   7.395   1.848
10828WAT     H232727   4.293   7.299   1.914
10829WAT      O32728   1.225   4.024   0.724
10829WAT     H132729   1.188   4.115   0.705
10829WAT     H232730   1.165   3.976   0.787
10830WAT      O32731   3.726   7.480   1.663
10830WAT     H132732   3.792   7.529   1.606
10830WAT     H232733   3.725   7.383   1.637
10831WAT      O32734   8.615   2.635   6.818
10831WAT     H132735   8.524   2.673   6.801
10831WAT     H232736   8.655   2.678   6.899
10832WAT      O32737   3.679   6.705   1.652
10832WAT     H132738   3.579   6.706   1.657
10832WAT     H232739   3.708   6.661   1.567
10833WAT      O32740   0.199   9.645   4.088
10833WAT     H132741   0.233   9.703   4.161
10833WAT     H232742   0.269   9.635   4.017
10834WAT      O32743   2.161   3.481   1.787
10834WAT     H132744   2.213   3.565   1.805
10834WAT     H232745   2.193   3.440   1.701
10835WAT      O32746   8.545   7.238   6.743
10835WAT     H132747   8.627   7.295   6.737
10835WAT     H232748   8.535   7.184   6.660
10836WAT      O32749   7.931   1.228   7.434
10836WAT     H132750   8.027   1.204   7.449
10836WAT     H232751   7.908   1.213   7.337
10837WAT      O32752   5.600   9.199   1.847
10837WAT     H132753   5.584   9.108   1.808
10837WAT     H232754   5.611   9.265   1.773
10838WAT      O32755   5.733   2.104   3.968
10838WAT     H132756   5.701   2.013   3.943
10838WAT     H232757   5.663   2.171   3.943
10839WAT      O32758   8.956   0.335   7.458
10839WAT     H132759   8.860   0.355   7.441
10839WAT     H232760   9.010   0.419   7.449
10840WAT      O32761   0.770   8.696   6.430
10840WAT     H132762   0.759   8.610   6.380
10840WAT     H232763   0.806   8.677   6.522
10841WAT      O32764   4.483   7.728   7.904
10841WAT     H132765   4.520   7.774   7.985
10841WAT     H232766   4.548   7.737   7.828
10842WAT      O32767   9.306   8.327   7.966
10842WAT     H132768   9.335   8.236   7.937
10842WAT     H232769   9.210   8.341   7.944
10843WAT      O32770   5.965   5.577   9.439
10843WAT     H132771   5.873   5.615   9.432
10843WAT     H232772   5.962   5.478   9.420
10844WAT      O32773   9.505   1.225   3.401
10844WAT     H132774   9.461   1.240   3.489
10844WAT     H232775   9.597   1.264   3.402
10845WAT      O32776   5.262   2.655   9.768
10845WAT     H132777   5.346   2.691   9.809
10845WAT     H232778   5.205   2.730   9.736
10846WAT      O32779   4.353   0.427   8.853
10846WAT     H132780   4.376   0.517   8.891
10846WAT     H232781   4.428   0.363   8.869
10847WAT      O32782   4.784   9.449   8.914
10847WAT     H132783   4.827   9.361   8.934
10847WAT     H232784   4.814   9.481   8.824
10848WAT      O32785   8.826   9.540   5.619
10848WAT     H132786   8.901   9.536   5.685
10848WAT     H232787   8.783   9.630   5.623
10849WAT      O32788   7.130   8.178   7.078
10849WAT     H132789   7.160   8.212   7.167
10849WAT     H232790   7.035   8.206   7.063
10850WAT      O32791   5.063   1.326   8.198
10850WAT     H132792   5.113   1.412   8.199
10850WAT     H232793   5.128   1.250   8.200
10851WAT      O32794   8.414   9.158   1.645
10851WAT     H132795   8.395   9.251   1.613
10851WAT     H232796   8.473   9.162   1.726
10852WAT      O32797   1.149   9.417   3.982
10852WAT     H132798   1.187   9.389   3.894
10852WAT     H232799   1.081   9.350   4.011
10853WAT      O32800   3.049   2.132   2.516
10853WAT     H132801   3.063   2.230   2.517
10853WAT     H232802   2.973   2.108   2.578
10854WAT      O32803   6.040   5.176   0.909
10854WAT     H132804   6.113   5.182   0.842
10854WAT     H232805   5.951   5.180   0.863
10855WAT      O32806   8.483   6.832   3.630
10855WAT     H132807   8.573   6.796   3.605
10855WAT     H232808   8.436   6.768   3.690
10856WAT      O32809   8.795   5.740   2.068
10856WAT     H132810   8.740   5.677   2.014
10856WAT     H232811   8.741   5.822   2.090
10857WAT      O32812   2.325   3.820   4.656
10857WAT     H132813   2.362   3.810   4.564
10857WAT     H232814   2.233   3.780   4.660
10858WAT      O32815   9.106   2.947   0.505
10858WAT     H132816   9.117   3.044   0.524
10858WAT     H232817   9.193   2.909   0.473
10859WAT      O32818   1.981   1.258   4.875
10859WAT     H132819   2.080   1.252   4.868
10859WAT     H232820   1.940   1.183   4.823
10860WAT      O32821   7.677   0.314   6.133
10860WAT     H132822   7.702   0.355   6.221
10860WAT     H232823   7.601   0.365   6.093
10861WAT      O32824   0.454   1.491   2.268
10861WAT     H132825   0.522   1.476   2.196
10861WAT     H232826   0.497   1.479   2.357
10862WAT      O32827   8.833   4.363   5.150
10862WAT     H132828   8.749   4.409   5.180
10862WAT     H232829   8.847   4.280   5.204
10863WAT      O32830   6.464   7.748   4.084
10863WAT     H132831   6.553   7.715   4.117
10863WAT     H232832   6.434   7.691   4.008
10864WAT      O32833   5.514   8.254   7.806
10864WAT     H132834   5.579   8.324   7.835
10864WAT     H232835   5.542   8.166   7.843
10865WAT      O32836   8.705   1.002   4.443
10865WAT     H132837   8.732   1.002   4.539
10865WAT     H232838   8.651   1.084   4.423
10866WAT      O32839   6.299   5.789   6.976
10866WAT     H132840   6.207   5.767   6.944
10866WAT     H232841   6.342   5.856   6.916
10867WAT      O32842   2.586   5.734   8.210
10867WAT     H132843   2.642   5.796   8.265
10867WAT     H232844   2.494   5.771   8.200
10868WAT      O32845   9.683   6.484   0.738
10868WAT     H132846   9.590   6.451   0.726
10868WAT     H232847   9.746   6.406   0.742
10869WAT      O32848   6.904   5.493   7.012
10869WAT     H132849   6.825   5.548   6.984
10869WAT     H232850   6.903   5.481   7.111
10870WAT      O32851   9.600   1.074   9.123
10870WAT     H132852   9.580   1.047   9.029
10870WAT     H232853   9.543   1.021   9.186
10871WAT      O32854   3.740   8.297   1.465
10871WAT     H132855   3.688   8.337   1.390
10871WAT     H232856   3.678   8.265   1.536
10872WAT      O32857   2.963   4.358   5.489
10872WAT     H132858   2.901   4.325   5.417
10872WAT     H232859   2.975   4.287   5.558
10873WAT      O32860   3.456   0.919   8.600
10873WAT     H132861   3.426   0.888   8.690
10873WAT     H232862   3.545   0.878   8.579
10874WAT      O32863   5.332   6.592   0.312
10874WAT     H132864   5.233   6.577   0.315
10874WAT     H232865   5.376   6.545   0.389
10875WAT      O32866   8.017   9.312   0.740
10875WAT     H132867   8.106   9.352   0.717
10875WAT     H232868   8.015   9.289   0.837
10876WAT      O32869   9.344   8.763   5.578
10876WAT     H132870   9.319   8.725   5.666
10876WAT     H232871   9.280   8.732   5.508
10877WAT      O32872   7.307   6.368   3.322
10877WAT     H132873   7.258   6.336   3.241
10877WAT     H232874   7.312   6.468   3.320
10878WAT      O32875   6.077   7.873   3.442
10878WAT     H132876   6.051   7.875   3.539
10878WAT     H232877   6.094   7.778   3.415
10879WAT      O32878   8.316   5.175   7.647
10879WAT     H132879   8.402   5.172   7.699
10879WAT     H232880   8.290   5.270   7.631
10880WAT      O32881   7.820   5.686   5.696
10880WAT     H132882   7.913   5.715   5.719
10880WAT     H232883   7.802   5.707   5.599
10881WAT      O32884   2.819   4.901   8.232
10881WAT     H132885   2.891   4.893   8.163
10881WAT     H232886   2.837   4.837   8.307
10882WAT      O32887   4.063   4.365   3.058
10882WAT     H132888   4.159   4.348   3.079
10882WAT     H232889   4.021   4.282   3.021
10883WAT      O32890   4.631   3.111   2.623
10883WAT     H132891   4.715   3.064   2.596
10883WAT     H232892   4.599   3.073   2.710
10884WAT      O32893   9.032   5.830   6.443
10884WAT     H132894   8.978   5.912   6.424
10884WAT     H232895   9.074   5.798   6.359
10885WAT      O32896   9.318   9.108   7.991
10885WAT     H132897   9.330   9.016   8.027
10885WAT     H232898   9.386   9.125   7.919
10886WAT      O32899   1.181   1.167   8.529
10886WAT     H132900   1.134   1.109   8.595
10886WAT     H232901   1.163   1.263   8.550
10887WAT      O32902   0.265   5.475   2.875
10887WAT     H132903   0.220   5.412   2.811
10887WAT     H232904   0.197   5.520   2.932
10888WAT      O32905   0.840   3.256   4.512
10888WAT     H132906   0.813   3.331   4.452
10888WAT     H232907   0.881   3.293   4.595
10889WAT      O32908   4.891   1.656   7.610
10889WAT     H132909   4.908   1.623   7.704
10889WAT     H232910   4.940   1.742   7.596
10890WAT      O32911   6.289   0.381   0.893
10890WAT     H132912   6.366   0.350   0.837
10890WAT     H232913   6.211   0.400   0.834
10891WAT      O32914   1.516   5.051   7.331
10891WAT     H132915   1.511   4.951   7.325
10891WAT     H232916   1.600   5.083   7.288
10892WAT      O32917   1.852   7.684   1.792
10892WAT     H132918   1.909   7.736   1.728
10892WAT     H232919   1.758   7.679   1.757
10893WAT      O32920   7.292   8.977   2.344
10893WAT     H132921   7.381   9.013   2.317
10893WAT     H232922   7.241   9.048   2.393
10894WAT      O32923   7.507   3.583   6.147
10894WAT     H132924   7.414   3.554   6.122
10894WAT     H232925   7.505   3.678   6.178
10895WAT      O32926   9.844   3.978   2.920
10895WAT     H132927   9.925   3.929   2.951
10895WAT     H232928   9.871   4.054   2.861
10896WAT      O32929   4.462   1.179   5.982
10896WAT     H132930   4.509   1.190   6.070
10896WAT     H232931   4.408   1.261   5.964
10897WAT      O32932   2.693   8.244   4.031
10897WAT     H132933   2.636   8.256   4.112
10897WAT     H232934   2.635   8.223   3.952
10898WAT      O32935   7.109   3.189   6.346
10898WAT     H132936   7.155   3.277   6.339
10898WAT     H232937   7.054   3.173   6.264
10899WAT      O32938   6.979   6.397   0.431
10899WAT     H132939   7.004   6.470   0.495
10899WAT     H232940   6.933   6.323   0.481
10900WAT      O32941   7.281   2.969   4.653
10900WAT     H132942   7.355   2.962   4.586
10900WAT     H232943   7.316   3.013   4.736
10901WAT      O32944   7.291   0.501   6.427
10901WAT     H132945   7.230   0.539   6.358
10901WAT     H232946   7.333   0.418   6.393
10902WAT      O32947   8.597   2.271   6.318
10902WAT     H132948   8.574   2.280   6.221
10902WAT     H232949   8.519   2.299   6.373
10903WAT      O32950   8.396   4.481   1.972
10903WAT     H132951   8.345   4.466   1.887
10903WAT     H232952   8.344   4.442   2.049
10904WAT      O32953   1.332   2.431   8.705
10904WAT     H132954   1.310   2.529   8.703
10904WAT     H232955   1.425   2.419   8.739
10905WAT      O32956   3.517   1.257   1.715
10905WAT     H132957   3.477   1.252   1.623
10905WAT     H232958   3.451   1.219   1.781
10906WAT      O32959   6.552   0.655   7.015
10906WAT     H132960   6.618   0.622   6.947
10906WAT     H232961   6.524   0.579   7.074
10907WAT      O32962   9.375   0.664   4.214
10907WAT     H132963   9.329   0.674   4.126
10907WAT     H232964   9.306   0.653   4.286
10908WAT      O32965   3.836   2.748   2.635
10908WAT     H132966   3.770   2.772   2.706
10908WAT     H232967   3.913   2.699   2.677
10909WAT      O32968   1.310   1.026   2.722
10909WAT     H132969   1.257   0.944   2.702
10909WAT     H232970   1.265   1.105   2.680
10910WAT      O32971   8.797   6.973   0.817
10910WAT     H132972   8.724   7.017   0.766
10910WAT     H232973   8.858   7.042   0.856
10911WAT      O32974   5.844   3.716   5.882
10911WAT     H132975   5.805   3.626   5.865
10911WAT     H232976   5.813   3.750   5.971
10912WAT      O32977   4.906   9.770   5.371
10912WAT     H132978   4.840   9.770   5.446
10912WAT     H232979   4.907   9.680   5.326
10913WAT      O32980   4.740   5.762   4.493
10913WAT     H132981   4.808   5.709   4.443
10913WAT     H232982   4.652   5.715   4.491
10914WAT      O32983   5.980   7.723   5.163
10914WAT     H132984   6.076   7.750   5.170
10914WAT     H232985   5.933   7.741   5.250
10915WAT      O32986   8.051   3.632   4.574
10915WAT     H132987   8.071   3.622   4.672
10915WAT     H232988   7.988   3.708   4.561
10916WAT      O32989   0.518   4.549   4.142
10916WAT     H132990   0.616   4.532   4.125
10916WAT     H232991   0.471   4.558   4.055
10917WAT      O32992   3.904   6.515   2.124
10917WAT     H132993   3.815   6.553   2.148
10917WAT     H232994   3.895   6.455   2.045
10918WAT      O32995   0.383   5.922   2.482
10918WAT     H132996   0.396   5.861   2.561
10918WAT     H232997   0.350   5.870   2.404
10919WAT      O32998   6.372   1.064   5.804
10919WAT     H132999   6.453   1.048   5.747
10919WAT     H233000   6.332   1.152   5.780
10920WAT      O33001   9.568   4.043   1.727
10920WAT     H133002   9.545   3.981   1.652
10920WAT     H233003   9.623   3.994   1.794
10921WAT      O33004   0.464   2.400   4.142
10921WAT     H133005   0.450   2.479   4.082
10921WAT     H233006   0.387   2.393   4.205
10922WAT      O33007   4.497   0.597   4.824
10922WAT     H133008   4.580   0.640   4.859
10922WAT     H233009   4.462   0.532   4.891
10923WAT      O33010   9.004   6.346   9.712
10923WAT     H133011   8.917   6.354   9.664
10923WAT     H233012   9.074   6.399   9.664
10924WAT      O33013   7.951   8.752   9.520
10924WAT     H133014   7.947   8.674   9.582
10924WAT     H233015   7.860   8.793   9.511
10925WAT      O33016   9.245   9.181   2.268
10925WAT     H133017   9.215   9.273   2.242
10925WAT     H233018   9.265   9.128   2.186
10926WAT      O33019   2.334   8.453   0.533
10926WAT     H133020   2.276   8.534   0.528
10926WAT     H233021   2.414   8.465   0.475
10927WAT      O33022   6.643   5.630   6.716
10927WAT     H133023   6.547   5.603   6.726
10927WAT     H233024   6.682   5.585   6.636
10928WAT      O33025   6.411   2.107   6.610
10928WAT     H133026   6.353   2.157   6.546
10928WAT     H233027   6.362   2.095   6.697
10929WAT      O33028   1.773   4.091   8.726
10929WAT     H133029   1.738   4.100   8.633
10929WAT     H233030   1.718   4.025   8.777
10930WAT      O33031   2.003   3.989   8.747
10930WAT     H133032   2.020   4.013   8.843
10930WAT     H233033   1.914   4.026   8.719
10931WAT      O33034   9.679   8.442   8.940
10931WAT     H133035   9.767   8.462   8.896
10931WAT     H233036   9.637   8.363   8.894
10932WAT      O33037   2.108   3.408   7.850
10932WAT     H133038   2.051   3.438   7.773
10932WAT     H233039   2.204   3.428   7.830
10933WAT      O33040   3.661   3.451   5.866
10933WAT     H133041   3.752   3.484   5.842
10933WAT     H233042   3.652   3.448   5.966
10934WAT      O33043   7.574   7.257   9.422
10934WAT     H133044   7.613   7.166   9.409
10934WAT     H233045   7.493   7.268   9.365
10935WAT      O33046   0.085   2.690   1.045
10935WAT     H133047   0.022   2.767   1.037
10935WAT     H233048   0.034   2.605   1.041
10936WAT      O33049   7.955   8.045   1.994
10936WAT     H133050   8.047   8.008   1.995
10936WAT     H233051   7.949   8.122   2.057
10937WAT      O33052   2.534   1.394   4.326
10937WAT     H133053   2.494   1.325   4.266
10937WAT     H233054   2.588   1.350   4.397
10938WAT      O33055   7.127   1.736   2.906
10938WAT     H133056   7.051   1.788   2.867
10938WAT     H233057   7.098   1.642   2.922
10939WAT      O33058   5.509   8.646   1.410
10939WAT     H133059   5.606   8.628   1.392
10939WAT     H233060   5.488   8.742   1.387
10940WAT      O33061   6.120   3.290   0.829
10940WAT     H133062   6.074   3.248   0.907
10940WAT     H233063   6.203   3.239   0.808
10941WAT      O33064   0.828   3.092   4.020
10941WAT     H133065   0.746   3.122   3.971
10941WAT     H233066   0.868   3.169   4.070
10942WAT      O33067   5.693   7.523   4.472
10942WAT     H133068   5.743   7.481   4.548
10942WAT     H233069   5.646   7.452   4.420
10943WAT      O33070   9.785   7.669   2.141
10943WAT     H133071   9.773   7.752   2.195
10943WAT     H233072   9.801   7.591   2.203
10944WAT      O33073   0.992   4.253   1.121
10944WAT     H133074   0.971   4.216   1.211
10944WAT     H233075   0.912   4.300   1.084
10945WAT      O33076   4.514   2.962   2.826
10945WAT     H133077   4.572   2.886   2.857
10945WAT     H233078   4.462   2.998   2.903
10946WAT      O33079   0.724   1.059   7.169
10946WAT     H133080   0.654   1.042   7.100
10946WAT     H233081   0.696   1.134   7.228
10947WAT      O33082   6.107   1.251   2.862
10947WAT     H133083   6.047   1.203   2.799
10947WAT     H233084   6.192   1.200   2.874
10948WAT      O33085   4.482   2.194   5.171
10948WAT     H133086   4.518   2.112   5.215
10948WAT     H233087   4.415   2.168   5.102
10949WAT      O33088   5.792   4.467   9.082
10949WAT     H133089   5.744   4.494   9.165
10949WAT     H233090   5.867   4.405   9.105
10950WAT      O33091   4.370   7.103   2.562
10950WAT     H133092   4.347   7.024   2.619
10950WAT     H233093   4.330   7.091   2.471
10951WAT      O33094   9.206   0.796   0.654
10951WAT     H133095   9.183   0.794   0.557
10951WAT     H233096   9.125   0.774   0.708
10952WAT      O33097   8.455   5.659   7.017
10952WAT     H133098   8.427   5.742   7.065
10952WAT     H233099   8.539   5.624   7.058
10953WAT      O33100   7.951   8.209   7.720
10953WAT     H133101   7.966   8.262   7.803
10953WAT     H233102   7.853   8.202   7.702
10954WAT      O33103   3.727   6.592   9.006
10954WAT     H133104   3.786   6.575   8.927
10954WAT     H233105   3.674   6.676   8.991
10955WAT      O33106   0.053   3.463   5.254
10955WAT     H133107   0.093   3.520   5.326
10955WAT     H233108   0.103   3.376   5.250
10956WAT      O33109   8.334   1.625   5.505
10956WAT     H133110   8.262   1.641   5.437
10956WAT     H233111   8.293   1.586   5.588
10957WAT      O33112   1.997   4.851   8.234
10957WAT     H133113   1.922   4.844   8.169
10957WAT     H233114   2.035   4.943   8.231
10958WAT      O33115   4.618   9.751   5.073
10958WAT     H133116   4.562   9.755   5.156
10958WAT     H233117   4.580   9.811   5.003
10959WAT      O33118   2.054   0.731   3.575
10959WAT     H133119   2.075   0.755   3.670
10959WAT     H233120   2.130   0.757   3.516
10960WAT      O33121   2.886   0.608   3.109
10960WAT     H133122   2.798   0.573   3.142
10960WAT     H233123   2.871   0.657   3.023
10961WAT      O33124   0.540   7.960   8.758
10961WAT     H133125   0.585   8.046   8.733
10961WAT     H233126   0.488   7.925   8.680
10962WAT      O33127   5.110   0.813   1.708
10962WAT     H133128   5.132   0.723   1.745
10962WAT     H233129   5.176   0.880   1.741
10963WAT      O33130   2.119   3.078   3.738
10963WAT     H133131   2.155   3.067   3.830
10963WAT     H233132   2.084   3.171   3.726
10964WAT      O33133   4.446   3.532   2.471
10964WAT     H133134   4.472   3.565   2.381
10964WAT     H233135   4.376   3.461   2.462
10965WAT      O33136   2.863   8.461   6.166
10965WAT     H133137   2.920   8.524   6.219
10965WAT     H233138   2.768   8.491   6.169
10966WAT      O33139   6.402   0.359   2.396
10966WAT     H133140   6.448   0.300   2.329
10966WAT     H233141   6.383   0.448   2.355
10967WAT      O33142   2.144   3.705   6.496
10967WAT     H133143   2.241   3.702   6.520
10967WAT     H233144   2.134   3.701   6.397
10968WAT      O33145   2.216   2.358   9.321
10968WAT     H133146   2.157   2.339   9.242
10968WAT     H233147   2.265   2.444   9.306
10969WAT      O33148   2.120   0.047   2.103
10969WAT     H133149   2.184  -0.021   2.067
10969WAT     H233150   2.154   0.138   2.084
10970WAT      O33151   6.537   0.261   4.662
10970WAT     H133152   6.446   0.219   4.667
10970WAT     H233153   6.548   0.326   4.738
10971WAT      O33154   7.216   2.932   7.656
10971WAT     H133155   7.182   2.909   7.747
10971WAT     H233156   7.160   2.886   7.587
10972WAT      O33157   7.172   3.215   8.219
10972WAT     H133158   7.131   3.302   8.247
10972WAT     H233159   7.109   3.166   8.158
10973WAT      O33160   3.274   0.721   2.586
10973WAT     H133161   3.220   0.777   2.524
10973WAT     H233162   3.247   0.739   2.681
10974WAT      O33163   7.023   6.860   3.822
10974WAT     H133164   6.977   6.949   3.817
10974WAT     H233165   7.122   6.874   3.827
10975WAT      O33166   3.461   2.657   8.898
10975WAT     H133167   3.439   2.582   8.959
10975WAT     H233168   3.379   2.710   8.878
10976WAT      O33169   3.114   1.028   7.203
10976WAT     H133170   3.031   1.077   7.232
10976WAT     H233171   3.088   0.951   7.145
10977WAT      O33172   0.506   0.919   8.646
10977WAT     H133173   0.526   0.967   8.561
10977WAT     H233174   0.534   0.976   8.723
10978WAT      O33175   6.352   4.246   7.784
10978WAT     H133176   6.292   4.316   7.822
10978WAT     H233177   6.378   4.181   7.856
10979WAT      O33178   4.218   1.032   7.181
10979WAT     H133179   4.131   1.080   7.168
10979WAT     H233180   4.283   1.059   7.110
10980WAT      O33181   2.433   3.131   0.086
10980WAT     H133182   2.460   3.211   0.139
10980WAT     H233183   2.339   3.106   0.109
10981WAT      O33184   6.302   7.038   7.335
10981WAT     H133185   6.232   7.080   7.393
10981WAT     H233186   6.344   6.961   7.383
10982WAT      O33187   7.236   8.387   9.230
10982WAT     H133188   7.303   8.441   9.280
10982WAT     H233189   7.183   8.447   9.170
10983WAT      O33190   2.091   6.355   7.445
10983WAT     H133191   2.086   6.455   7.443
10983WAT     H233192   2.185   6.326   7.461
10984WAT      O33193   8.888   0.157   5.549
10984WAT     H133194   8.962   0.157   5.616
10984WAT     H233195   8.846   0.066   5.546
10985WAT      O33196   1.729   7.175   7.997
10985WAT     H133197   1.740   7.267   8.034
10985WAT     H233198   1.755   7.108   8.067
10986WAT      O33199   6.097   9.174   7.279
10986WAT     H133200   6.108   9.264   7.322
10986WAT     H233201   6.001   9.159   7.257
10987WAT      O33202   4.226   2.520   5.966
10987WAT     H133203   4.285   2.474   6.033
10987WAT     H233204   4.273   2.600   5.929
10988WAT      O33205   7.129   4.486   3.397
10988WAT     H133206   7.156   4.435   3.479
10988WAT     H233207   7.071   4.429   3.340
10989WAT      O33208   1.938   7.161   1.157
10989WAT     H133209   1.891   7.231   1.104
10989WAT     H233210   1.985   7.202   1.235
10990WAT      O33211   3.384   0.584   9.787
10990WAT     H133212   3.372   0.682   9.803
10990WAT     H233213   3.298   0.545   9.753
10991WAT      O33214   7.149   7.444   3.783
10991WAT     H133215   7.094   7.524   3.806
10991WAT     H233216   7.117   7.365   3.837
10992WAT      O33217   4.746   1.008   1.624
10992WAT     H133218   4.730   1.106   1.634
10992WAT     H233219   4.830   0.993   1.572
10993WAT      O33220   0.903   0.317   1.661
10993WAT     H133221   0.959   0.289   1.582
10993WAT     H233222   0.955   0.302   1.745
10994WAT      O33223   4.190   1.869   7.829
10994WAT     H133224   4.129   1.935   7.874
10994WAT     H233225   4.223   1.804   7.897
10995WAT      O33226   4.410   3.222   9.892
10995WAT     H133227   4.471   3.188   9.821
10995WAT     H233228   4.338   3.277   9.851
10996WAT      O33229   9.044   3.572   6.516
10996WAT     H133230   9.072   3.537   6.605
10996WAT     H233231   9.114   3.551   6.448
10997WAT      O33232   4.317   9.264   1.995
10997WAT     H133233   4.391   9.287   2.058
10997WAT     H233234   4.249   9.209   2.042
10998WAT      O33235   5.095   6.680   5.674
10998WAT     H133236   5.086   6.716   5.581
10998WAT     H233237   5.191   6.664   5.694
10999WAT      O33238   0.360   9.203   3.700
10999WAT     H133239   0.434   9.148   3.738
10999WAT     H233240   0.296   9.144   3.652
11000WAT      O33241   9.120   1.620   0.782
11000WAT     H133242   9.137   1.709   0.826
11000WAT     H233243   9.030   1.587   0.809
11001WAT      O33244   8.518   8.991   9.872
11001WAT     H133245   8.571   8.925   9.819
11001WAT     H233246   8.513   8.961   9.967
11002WAT      O33247   6.488   5.245   5.592
11002WAT     H133248   6.582   5.279   5.603
11002WAT     H233249   6.490   5.156   5.546
11003WAT      O33250   5.270   4.175   3.346
11003WAT     H133251   5.352   4.184   3.290
11003WAT     H233252   5.190   4.203   3.293
11004WAT      O33253   6.692   7.730   4.222
11004WAT     H133254   6.658   7.812   4.267
11004WAT     H233255   6.780   7.749   4.179
11005WAT      O33256   0.744   1.750   1.099
11005WAT     H133257   0.702   1.680   1.156
11005WAT     H233258   0.804   1.706   1.031
11006WAT      O33259   7.329   1.669   1.283
11006WAT     H133260   7.429   1.669   1.282
11006WAT     H233261   7.296   1.745   1.340
11007WAT      O33262   7.219   5.657   1.863
11007WAT     H133263   7.195   5.568   1.825
11007WAT     H233264   7.265   5.713   1.794
11008WAT      O33265   0.874   7.668   3.341
11008WAT     H133266   0.867   7.636   3.436
11008WAT     H233267   0.783   7.669   3.300
11009WAT      O33268   3.789   4.976   2.209
11009WAT     H133269   3.760   5.056   2.157
11009WAT     H233270   3.882   4.950   2.183
11010WAT      O33271   4.377   1.935   0.709
11010WAT     H133272   4.298   1.874   0.698
11010WAT     H233273   4.373   2.008   0.642
11011WAT      O33274   5.476   2.828   4.104
11011WAT     H133275   5.427   2.915   4.108
11011WAT     H233276   5.568   2.843   4.065
11012WAT      O33277   4.381   4.240   6.584
11012WAT     H133278   4.364   4.142   6.575
11012WAT     H233279   4.457   4.266   6.524
11013WAT      O33280   3.306   6.319   4.072
11013WAT     H133281   3.347   6.357   4.155
11013WAT     H233282   3.375   6.314   4.000
11014WAT      O33283   2.844   7.106   6.834
11014WAT     H133284   2.944   7.107   6.829
11014WAT     H233285   2.812   7.011   6.837
11015WAT      O33286   0.265   8.526   1.061
11015WAT     H133287   0.304   8.566   0.978
11015WAT     H233288   0.338   8.505   1.126
11016WAT      O33289   1.119   8.729   2.331
11016WAT     H133290   1.151   8.796   2.265
11016WAT     H233291   1.187   8.717   2.403
11017WAT      O33292   9.839   4.457   7.309
11017WAT     H133293   9.771   4.440   7.380
11017WAT     H233294   9.817   4.404   7.227
11018WAT      O33295   1.001   7.945   1.622
11018WAT     H133296   0.914   7.966   1.576
11018WAT     H233297   1.048   7.872   1.573
11019WAT      O33298   8.463   7.307   5.556
11019WAT     H133299   8.460   7.301   5.456
11019WAT     H233300   8.381   7.266   5.594
11020WAT      O33301   9.056   9.056   4.656
11020WAT     H133302   9.155   9.066   4.670
11020WAT     H233303   9.039   9.021   4.564
11021WAT      O33304   6.438   1.316   3.098
11021WAT     H133305   6.376   1.390   3.124
11021WAT     H233306   6.401   1.268   3.018
11022WAT      O33307   2.159   8.112   6.607
11022WAT     H133308   2.258   8.114   6.597
11022WAT     H233309   2.130   8.183   6.671
11023WAT      O33310   4.382   0.984   4.114
11023WAT     H133311   4.349   0.890   4.123
11023WAT     H233312   4.325   1.033   4.047
11024WAT      O33313   1.360   5.093   0.955
11024WAT     H133314   1.299   5.032   1.007
11024WAT     H233315   1.319   5.184   0.949
11025WAT      O33316   0.788   0.633   0.220
11025WAT     H133317   0.834   0.587   0.144
11025WAT     H233318   0.699   0.667   0.189
11026WAT      O33319   3.492   6.240   1.336
11026WAT     H133320   3.435   6.310   1.294
11026WAT     H233321   3.458   6.149   1.310
11027WAT      O33322   9.822   8.722   2.648
11027WAT     H133323   9.882   8.770   2.713
11027WAT     H233324   9.754   8.670   2.699
11028WAT      O33325   1.271   2.226   3.846
11028WAT     H133326   1.188   2.223   3.789
11028WAT     H233327   1.245   2.244   3.941
11029WAT      O33328   5.581   3.653   6.380
11029WAT     H133329   5.652   3.718   6.353
11029WAT     H233330   5.522   3.695   6.449
11030WAT      O33331   2.919   0.810   0.383
11030WAT     H133332   2.974   0.728   0.371
11030WAT     H233333   2.915   0.861   0.298
11031WAT      O33334   6.276   1.271   6.495
11031WAT     H133335   6.200   1.243   6.553
11031WAT     H233336   6.247   1.346   6.436
11032WAT      O33337   2.566   0.127   2.536
11032WAT     H133338   2.608   0.132   2.445
11032WAT     H233339   2.471   0.099   2.527
11033WAT      O33340   6.786   7.960   0.076
11033WAT     H133341   6.847   8.038   0.090
11033WAT     H233342   6.695   7.994   0.051
11034WAT      O33343   3.443   9.081   9.075
11034WAT     H133344   3.377   9.016   9.113
11034WAT     H233345   3.531   9.036   9.061
11035WAT      O33346   9.486   1.981   2.568
11035WAT     H133347   9.435   1.947   2.647
11035WAT     H233348   9.422   2.020   2.502
11036WAT      O33349   0.477   6.678   4.951
11036WAT     H133350   0.565   6.714   4.920
11036WAT     H233351   0.491   6.590   4.996
11037WAT      O33352   8.874   7.106   5.878
11037WAT     H133353   8.832   7.123   5.967
11037WAT     H233354   8.881   7.192   5.828
11038WAT      O33355   3.327   0.085   6.978
11038WAT     H133356   3.252   0.109   7.039
11038WAT     H233357   3.293   0.022   6.908
11039WAT      O33358   0.243   7.631   8.157
11039WAT     H133359   0.175   7.569   8.195
11039WAT     H233360   0.264   7.603   8.063
11040WAT      O33361   5.353   4.548   5.121
11040WAT     H133362   5.275   4.566   5.061
11040WAT     H233363   5.340   4.459   5.166
11041WAT      O33364   3.486   4.316   8.246
11041WAT     H133365   3.524   4.231   8.210
11041WAT     H233366   3.401   4.338   8.198
11042WAT      O33367   8.249   5.462   7.417
11042WAT     H133368   8.328   5.417   7.376
11042WAT     H233369   8.262   5.469   7.516
11043WAT      O33370   9.749   1.611   8.728
11043WAT     H133371   9.725   1.557   8.808
11043WAT     H233372   9.734   1.708   8.747
11044WAT      O33373   7.572   4.097   2.902
11044WAT     H133374   7.507   4.041   2.850
11044WAT     H233375   7.548   4.092   2.999
11045WAT      O33376   8.643   9.431   9.196
11045WAT     H133377   8.683   9.460   9.110
11045WAT     H233378   8.554   9.475   9.209
11046WAT      O33379   1.964   0.177   7.459
11046WAT     H133380   2.050   0.129   7.474
11046WAT     H233381   1.981   0.273   7.441
11047WAT      O33382   2.346   7.326   3.143
11047WAT     H133383   2.408   7.258   3.103
11047WAT     H233384   2.252   7.293   3.137
11048WAT      O33385   1.987   9.183   7.837
11048WAT     H133386   2.065   9.215   7.890
11048WAT     H233387   1.922   9.137   7.898
11049WAT      O33388   6.265   6.413   1.462
11049WAT     H133389   6.236   6.500   1.503
11049WAT     H233390   6.193   6.345   1.472
11050WAT      O33391   0.874   6.601   8.786
11050WAT     H133392   0.898   6.689   8.745
11050WAT     H233393   0.922   6.591   8.873
11051WAT      O33394   7.980   1.012   6.833
11051WAT     H133395   8.045   0.948   6.791
11051WAT     H233396   7.993   1.012   6.932
11052WAT      O33397   1.910   4.842   0.368
11052WAT     H133398   1.820   4.846   0.323
11052WAT     H233399   1.902   4.790   0.453
11053WAT      O33400   5.987   5.804   4.589
11053WAT     H133401   6.012   5.714   4.624
11053WAT     H233402   6.055   5.871   4.618
11054WAT      O33403   7.499   5.200   7.619
11054WAT     H133404   7.432   5.182   7.547
11054WAT     H233405   7.588   5.221   7.576
11055WAT      O33406   5.588   6.591   4.458
11055WAT     H133407   5.530   6.613   4.537
11055WAT     H233408   5.581   6.493   4.438
11056WAT      O33409   5.246   1.120   2.951
11056WAT     H133410   5.339   1.154   2.934
11056WAT     H233411   5.249   1.022   2.966
11057WAT      O33412   3.506   9.569   4.259
11057WAT     H133413   3.528   9.663   4.236
11057WAT     H233414   3.589   9.522   4.290
11058WAT      O33415   8.929   3.489   1.403
11058WAT     H133416   9.015   3.524   1.364
11058WAT     H233417   8.854   3.550   1.379
11059WAT      O33418   1.956   0.321   1.531
11059WAT     H133419   1.955   0.228   1.568
11059WAT     H233420   2.046   0.339   1.491
11060WAT      O33421   1.835   0.424   8.639
11060WAT     H133422   1.842   0.426   8.539
11060WAT     H233423   1.738   0.420   8.664
11061WAT      O33424   0.478   6.866   7.023
11061WAT     H133425   0.465   6.898   6.929
11061WAT     H233426   0.533   6.782   7.023
11062WAT      O33427   5.819   5.236   0.755
11062WAT     H133428   5.750   5.304   0.733
11062WAT     H233429   5.809   5.158   0.693
11063WAT      O33430   9.814   6.828   0.329
11063WAT     H133431   9.806   6.747   0.387
11063WAT     H233432   9.860   6.805   0.244
11064WAT      O33433   0.864   2.054   6.320
11064WAT     H133434   0.834   2.144   6.350
11064WAT     H233435   0.818   2.030   6.235
11065WAT      O33436   8.086   6.021   2.474
11065WAT     H133437   8.004   6.052   2.425
11065WAT     H233438   8.059   5.988   2.565
11066WAT      O33439   3.422   4.618   2.109
11066WAT     H133440   3.486   4.675   2.160
11066WAT     H233441   3.342   4.598   2.166
11067WAT      O33442   6.591   5.708   0.413
11067WAT     H133443   6.538   5.634   0.371
11067WAT     H233444   6.681   5.714   0.369
11068WAT      O33445   6.053   2.332   0.420
11068WAT     H133446   6.150   2.358   0.416
11068WAT     H233447   5.997   2.408   0.388
11069WAT      O33448   9.825   0.553   8.331
11069WAT     H133449   9.889   0.491   8.377
11069WAT     H233450   9.859   0.647   8.337
11070WAT      O33451   8.732   4.014   9.227
11070WAT     H133452   8.646   4.064   9.239
11070WAT     H233453   8.723   3.922   9.264
11071WAT      O33454   0.957   7.080   8.821
11071WAT     H133455   1.001   7.167   8.847
11071WAT     H233456   0.862   7.081   8.851
11072WAT      O33457   4.565   0.125   4.899
11072WAT     H133458   4.468   0.107   4.909
11072WAT     H233459   4.595   0.189   4.970
11073WAT      O33460   2.555   7.052   4.271
11073WAT     H133461   2.602   7.135   4.242
11073WAT     H233462   2.554   6.986   4.196
11074WAT      O33463   2.226   3.831   4.019
11074WAT     H133464   2.291   3.874   4.081
11074WAT     H233465   2.265   3.828   3.927
11075WAT      O33466   4.247   0.628   9.337
11075WAT     H133467   4.260   0.532   9.312
11075WAT     H233468   4.271   0.641   9.433
11076WAT      O33469   6.662   0.604   8.053
11076WAT     H133470   6.646   0.575   7.959
11076WAT     H233471   6.577   0.641   8.092
11077WAT      O33472   8.853   5.915   9.724
11077WAT     H133473   8.934   5.945   9.774
11077WAT     H233474   8.881   5.855   9.648
11078WAT      O33475   2.434   8.880   6.701
11078WAT     H133476   2.394   8.970   6.717
11078WAT     H233477   2.516   8.890   6.645
11079WAT      O33478   4.495   2.416   0.410
11079WAT     H133479   4.467   2.454   0.322
11079WAT     H233480   4.422   2.430   0.477
11080WAT      O33481   9.626   6.751   4.325
11080WAT     H133482   9.542   6.708   4.292
11080WAT     H233483   9.606   6.843   4.359
11081WAT      O33484   2.275   2.788   8.829
11081WAT     H133485   2.332   2.869   8.844
11081WAT     H233486   2.322   2.725   8.768
11082WAT      O33487   5.533   5.072   0.586
11082WAT     H133488   5.463   5.095   0.653
11082WAT     H233489   5.519   5.126   0.503
11083WAT      O33490   3.363   4.690   1.856
11083WAT     H133491   3.432   4.761   1.849
11083WAT     H233492   3.378   4.637   1.939
11084WAT      O33493   2.767   7.671   1.914
11084WAT     H133494   2.865   7.677   1.897
11084WAT     H233495   2.747   7.591   1.969
11085WAT      O33496   2.392   3.749   5.479
11085WAT     H133497   2.351   3.722   5.566
11085WAT     H233498   2.379   3.676   5.412
11086WAT      O33499   7.534   3.692   3.600
11086WAT     H133500   7.470   3.758   3.639
11086WAT     H233501   7.601   3.667   3.669
11087WAT      O33502   2.762   5.998   8.606
11087WAT     H133503   2.762   5.941   8.524
11087WAT     H233504   2.752   6.094   8.579
11088WAT      O33505   0.171   2.808   8.108
11088WAT     H133506   0.130   2.870   8.175
11088WAT     H233507   0.266   2.790   8.133
11089WAT      O33508   1.544   1.610   5.868
11089WAT     H133509   1.593   1.523   5.854
11089WAT     H233510   1.521   1.620   5.965
11090WAT      O33511   4.906   6.240   4.658
11090WAT     H133512   4.870   6.180   4.588
11090WAT     H233513   5.005   6.225   4.668
11091WAT      O33514   5.328   5.439   7.632
11091WAT     H133515   5.410   5.454   7.575
11091WAT     H233516   5.302   5.524   7.676
11092WAT      O33517   1.226   1.901   7.282
11092WAT     H133518   1.223   1.818   7.227
11092WAT     H233519   1.247   1.877   7.377
11093WAT      O33520   7.434   8.752   6.532
11093WAT     H133521   7.525   8.760   6.491
11093WAT     H233522   7.401   8.842   6.558
11094WAT      O33523   4.335   2.851   6.568
11094WAT     H133524   4.320   2.950   6.558
11094WAT     H233525   4.428   2.828   6.537
11095WAT      O33526   6.926   4.065   1.925
11095WAT     H133527   6.916   3.994   1.995
11095WAT     H233528   6.836   4.087   1.887
11096WAT      O33529   0.956   3.080   6.814
11096WAT     H133530   0.893   3.158   6.814
11096WAT     H233531   1.000   3.073   6.725
11097WAT      O33532   8.521   9.707   8.358
11097WAT     H133533   8.486   9.730   8.268
11097WAT     H233534   8.605   9.653   8.349
11098WAT      O33535   6.987   0.621   7.423
11098WAT     H133536   7.066   0.559   7.422
11098WAT     H233537   7.011   0.705   7.473
11099WAT      O33538   2.426   4.281   4.589
11099WAT     H133539   2.517   4.312   4.618
11099WAT     H233540   2.436   4.208   4.521
11100WAT      O33541   1.170   8.444   6.505
11100WAT     H133542   1.261   8.433   6.545
11100WAT     H233543   1.174   8.511   6.431
11101WAT      O33544   0.271   2.888   3.758
11101WAT     H133545   0.196   2.918   3.818
11101WAT     H233546   0.284   2.956   3.685
11102WAT      O33547   6.847   0.406   1.728
11102WAT     H133548   6.903   0.488   1.741
11102WAT     H233549   6.768   0.429   1.670
11103WAT      O33550   6.002   7.612   1.912
11103WAT     H133551   6.072   7.568   1.969
11103WAT     H233552   5.960   7.687   1.963
11104WAT      O33553   0.961   1.388   3.366
11104WAT     H133554   0.881   1.347   3.322
11104WAT     H233555   1.039   1.325   3.359
11105WAT      O33556   6.145   2.171   1.745
11105WAT     H133557   6.113   2.142   1.654
11105WAT     H233558   6.181   2.091   1.793
11106WAT      O33559   7.616   6.499   0.607
11106WAT     H133560   7.544   6.560   0.642
11106WAT     H233561   7.632   6.426   0.673
11107WAT      O33562   4.399   5.967   7.643
11107WAT     H133563   4.453   5.884   7.658
11107WAT     H233564   4.396   5.986   7.545
11108WAT      O33565   5.519   7.048   9.224
11108WAT     H133566   5.440   7.074   9.280
11108WAT     H233567   5.488   7.004   9.140
11109WAT      O33568   0.616   6.504   7.712
11109WAT     H133569   0.534   6.492   7.767
11109WAT     H233570   0.666   6.418   7.708
11110WAT      O33571   9.714   0.096   1.435
11110WAT     H133572   9.678   0.107   1.342
11110WAT     H233573   9.814   0.096   1.433
11111WAT      O33574   5.437   3.720   0.047
11111WAT     H133575   5.518   3.753   0.096
11111WAT     H233576   5.445   3.744  -0.050
11112WAT      O33577   4.110   2.142   4.426
11112WAT     H133578   4.073   2.104   4.511
11112WAT     H233579   4.057   2.222   4.400
11113WAT      O33580   3.719   4.633   4.901
11113WAT     H133581   3.749   4.609   4.993
11113WAT     H233582   3.713   4.732   4.892
11114WAT      O33583   5.079   7.620   5.458
11114WAT     H133584   5.009   7.690   5.477
11114WAT     H233585   5.036   7.544   5.410
11115WAT      O33586   9.380   2.461   6.698
11115WAT     H133587   9.317   2.388   6.723
11115WAT     H233588   9.431   2.435   6.617
11116WAT      O33589   0.587   0.251   4.497
11116WAT     H133590   0.625   0.289   4.413
11116WAT     H233591   0.487   0.254   4.493
11117WAT      O33592   5.292   6.047   5.237
11117WAT     H133593   5.244   6.130   5.265
11117WAT     H233594   5.382   6.072   5.199
11118WAT      O33595   0.261   9.321   9.410
11118WAT     H133596   0.312   9.320   9.324
11118WAT     H233597   0.188   9.252   9.407
11119WAT      O33598   8.975   1.405   5.663
11119WAT     H133599   8.938   1.320   5.626
11119WAT     H233600   9.067   1.421   5.628
11120WAT      O33601   1.040   5.657   1.809
11120WAT     H133602   0.993   5.601   1.741
11120WAT     H233603   1.028   5.616   1.900
11121WAT      O33604   8.096   3.392   0.649
11121WAT     H133605   8.027   3.337   0.601
11121WAT     H233606   8.056   3.431   0.731
11122WAT      O33607   7.195   2.969   0.606
11122WAT     H133608   7.188   2.960   0.705
11122WAT     H233609   7.114   3.015   0.570
11123WAT      O33610   9.598   3.510   5.798
11123WAT     H133611   9.555   3.580   5.855
11123WAT     H233612   9.697   3.510   5.815
11124WAT      O33613   6.776   6.827   1.719
11124WAT     H133614   6.789   6.801   1.624
11124WAT     H233615   6.856   6.801   1.773
11125WAT      O33616   3.860   7.307   6.106
11125WAT     H133617   3.880   7.289   6.202
11125WAT     H233618   3.931   7.366   6.068
11126WAT      O33619   1.207   8.825   9.303
11126WAT     H133620   1.112   8.849   9.327
11126WAT     H233621   1.207   8.740   9.252
11127WAT      O33622   9.108   5.944   0.708
11127WAT     H133623   9.195   5.944   0.757
11127WAT     H233624   9.050   6.017   0.746
11128WAT      O33625   5.404   7.747   0.148
11128WAT     H133626   5.437   7.711   0.235
11128WAT     H233627   5.369   7.672   0.092
11129WAT      O33628   2.340   6.519   1.038
11129WAT     H133629   2.292   6.607   1.032
11129WAT     H233630   2.395   6.506   0.956
11130WAT      O33631   3.199   1.572   2.029
11130WAT     H133632   3.209   1.649   2.092
11130WAT     H233633   3.104   1.541   2.029
11131WAT      O33634   8.848   4.274   2.771
11131WAT     H133635   8.798   4.251   2.688
11131WAT     H233636   8.860   4.191   2.826
11132WAT      O33637   7.263   3.780   6.575
11132WAT     H133638   7.246   3.772   6.477
11132WAT     H233639   7.194   3.841   6.616
11133WAT      O33640   9.456   9.656   3.456
11133WAT     H133641   9.537   9.600   3.475
11133WAT     H233642   9.485   9.744   3.419
11134WAT      O33643   6.051   3.505   7.077
11134WAT     H133644   6.145   3.477   7.099
11134WAT     H233645   6.037   3.600   7.105
11135WAT      O33646   0.008   8.939   3.612
11135WAT     H133647  -0.071   8.998   3.624
11135WAT     H233648   0.035   8.901   3.701
11136WAT      O33649   8.353   8.388   6.952
11136WAT     H133650   8.367   8.449   6.874
11136WAT     H233651   8.436   8.386   7.008
11137WAT      O33652   1.781   2.926   0.245
11137WAT     H133653   1.873   2.966   0.247
11137WAT     H233654   1.720   2.984   0.191
11138WAT      O33655   1.404   8.251   7.633
11138WAT     H133656   1.382   8.193   7.712
11138WAT     H233657   1.335   8.237   7.562
11139WAT      O33658   1.681   6.510   8.696
11139WAT     H133659   1.778   6.533   8.697
11139WAT     H233660   1.654   6.471   8.784
11140WAT      O33661   9.103   7.464   7.595
11140WAT     H133662   9.029   7.485   7.659
11140WAT     H233663   9.102   7.367   7.573
11141WAT      O33664   4.331   7.333   8.612
11141WAT     H133665   4.241   7.373   8.599
11141WAT     H233666   4.369   7.306   8.523
11142WAT      O33667   7.303   6.135   5.029
11142WAT     H133668   7.211   6.174   5.019
11142WAT     H233669   7.299   6.036   5.023
11143WAT      O33670   8.446   0.470   2.864
11143WAT     H133671   8.492   0.420   2.938
11143WAT     H233672   8.427   0.407   2.789
11144WAT      O33673   8.373   1.440   1.224
11144WAT     H133674   8.444   1.373   1.206
11144WAT     H233675   8.413   1.532   1.227
11145WAT      O33676   9.855   0.981   3.546
11145WAT     H133677   9.882   1.054   3.610
11145WAT     H233678   9.770   0.939   3.578
11146WAT      O33679   2.775   2.913   0.437
11146WAT     H133680   2.799   2.982   0.505
11146WAT     H233681   2.783   2.822   0.479
11147WAT      O33682   1.816   8.397   0.461
11147WAT     H133683   1.865   8.350   0.535
11147WAT     H233684   1.737   8.342   0.434
11148WAT      O33685   2.094   8.617   3.489
11148WAT     H133686   2.067   8.568   3.571
11148WAT     H233687   2.015   8.669   3.455
11149WAT      O33688   4.896   3.613   7.516
11149WAT     H133689   4.842   3.573   7.590
11149WAT     H233690   4.888   3.713   7.519
11150WAT      O33691   2.935   5.735   8.061
11150WAT     H133692   2.882   5.818   8.043
11150WAT     H233693   2.954   5.729   8.159
11151WAT      O33694   2.484   4.794   0.408
11151WAT     H133695   2.443   4.858   0.343
11151WAT     H233696   2.412   4.741   0.453
11152WAT      O33697   1.639   4.864   9.253
11152WAT     H133698   1.589   4.834   9.335
11152WAT     H233699   1.601   4.817   9.173
11153WAT      O33700   1.452   0.444   1.780
11153WAT     H133701   1.379   0.508   1.754
11153WAT     H233702   1.541   0.486   1.760
11154WAT      O33703   5.279   7.525   0.068
11154WAT     H133704   5.244   7.450   0.124
11154WAT     H233705   5.203   7.581   0.035
11155WAT      O33706   2.518   1.904   7.563
11155WAT     H133707   2.571   1.954   7.495
11155WAT     H233708   2.481   1.968   7.630
11156WAT      O33709   2.901   4.787   0.072
11156WAT     H133710   2.930   4.877   0.041
11156WAT     H233711   2.882   4.789   0.170
11157WAT      O33712   8.305   7.228   8.340
11157WAT     H133713   8.376   7.161   8.321
11157WAT     H233714   8.274   7.217   8.435
11158WAT      O33715   6.532   2.249   1.892
11158WAT     H133716   6.627   2.264   1.918
11158WAT     H233717   6.505   2.155   1.916
11159WAT      O33718   0.194   4.481   8.505
11159WAT     H133719   0.110   4.435   8.533
11159WAT     H233720   0.205   4.565   8.558
11160WAT      O33721   1.656   4.951   2.707
11160WAT     H133722   1.602   5.016   2.762
11160WAT     H233723   1.634   4.858   2.736
11161WAT      O33724   9.471   0.318   9.545
11161WAT     H133725   9.382   0.357   9.565
11161WAT     H233726   9.460   0.224   9.512
11162WAT      O33727   0.676   0.246   4.136
11162WAT     H133728   0.695   0.312   4.209
11162WAT     H233729   0.590   0.270   4.091
11163WAT      O33730   5.912   0.865   0.727
11163WAT     H133731   6.003   0.848   0.691
11163WAT     H233732   5.908   0.837   0.823
11164WAT      O33733   9.044   8.667   5.882
11164WAT     H133734   9.057   8.602   5.957
11164WAT     H233735   8.978   8.630   5.817
11165WAT      O33736   7.481   9.101   4.975
11165WAT     H133737   7.483   9.023   4.911
11165WAT     H233738   7.433   9.177   4.933
11166WAT      O33739   6.936   2.429   0.051
11166WAT     H133740   6.997   2.424   0.130
11166WAT     H233741   6.918   2.525   0.029
11167WAT      O33742   1.498   3.002   0.779
11167WAT     H133743   1.594   2.977   0.779
11167WAT     H233744   1.474   3.041   0.690
11168WAT      O33745   3.109   6.841   2.544
11168WAT     H133746   3.098   6.752   2.589
11168WAT     H233747   3.026   6.863   2.493
11169WAT      O33748   8.750   9.448   8.952
11169WAT     H133749   8.751   9.510   8.873
11169WAT     H233750   8.825   9.382   8.943
11170WAT      O33751   7.659   0.309   8.271
11170WAT     H133752   7.689   0.234   8.330
11170WAT     H233753   7.716   0.312   8.189
11171WAT      O33754   0.777   9.259   3.111
11171WAT     H133755   0.822   9.242   3.198
11171WAT     H233756   0.686   9.218   3.111
11172WAT      O33757   0.932   3.283   4.179
11172WAT     H133758   0.907   3.378   4.193
11172WAT     H233759   1.029   3.277   4.155
11173WAT      O33760   3.241   6.667   5.758
11173WAT     H133761   3.292   6.597   5.709
11173WAT     H233762   3.207   6.629   5.844
11174WAT      O33763   4.868   7.767   1.601
11174WAT     H133764   4.925   7.834   1.553
11174WAT     H233765   4.806   7.723   1.535
11175WAT      O33766   1.668   7.020   1.075
11175WAT     H133767   1.669   7.118   1.094
11175WAT     H233768   1.756   6.992   1.037
11176WAT      O33769   8.046   3.929   5.338
11176WAT     H133770   8.095   3.986   5.272
11176WAT     H233771   8.112   3.891   5.404
11177WAT      O33772   5.011   6.181   9.116
11177WAT     H133773   5.006   6.215   9.210
11177WAT     H233774   5.071   6.240   9.062
11178WAT      O33775   7.116   3.940   2.641
11178WAT     H133776   7.023   3.905   2.652
11178WAT     H233777   7.130   4.017   2.704
11179WAT      O33778   3.426   7.578   6.040
11179WAT     H133779   3.472   7.509   5.985
11179WAT     H233780   3.327   7.567   6.032
11180WAT      O33781   5.201   7.238   4.657
11180WAT     H133782   5.152   7.306   4.712
11180WAT     H233783   5.299   7.257   4.660
11181WAT      O33784   8.046   4.760   1.688
11181WAT     H133785   8.120   4.732   1.748
11181WAT     H233786   8.082   4.776   1.596
11182WAT      O33787   1.663   7.660   4.886
11182WAT     H133788   1.697   7.713   4.964
11182WAT     H233789   1.710   7.572   4.883
11183WAT      O33790   6.678   1.256   6.614
11183WAT     H133791   6.589   1.275   6.655
11183WAT     H233792   6.702   1.160   6.629
11184WAT      O33793   1.049   6.227   2.632
11184WAT     H133794   0.995   6.309   2.651
11184WAT     H233795   1.045   6.166   2.710
11185WAT      O33796   3.981   0.443   5.377
11185WAT     H133797   4.038   0.391   5.313
11185WAT     H233798   3.970   0.392   5.462
11186WAT      O33799   7.099   8.291   9.486
11186WAT     H133800   7.124   8.276   9.581
11186WAT     H233801   7.169   8.252   9.426
11187WAT      O33802   9.567   0.358   6.067
11187WAT     H133803   9.478   0.383   6.105
11187WAT     H233804   9.561   0.354   5.967
11188WAT      O33805   3.066   5.584   5.891
11188WAT     H133806   3.079   5.498   5.842
11188WAT     H233807   3.023   5.567   5.979
11189WAT      O33808   2.880   1.962   0.555
11189WAT     H133809   2.911   2.026   0.625
11189WAT     H233810   2.785   1.983   0.531
11190WAT      O33811   6.871   0.904   0.270
11190WAT     H133812   6.817   0.933   0.349
11190WAT     H233813   6.968   0.902   0.295
11191WAT      O33814   0.125   5.267   8.035
11191WAT     H133815   0.103   5.172   8.056
11191WAT     H233816   0.186   5.270   7.955
11192WAT      O33817   9.716   5.670   0.688
11192WAT     H133818   9.767   5.728   0.625
11192WAT     H233819   9.634   5.635   0.643
11193WAT      O33820   7.479   4.498   7.301
11193WAT     H133821   7.421   4.575   7.272
11193WAT     H233822   7.521   4.456   7.220
11194WAT      O33823   0.378   4.278   1.480
11194WAT     H133824   0.282   4.272   1.452
11194WAT     H233825   0.410   4.372   1.470
11195WAT      O33826   6.577   3.162   0.538
11195WAT     H133827   6.604   3.173   0.442
11195WAT     H233828   6.652   3.192   0.597
11196WAT      O33829   3.342   0.972   9.106
11196WAT     H133830   3.292   1.042   9.158
11196WAT     H233831   3.439   0.977   9.127
11197WAT      O33832   2.849   2.449   7.293
11197WAT     H133833   2.939   2.416   7.322
11197WAT     H233834   2.816   2.393   7.217
11198WAT      O33835   0.204   6.376   6.095
11198WAT     H133836   0.189   6.413   6.187
11198WAT     H233837   0.296   6.400   6.064
11199WAT      O33838   1.184   2.431   1.694
11199WAT     H133839   1.283   2.438   1.706
11199WAT     H233840   1.148   2.359   1.753
11200WAT      O33841   4.521   2.274   3.366
11200WAT     H133842   4.600   2.323   3.402
11200WAT     H233843   4.545   2.234   3.277
11201WAT      O33844   1.953   8.775   7.245
11201WAT     H133845   2.005   8.859   7.233
11201WAT     H233846   1.974   8.734   7.334
11202WAT      O33847   5.042   6.548   2.187
11202WAT     H133848   5.057   6.452   2.166
11202WAT     H233849   5.047   6.602   2.103
11203WAT      O33850   8.652   2.127   5.930
11203WAT     H133851   8.710   2.049   5.952
11203WAT     H233852   8.636   2.130   5.831
11204WAT      O33853   3.472   7.008   3.125
11204WAT     H133854   3.475   7.093   3.177
11204WAT     H233855   3.395   7.010   3.062
11205WAT      O33856   1.144   5.367   2.646
11205WAT     H133857   1.235   5.327   2.634
11205WAT     H233858   1.150   5.448   2.704
11206WAT      O33859   0.517   6.588   5.675
11206WAT     H133860   0.481   6.604   5.583
11206WAT     H233861   0.615   6.609   5.676
11207WAT      O33862   3.607   3.612   1.848
11207WAT     H133863   3.596   3.644   1.942
11207WAT     H233864   3.703   3.595   1.830
11208WAT      O33865   2.161   1.141   3.254
11208WAT     H133866   2.180   1.227   3.206
11208WAT     H233867   2.150   1.068   3.187
11209WAT      O33868   4.344   8.710   7.022
11209WAT     H133869   4.402   8.753   6.953
11209WAT     H233870   4.254   8.753   7.022
11210WAT      O33871   5.575   3.919   3.176
11210WAT     H133872   5.598   3.959   3.087
11210WAT     H233873   5.657   3.880   3.217
11211WAT      O33874   8.621   4.931   8.188
11211WAT     H133875   8.645   4.880   8.106
11211WAT     H233876   8.610   5.028   8.165
11212WAT      O33877   0.996   5.581   7.067
11212WAT     H133878   1.077   5.611   7.118
11212WAT     H233879   1.020   5.571   6.970
11213WAT      O33880   4.061   9.022   1.013
11213WAT     H133881   4.016   8.955   1.071
11213WAT     H233882   4.075   8.983   0.922
11214WAT      O33883   6.787   6.800   2.048
11214WAT     H133884   6.802   6.829   2.143
11214WAT     H233885   6.872   6.809   1.996
11215WAT      O33886   4.285   8.780   4.883
11215WAT     H133887   4.229   8.700   4.902
11215WAT     H233888   4.226   8.862   4.882
11216WAT      O33889   6.719   7.556   5.062
11216WAT     H133890   6.659   7.579   5.139
11216WAT     H233891   6.780   7.632   5.043
11217WAT      O33892   4.186   0.437   6.915
11217WAT     H133893   4.113   0.422   6.982
11217WAT     H233894   4.272   0.455   6.963
11218WAT      O33895   0.362   6.284   1.455
11218WAT     H133896   0.356   6.382   1.436
11218WAT     H233897   0.353   6.268   1.553
11219WAT      O33898   3.673   8.946   4.268
11219WAT     H133899   3.586   8.979   4.306
11219WAT     H233900   3.659   8.857   4.225
11220WAT      O33901   3.940   3.014   8.119
11220WAT     H133902   4.007   3.031   8.047
11220WAT     H233903   3.892   3.099   8.141
11221WAT      O33904   0.895   7.424   1.424
11221WAT     H133905   0.888   7.366   1.343
11221WAT     H233906   0.842   7.384   1.499
11222WAT      O33907   5.312   2.977   7.964
11222WAT     H133908   5.226   2.962   8.013
11222WAT     H233909   5.311   2.927   7.877
11223WAT      O33910   8.977   5.047   2.437
11223WAT     H133911   9.028   4.994   2.368
11223WAT     H233912   9.026   5.132   2.456
11224WAT      O33913   9.755   7.549   3.069
11224WAT     H133914   9.735   7.600   3.153
11224WAT     H233915   9.725   7.603   2.990
11225WAT      O33916   5.560   4.299   1.947
11225WAT     H133917   5.641   4.271   1.896
11225WAT     H233918   5.496   4.346   1.887
11226WAT      O33919   0.054   6.860   0.088
11226WAT     H133920   0.154   6.858   0.090
11226WAT     H233921   0.022   6.848  -0.006
11227WAT      O33922   1.790   7.951   4.278
11227WAT     H133923   1.757   8.025   4.220
11227WAT     H233924   1.735   7.868   4.262
11228WAT      O33925   3.596   0.810   3.676
11228WAT     H133926   3.580   0.775   3.584
11228WAT     H233927   3.695   0.825   3.689
11229WAT      O33928   7.676   4.927   1.651
11229WAT     H133929   7.612   4.881   1.712
11229WAT     H233930   7.711   5.010   1.695
11230WAT      O33931   7.259   2.947   0.911
11230WAT     H133932   7.282   2.854   0.941
11230WAT     H233933   7.185   2.983   0.969
11231WAT      O33934   2.383   2.671   1.136
11231WAT     H133935   2.431   2.607   1.196
11231WAT     H233936   2.380   2.634   1.043
11232WAT      O33937   1.010   0.788   9.773
11232WAT     H133938   0.930   0.836   9.737
11232WAT     H233939   1.057   0.848   9.839
11233WAT      O33940   3.651   9.820   0.606
11233WAT     H133941   3.589   9.890   0.642
11233WAT     H233942   3.599   9.756   0.549
11234WAT      O33943   3.665   7.156   5.459
11234WAT     H133944   3.685   7.250   5.431
11234WAT     H233945   3.670   7.096   5.379
11235WAT      O33946   2.478   3.791   3.396
11235WAT     H133947   2.506   3.868   3.340
11235WAT     H233948   2.548   3.772   3.465
11236WAT      O33949   1.745   5.349   0.405
11236WAT     H133950   1.738   5.346   0.504
11236WAT     H233951   1.824   5.294   0.376
11237WAT      O33952   9.713   9.178   4.309
11237WAT     H133953   9.630   9.202   4.260
11237WAT     H233954   9.700   9.193   4.407
11238WAT      O33955   4.664   1.004   9.553
11238WAT     H133956   4.752   1.052   9.545
11238WAT     H233957   4.590   1.068   9.536
11239WAT      O33958   4.511   1.392   2.438
11239WAT     H133959   4.516   1.345   2.350
11239WAT     H233960   4.567   1.474   2.436
11240WAT      O33961   0.079   4.490   1.487
11240WAT     H133962   0.057   4.430   1.564
11240WAT     H233963   0.057   4.585   1.512
11241WAT      O33964   5.779   3.840   4.918
11241WAT     H133965   5.757   3.922   4.865
11241WAT     H233966   5.830   3.776   4.861
11242WAT      O33967   3.020   7.410   0.891
11242WAT     H133968   2.920   7.402   0.882
11242WAT     H233969   3.063   7.330   0.849
11243WAT      O33970   5.022   3.230   5.449
11243WAT     H133971   5.049   3.159   5.383
11243WAT     H233972   5.099   3.249   5.511
11244WAT      O33973   5.005   5.053   5.080
11244WAT     H133974   5.017   5.073   5.177
11244WAT     H233975   4.911   5.074   5.053
11245WAT      O33976   3.655   1.878   6.495
11245WAT     H133977   3.679   1.856   6.401
11245WAT     H233978   3.573   1.935   6.497
11246WAT      O33979   7.706   8.660   2.113
11246WAT     H133980   7.634   8.610   2.163
11246WAT     H233981   7.665   8.736   2.064
11247WAT      O33982   6.593   1.166   2.076
11247WAT     H133983   6.584   1.183   1.978
11247WAT     H233984   6.538   1.087   2.102
11248WAT      O33985   3.491   6.056   7.673
11248WAT     H133986   3.585   6.035   7.697
11248WAT     H233987   3.483   6.153   7.650
11249WAT      O33988   9.229   9.285   4.208
11249WAT     H133989   9.194   9.378   4.219
11249WAT     H233990   9.181   9.240   4.133
11250WAT      O33991   9.279   7.212   2.066
11250WAT     H133992   9.195   7.225   2.119
11250WAT     H233993   9.318   7.301   2.043
11251WAT      O33994   6.942   0.589   0.429
11251WAT     H133995   6.980   0.571   0.338
11251WAT     H233996   7.015   0.613   0.492
11252WAT      O33997   5.970   2.838   0.069
11252WAT     H133998   5.951   2.891   0.152
11252WAT     H233999   6.018   2.896   0.003
11253WAT      O34000   3.850   5.993   6.472
11253WAT     H134001   3.762   5.953   6.446
11253WAT     H234002   3.894   6.031   6.391
11254WAT      O34003   1.831   8.705   8.480
11254WAT     H134004   1.907   8.694   8.417
11254WAT     H234005   1.774   8.623   8.478
11255WAT      O34006   4.597   6.356   9.812
11255WAT     H134007   4.585   6.454   9.802
11255WAT     H234008   4.620   6.335   9.908
11256WAT      O34009   2.874   4.157   7.985
11256WAT     H134010   2.941   4.137   7.914
11256WAT     H234011   2.883   4.253   8.014
11257WAT      O34012   4.601   4.008   5.583
11257WAT     H134013   4.682   4.000   5.641
11257WAT     H234014   4.580   3.920   5.541
11258WAT      O34015   5.034   5.386   8.585
11258WAT     H134016   4.988   5.363   8.499
11258WAT     H234017   5.008   5.478   8.614
11259WAT      O34018   9.393   4.282   6.249
11259WAT     H134019   9.373   4.252   6.342
11259WAT     H234020   9.469   4.229   6.212
11260WAT      O34021   1.189   7.650   0.533
11260WAT     H134022   1.135   7.601   0.465
11260WAT     H234023   1.163   7.620   0.625
11261WAT      O34024   5.920   8.704   5.027
11261WAT     H134025   5.986   8.638   4.991
11261WAT     H234026   5.956   8.744   5.111
11262WAT      O34027   3.429   4.443   3.573
11262WAT     H134028   3.459   4.516   3.634
11262WAT     H234029   3.506   4.382   3.553
11263WAT      O34030   9.398   8.999   8.506
11263WAT     H134031   9.314   9.024   8.459
11263WAT     H234032   9.397   8.902   8.529
11264WAT      O34033   2.658   7.269   1.669
11264WAT     H134034   2.643   7.228   1.759
11264WAT     H234035   2.674   7.196   1.602
11265WAT      O34036   5.145   0.714   5.899
11265WAT     H134037   5.117   0.801   5.939
11265WAT     H234038   5.120   0.711   5.802
11266WAT      O34039   4.312   1.376   2.028
11266WAT     H134040   4.270   1.377   1.937
11266WAT     H234041   4.387   1.443   2.030
11267WAT      O34042   5.046   3.882   3.597
11267WAT     H134043   5.069   3.809   3.532
11267WAT     H234044   5.116   3.954   3.591
11268WAT      O34045   3.758   1.925   4.686
11268WAT     H134046   3.785   1.837   4.725
11268WAT     H234047   3.676   1.958   4.732
11269WAT      O34048   6.961   9.627   8.663
11269WAT     H134049   6.963   9.588   8.571
11269WAT     H234050   6.928   9.721   8.659
11270WAT      O34051   3.598   2.169   6.290
11270WAT     H134052   3.567   2.242   6.230
11270WAT     H234053   3.521   2.130   6.339
11271WAT      O34054   8.447   8.577   3.974
11271WAT     H134055   8.381   8.578   3.899
11271WAT     H234056   8.521   8.514   3.952
11272WAT      O34057   3.262   2.135   3.586
11272WAT     H134058   3.249   2.188   3.670
11272WAT     H234059   3.288   2.198   3.512
11273WAT      O34060   6.478   9.488   3.461
11273WAT     H134061   6.476   9.569   3.520
11273WAT     H234062   6.468   9.406   3.517
11274WAT      O34063   5.607   2.836   2.747
11274WAT     H134064   5.565   2.786   2.823
11274WAT     H234065   5.544   2.909   2.718
11275WAT      O34066   8.883   7.756   9.172
11275WAT     H134067   8.805   7.810   9.137
11275WAT     H234068   8.863   7.726   9.265
11276WAT      O34069   1.693   2.821   0.497
11276WAT     H134070   1.704   2.863   0.407
11276WAT     H234071   1.755   2.864   0.562
11277WAT      O34072   5.562   2.161   0.716
11277WAT     H134073   5.542   2.139   0.812
11277WAT     H234074   5.599   2.254   0.711
11278WAT      O34075   5.584   8.610   9.466
11278WAT     H134076   5.501   8.575   9.509
11278WAT     H234077   5.650   8.636   9.536
11279WAT      O34078   6.129   4.379   2.844
11279WAT     H134079   6.153   4.316   2.771
11279WAT     H234080   6.110   4.470   2.806
11280WAT      O34081   0.904   1.109   5.079
11280WAT     H134082   0.946   1.096   5.168
11280WAT     H234083   0.916   1.203   5.049
11281WAT      O34084   5.791   6.286   6.608
11281WAT     H134085   5.711   6.319   6.558
11281WAT     H234086   5.764   6.258   6.700
11282WAT      O34087   8.535   6.455   1.456
11282WAT     H134088   8.518   6.356   1.462
11282WAT     H234089   8.448   6.503   1.441
11283WAT      O34090   8.438   6.299   4.917
11283WAT     H134091   8.493   6.360   4.974
11283WAT     H234092   8.449   6.205   4.948
11284WAT      O34093   1.136   4.213   4.457
11284WAT     H134094   1.062   4.147   4.442
11284WAT     H234095   1.215   4.166   4.495
11285WAT      O34096   7.984   6.796   9.569
11285WAT     H134097   7.961   6.812   9.473
11285WAT     H234098   8.069   6.744   9.575
11286WAT      O34099   3.437   5.866   3.158
11286WAT     H134100   3.519   5.830   3.114
11286WAT     H234101   3.409   5.950   3.113
11287WAT      O34102   0.330   5.785   4.896
11287WAT     H134103   0.272   5.781   4.815
11287WAT     H234104   0.372   5.696   4.912
11288WAT      O34105   3.415   5.271   8.085
11288WAT     H134106   3.388   5.350   8.030
11288WAT     H234107   3.392   5.287   8.181
11289WAT      O34108   2.229   9.685   8.867
11289WAT     H134109   2.177   9.634   8.936
11289WAT     H234110   2.219   9.783   8.885
11290WAT      O34111   8.596   7.487   0.098
11290WAT     H134112   8.620   7.431   0.019
11290WAT     H234113   8.516   7.447   0.144
11291WAT      O34114   7.476   9.381   7.867
11291WAT     H134115   7.380   9.391   7.893
11291WAT     H234116   7.530   9.452   7.911
11292WAT      O34117   0.614   7.369   3.952
11292WAT     H134118   0.598   7.437   4.023
11292WAT     H234119   0.532   7.361   3.895
11293WAT      O34120   2.714   1.970   8.866
11293WAT     H134121   2.771   2.040   8.825
11293WAT     H234122   2.673   1.913   8.794
11294WAT      O34123   1.098   2.680   0.272
11294WAT     H134124   1.078   2.582   0.266
11294WAT     H234125   1.175   2.702   0.212
11295WAT      O34126   3.893   0.672   4.740
11295WAT     H134127   3.990   0.651   4.754
11295WAT     H234128   3.851   0.696   4.827
11296WAT      O34129   2.802   1.658   7.286
11296WAT     H134130   2.866   1.582   7.297
11296WAT     H234131   2.750   1.647   7.201
11297WAT      O34132   4.105   8.110   8.650
11297WAT     H134133   4.204   8.127   8.652
11297WAT     H234134   4.057   8.197   8.640
11298WAT      O34135   9.705   5.405   2.985
11298WAT     H134136   9.707   5.329   2.920
11298WAT     H234137   9.642   5.383   3.059
11299WAT      O34138   5.511   8.679   5.187
11299WAT     H134139   5.588   8.627   5.149
11299WAT     H234140   5.541   8.728   5.269
11300WAT      O34141   2.586   2.538   7.917
11300WAT     H134142   2.526   2.575   7.987
11300WAT     H234143   2.610   2.444   7.940
11301WAT      O34144   8.934   4.672   8.961
11301WAT     H134145   8.945   4.769   8.941
11301WAT     H234146   9.014   4.621   8.927
11302WAT      O34147   1.596   0.542   2.051
11302WAT     H134148   1.621   0.634   2.081
11302WAT     H234149   1.499   0.540   2.026
11303WAT      O34150   7.744   3.457   1.008
11303WAT     H134151   7.727   3.452   0.910
11303WAT     H234152   7.842   3.475   1.024
11304WAT      O34153   8.144   1.804   1.288
11304WAT     H134154   8.180   1.845   1.372
11304WAT     H234155   8.044   1.805   1.290
11305WAT      O34156   5.769   6.336   4.784
11305WAT     H134157   5.863   6.352   4.815
11305WAT     H234158   5.763   6.351   4.685
11306WAT      O34159   3.948   8.008   4.350
11306WAT     H134160   3.870   8.057   4.390
11306WAT     H234161   4.002   8.071   4.295
11307WAT      O34162   5.575   4.570   5.315
11307WAT     H134163   5.515   4.534   5.244
11307WAT     H234164   5.532   4.650   5.358
11308WAT      O34165   9.432   4.291   4.889
11308WAT     H134166   9.419   4.276   4.987
11308WAT     H234167   9.527   4.274   4.865
11309WAT      O34168   2.971   4.501   2.848
11309WAT     H134169   3.026   4.451   2.781
11309WAT     H234170   2.977   4.455   2.936
11310WAT      O34171   5.993   0.232   1.311
11310WAT     H134172   6.041   0.162   1.256
11310WAT     H234173   6.020   0.222   1.407
11311WAT      O34174   3.867   1.330   0.077
11311WAT     H134175   3.870   1.403   0.145
11311WAT     H234176   3.816   1.361  -0.003
11312WAT      O34177   5.548   1.025   9.126
11312WAT     H134178   5.476   0.960   9.103
11312WAT     H234179   5.591   1.059   9.043
11313WAT      O34180   1.017   4.863   6.526
11313WAT     H134181   0.974   4.939   6.574
11313WAT     H234182   1.033   4.788   6.590
11314WAT      O34183   5.771   4.045   7.424
11314WAT     H134184   5.694   4.010   7.370
11314WAT     H234185   5.804   3.973   7.485
11315WAT      O34186   4.237   7.746   8.781
11315WAT     H134187   4.161   7.801   8.747
11315WAT     H234188   4.321   7.800   8.779
11316WAT      O34189   1.272   1.562   3.174
11316WAT     H134190   1.271   1.660   3.152
11316WAT     H234191   1.338   1.545   3.246
11317WAT      O34192   1.232   4.681   1.842
11317WAT     H134193   1.313   4.638   1.882
11317WAT     H234194   1.201   4.628   1.763
11318WAT      O34195   6.241   7.918   1.844
11318WAT     H134196   6.298   7.872   1.911
11318WAT     H234197   6.283   8.006   1.819
11319WAT      O34198   2.769   9.604   2.132
11319WAT     H134199   2.863   9.570   2.131
11319WAT     H234200   2.708   9.535   2.170
11320WAT      O34201   8.664   5.975   7.231
11320WAT     H134202   8.735   5.994   7.163
11320WAT     H234203   8.582   5.942   7.185
11321WAT      O34204   3.086   2.700   8.043
11321WAT     H134205   3.105   2.622   8.102
11321WAT     H234206   2.987   2.712   8.034
11322WAT      O34207   2.088   1.419   5.067
11322WAT     H134208   2.019   1.385   5.003
11322WAT     H234209   2.123   1.344   5.122
11323WAT      O34210   9.770   4.083   4.389
11323WAT     H134211   9.743   4.044   4.477
11323WAT     H234212   9.832   4.020   4.342
11324WAT      O34213   1.785   2.611   6.082
11324WAT     H134214   1.837   2.538   6.038
11324WAT     H234215   1.711   2.573   6.136
11325WAT      O34216   8.078   1.546   4.249
11325WAT     H134217   8.060   1.603   4.168
11325WAT     H234218   8.176   1.540   4.264
11326WAT      O34219   4.085   6.713   2.164
11326WAT     H134220   4.161   6.713   2.099
11326WAT     H234221   4.011   6.656   2.128
11327WAT      O34222   6.468   8.032   7.995
11327WAT     H134223   6.395   7.972   7.963
11327WAT     H234224   6.466   8.118   7.945
11328WAT      O34225   2.479   8.258   7.359
11328WAT     H134226   2.395   8.299   7.395
11328WAT     H234227   2.521   8.202   7.430
11329WAT      O34228   6.616   6.566   7.764
11329WAT     H134229   6.584   6.477   7.733
11329WAT     H234230   6.540   6.619   7.800
11330WAT      O34231   0.764   6.140   4.995
11330WAT     H134232   0.673   6.156   5.032
11330WAT     H234233   0.769   6.049   4.955
11331WAT      O34234   4.414   9.077   4.608
11331WAT     H134235   4.493   9.113   4.559
11331WAT     H234236   4.442   9.000   4.666
11332WAT      O34237   2.674   9.735   0.429
11332WAT     H134238   2.643   9.669   0.361
11332WAT     H234239   2.663   9.828   0.392
11333WAT      O34240   1.394   7.944   1.514
11333WAT     H134241   1.378   8.042   1.503
11333WAT     H234242   1.447   7.929   1.598
11334WAT      O34243   3.076   9.722   3.235
11334WAT     H134244   3.124   9.805   3.207
11334WAT     H234245   3.143   9.650   3.254
11335WAT      O34246   4.420   2.126   7.619
11335WAT     H134247   4.423   2.108   7.521
11335WAT     H234248   4.337   2.177   7.641
11336WAT      O34249   4.491   1.244   3.844
11336WAT     H134250   4.573   1.253   3.900
11336WAT     H234251   4.517   1.237   3.748
11337WAT      O34252   6.666   1.937   0.268
11337WAT     H134253   6.642   2.027   0.304
11337WAT     H234254   6.729   1.947   0.191
11338WAT      O34255   5.723   5.548   9.723
11338WAT     H134256   5.669   5.540   9.806
11338WAT     H234257   5.766   5.638   9.719
11339WAT      O34258   0.558   1.027   8.421
11339WAT     H134259   0.558   1.006   8.323
11339WAT     H234260   0.648   1.061   8.448
11340WAT      O34261   3.533   6.107   0.854
11340WAT     H134262   3.571   6.126   0.764
11340WAT     H234263   3.581   6.161   0.923
11341WAT      O34264   5.294   3.157   1.975
11341WAT     H134265   5.344   3.202   2.048
11341WAT     H234266   5.341   3.172   1.888
11342WAT      O34267   1.411   5.737   5.702
11342WAT     H134268   1.380   5.828   5.730
11342WAT     H234269   1.403   5.674   5.780
11343WAT      O34270   5.576   2.022   1.712
11343WAT     H134271   5.615   1.950   1.769
11343WAT     H234272   5.523   2.086   1.769
11344WAT      O34273   6.152   5.112   8.566
11344WAT     H134274   6.206   5.129   8.649
11344WAT     H234275   6.072   5.057   8.589
11345WAT      O34276   4.381   1.982   7.383
11345WAT     H134277   4.333   1.943   7.461
11345WAT     H234278   4.327   2.056   7.344
11346WAT      O34279   9.610   1.903   0.050
11346WAT     H134280   9.599   1.825   0.111
11346WAT     H234281   9.707   1.913   0.026
11347WAT      O34282   1.171   6.855   2.516
11347WAT     H134283   1.262   6.841   2.553
11347WAT     H234284   1.174   6.851   2.416
11348WAT      O34285   1.344   5.981   6.813
11348WAT     H134286   1.247   5.957   6.814
11348WAT     H234287   1.397   5.902   6.783
11349WAT      O34288   0.522   7.248   0.278
11349WAT     H134289   0.596   7.184   0.298
11349WAT     H234290   0.506   7.306   0.357
11350WAT      O34291   2.273   3.145   0.497
11350WAT     H134292   2.321   3.057   0.502
11350WAT     H234293   2.176   3.131   0.518
11351WAT      O34294   7.827   8.775   3.207
11351WAT     H134295   7.740   8.812   3.239
11351WAT     H234296   7.816   8.742   3.113
11352WAT      O34297   9.642   4.559   8.471
11352WAT     H134298   9.723   4.519   8.514
11352WAT     H234299   9.576   4.486   8.451
11353WAT      O34300   2.189   3.555   3.876
11353WAT     H134301   2.168   3.522   3.968
11353WAT     H234302   2.118   3.618   3.847
11354WAT      O34303   5.890   7.034   0.317
11354WAT     H134304   5.822   6.960   0.306
11354WAT     H234305   5.915   7.041   0.413
11355WAT      O34306   2.642   4.400   8.191
11355WAT     H134307   2.571   4.433   8.252
11355WAT     H234308   2.701   4.335   8.240
11356WAT      O34309   7.744   2.258   1.335
11356WAT     H134310   7.699   2.208   1.260
11356WAT     H234311   7.702   2.232   1.422
11357WAT      O34312   6.634   1.369   4.038
11357WAT     H134313   6.625   1.310   4.118
11357WAT     H234314   6.720   1.420   4.043
11358WAT      O34315   3.674   4.104   7.175
11358WAT     H134316   3.675   4.061   7.085
11358WAT     H234317   3.583   4.143   7.192
11359WAT      O34318   7.993   0.209   1.146
11359WAT     H134319   8.010   0.149   1.068
11359WAT     H234320   8.040   0.173   1.227
11360WAT      O34321   8.852   8.550   7.805
11360WAT     H134322   8.868   8.460   7.764
11360WAT     H234323   8.932   8.609   7.789
11361WAT      O34324   3.271   5.141   6.764
11361WAT     H134325   3.286   5.113   6.859
11361WAT     H234326   3.224   5.068   6.715
11362WAT      O34327   1.931   9.679   9.832
11362WAT     H134328   1.947   9.619   9.910
11362WAT     H234329   1.832   9.692   9.820
11363WAT      O34330   6.481   4.872   7.215
11363WAT     H134331   6.405   4.889   7.278
11363WAT     H234332   6.471   4.780   7.176
11364WAT      O34333   2.780   8.712   0.009
11364WAT     H134334   2.719   8.790  -0.010
11364WAT     H234335   2.868   8.746   0.042
11365WAT      O34336   1.733   3.990   2.783
11365WAT     H134337   1.708   4.027   2.873
11365WAT     H234338   1.772   3.899   2.793
11366WAT      O34339   3.365   6.895   5.809
11366WAT     H134340   3.465   6.898   5.820
11366WAT     H234341   3.334   6.800   5.808
11367WAT      O34342   2.772   9.058   4.266
11367WAT     H134343   2.783   9.014   4.177
11367WAT     H234344   2.862   9.087   4.300
11368WAT      O34345   4.337   1.743   2.245
11368WAT     H134346   4.255   1.756   2.300
11368WAT     H234347   4.324   1.666   2.183
11369WAT      O34348   6.452   7.831   2.367
11369WAT     H134349   6.435   7.758   2.301
11369WAT     H234350   6.533   7.808   2.422
11370WAT      O34351   6.576   4.413   4.419
11370WAT     H134352   6.628   4.334   4.385
11370WAT     H234353   6.522   4.385   4.499
11371WAT      O34354   7.140   0.566   4.178
11371WAT     H134355   7.235   0.537   4.167
11371WAT     H234356   7.137   0.666   4.186
11372WAT      O34357   0.205   2.453   5.414
11372WAT     H134358   0.241   2.393   5.486
11372WAT     H234359   0.111   2.478   5.436
11373WAT      O34360   7.616   7.590   6.777
11373WAT     H134361   7.613   7.609   6.679
11373WAT     H234362   7.696   7.534   6.798
11374WAT      O34363   6.758   9.826   7.934
11374WAT     H134364   6.819   9.747   7.926
11374WAT     H234365   6.678   9.801   7.989
11375WAT      O34366   5.619   9.116   4.550
11375WAT     H134367   5.605   9.121   4.649
11375WAT     H234368   5.666   9.031   4.527
11376WAT      O34369   3.182   8.903   8.703
11376WAT     H134370   3.224   8.986   8.666
11376WAT     H234371   3.167   8.914   8.802
11377WAT      O34372   6.249   1.513   5.331
11377WAT     H134373   6.189   1.509   5.411
11377WAT     H234374   6.325   1.575   5.349
11378WAT      O34375   5.680   4.367   2.379
11378WAT     H134376   5.626   4.445   2.411
11378WAT     H234377   5.755   4.400   2.321
11379WAT      O34378   8.940   2.825   3.125
11379WAT     H134379   9.008   2.862   3.060
11379WAT     H234380   8.979   2.746   3.171
11380WAT      O34381   7.706   4.220   1.049
11380WAT     H134382   7.706   4.261   0.958
11380WAT     H234383   7.635   4.150   1.054
11381WAT      O34384   5.878   2.174   8.216
11381WAT     H134385   5.924   2.255   8.252
11381WAT     H234386   5.944   2.117   8.167
11382WAT      O34387   0.744   4.265   8.748
11382WAT     H134388   0.746   4.352   8.698
11382WAT     H234389   0.821   4.261   8.811
11383WAT      O34390   6.016   6.575   8.001
11383WAT     H134391   6.073   6.615   7.929
11383WAT     H234392   5.920   6.597   7.985
11384WAT      O34393   8.603   4.963   6.840
11384WAT     H134394   8.676   5.028   6.818
11384WAT     H234395   8.521   4.988   6.789
11385WAT      O34396   2.298   9.131   4.869
11385WAT     H134397   2.337   9.212   4.825
11385WAT     H234398   2.253   9.158   4.954
11386WAT      O34399   2.355   0.877   8.142
11386WAT     H134400   2.348   0.821   8.059
11386WAT     H234401   2.277   0.939   8.146
11387WAT      O34402   8.185   8.429   6.288
11387WAT     H134403   8.265   8.487   6.275
11387WAT     H234404   8.152   8.397   6.199
11388WAT      O34405   6.755   0.073   7.671
11388WAT     H134406   6.760   0.169   7.696
11388WAT     H234407   6.764   0.016   7.752
11389WAT      O34408   6.115   3.028   2.234
11389WAT     H134409   6.124   3.127   2.236
11389WAT     H234410   6.023   3.002   2.263
11390WAT      O34411   6.442   0.459   6.761
11390WAT     H134412   6.503   0.382   6.781
11390WAT     H234413   6.347   0.430   6.770
11391WAT      O34414   3.633   5.293   4.572
11391WAT     H134415   3.593   5.384   4.587
11391WAT     H234416   3.721   5.303   4.525
11392WAT      O34417   6.818   1.173   6.310
11392WAT     H134418   6.861   1.090   6.273
11392WAT     H234419   6.872   1.208   6.386
11393WAT      O34420   2.111   4.608   9.738
11393WAT     H134421   2.175   4.624   9.813
11393WAT     H234422   2.083   4.512   9.739
11394WAT      O34423   7.089   9.178   0.214
11394WAT     H134424   7.179   9.163   0.175
11394WAT     H234425   7.024   9.202   0.141
11395WAT      O34426   5.318   8.238   4.160
11395WAT     H134427   5.383   8.312   4.175
11395WAT     H234428   5.331   8.201   4.068
11396WAT      O34429   7.395   1.289   4.958
11396WAT     H134430   7.438   1.379   4.959
11396WAT     H234431   7.372   1.264   4.863
11397WAT      O34432   9.870   1.956   1.514
11397WAT     H134433   9.895   1.932   1.420
11397WAT     H234434   9.789   1.905   1.541
11398WAT      O34435   0.177   6.760   4.114
11398WAT     H134436   0.198   6.713   4.029
11398WAT     H234437   0.233   6.842   4.122
11399WAT      O34438   9.489   8.667   9.562
11399WAT     H134439   9.421   8.607   9.519
11399WAT     H234440   9.508   8.635   9.655
11400WAT      O34441   3.306   5.554   1.118
11400WAT     H134442   3.227   5.606   1.150
11400WAT     H234443   3.275   5.469   1.075
11401WAT      O34444   0.432   7.332   5.788
11401WAT     H134445   0.482   7.325   5.874
11401WAT     H234446   0.492   7.370   5.718
11402WAT      O34447   2.468   0.168   3.020
11402WAT     H134448   2.531   0.197   2.948
11402WAT     H234449   2.498   0.079   3.056
11403WAT      O34450   9.631   1.821   1.588
11403WAT     H134451   9.557   1.858   1.532
11403WAT     H234452   9.655   1.729   1.556
11404WAT      O34453   1.046   3.168   9.539
11404WAT     H134454   1.039   3.238   9.609
11404WAT     H234455   0.973   3.180   9.472
11405WAT      O34456   3.839   3.286   1.723
11405WAT     H134457   3.862   3.224   1.798
11405WAT     H234458   3.787   3.236   1.654
11406WAT      O34459   6.891   3.988   3.224
11406WAT     H134460   6.880   3.894   3.256
11406WAT     H234461   6.941   3.988   3.137
11407WAT      O34462   6.581   3.363   1.792
11407WAT     H134463   6.503   3.349   1.854
11407WAT     H234464   6.548   3.366   1.698
11408WAT      O34465   2.447   6.765   9.217
11408WAT     H134466   2.373   6.829   9.235
11408WAT     H234467   2.534   6.803   9.250
11409WAT      O34468   5.494   5.304   3.580
11409WAT     H134469   5.488   5.324   3.678
11409WAT     H234470   5.563   5.364   3.539
11410WAT      O34471   8.710   1.917   4.879
11410WAT     H134472   8.660   1.998   4.909
11410WAT     H234473   8.808   1.938   4.879
11411WAT      O34474   3.570   2.519   5.852
11411WAT     H134475   3.500   2.524   5.781
11411WAT     H234476   3.587   2.611   5.888
11412WAT      O34477   9.132   5.678   9.034
11412WAT     H134478   9.038   5.644   9.045
11412WAT     H234479   9.183   5.616   8.975
11413WAT      O34480   2.554   7.678   2.505
11413WAT     H134481   2.554   7.685   2.605
11413WAT     H234482   2.560   7.582   2.478
11414WAT      O34483   0.483   6.176   7.658
11414WAT     H134484   0.583   6.180   7.655
11414WAT     H234485   0.449   6.241   7.725
11415WAT      O34486   3.978   9.077   0.520
11415WAT     H134487   3.932   9.132   0.590
11415WAT     H234488   3.927   9.083   0.435
11416WAT      O34489   9.652   7.331   3.882
11416WAT     H134490   9.593   7.309   3.805
11416WAT     H234491   9.679   7.247   3.929
11417WAT      O34492   8.151   0.640   2.998
11417WAT     H134493   8.185   0.575   2.930
11417WAT     H234494   8.222   0.706   3.020
11418WAT      O34495   0.962   8.764   3.315
11418WAT     H134496   0.978   8.849   3.265
11418WAT     H234497   1.040   8.702   3.302
11419WAT      O34498   3.270   4.702   3.628
11419WAT     H134499   3.252   4.770   3.699
11419WAT     H234500   3.342   4.640   3.658
11420WAT      O34501   0.642   6.912   4.457
11420WAT     H134502   0.667   7.007   4.441
11420WAT     H234503   0.554   6.908   4.503
11421WAT      O34504   9.494   3.378   0.543
11421WAT     H134505   9.413   3.383   0.602
11421WAT     H234506   9.576   3.379   0.599
11422WAT      O34507   9.359   7.717   8.056
11422WAT     H134508   9.418   7.703   7.977
11422WAT     H234509   9.412   7.757   8.131
11423WAT      O34510   6.283   2.081   0.195
11423WAT     H134511   6.359   2.100   0.256
11423WAT     H234512   6.273   2.156   0.130
11424WAT      O34513   5.518   7.926   1.503
11424WAT     H134514   5.575   7.846   1.521
11424WAT     H234515   5.426   7.895   1.477
11425WAT      O34516   7.629   9.806   2.557
11425WAT     H134517   7.711   9.761   2.593
11425WAT     H234518   7.551   9.743   2.562
11426WAT      O34519   3.677   7.230   0.054
11426WAT     H134520   3.694   7.255   0.150
11426WAT     H234521   3.751   7.264  -0.003
11427WAT      O34522   4.429   2.169   9.342
11427WAT     H134523   4.526   2.152   9.328
11427WAT     H234524   4.411   2.268   9.336
11428WAT      O34525   8.356   7.488   4.507
11428WAT     H134526   8.275   7.521   4.459
11428WAT     H234527   8.329   7.429   4.582
11429WAT      O34528   5.654   6.463   9.229
11429WAT     H134529   5.752   6.441   9.230
11429WAT     H234530   5.636   6.530   9.158
11430WAT      O34531   6.919   5.648   1.355
11430WAT     H134532   6.949   5.582   1.424
11430WAT     H234533   6.978   5.643   1.275
11431WAT      O34534   5.547   7.209   1.572
11431WAT     H134535   5.636   7.203   1.616
11431WAT     H234536   5.475   7.208   1.641
11432WAT      O34537   7.283   2.657   0.975
11432WAT     H134538   7.323   2.598   1.045
11432WAT     H234539   7.349   2.669   0.901
11433WAT      O34540   7.265   1.133   9.662
11433WAT     H134541   7.264   1.213   9.723
11433WAT     H234542   7.280   1.050   9.716
11434WAT      O34543   9.067   3.501   9.761
11434WAT     H134544   9.154   3.551   9.762
11434WAT     H234545   9.078   3.415   9.712
11435WAT      O34546   0.888   2.943   4.743
11435WAT     H134547   0.923   3.015   4.683
11435WAT     H234548   0.823   2.981   4.808
11436WAT      O34549   0.529   8.445   6.109
11436WAT     H134550   0.567   8.477   6.195
11436WAT     H234551   0.601   8.402   6.054
11437WAT      O34552   2.888   5.742   9.544
11437WAT     H134553   2.930   5.805   9.479
11437WAT     H234554   2.874   5.653   9.501
11438WAT      O34555   7.307   1.090   3.281
11438WAT     H134556   7.337   1.029   3.208
11438WAT     H234557   7.382   1.151   3.307
11439WAT      O34558   3.073   3.934   8.823
11439WAT     H134559   3.031   4.000   8.885
11439WAT     H234560   3.068   3.969   8.729
11440WAT      O34561   6.004   0.375   0.476
11440WAT     H134562   5.921   0.420   0.510
11440WAT     H234563   6.048   0.434   0.408
11441WAT      O34564   4.208   4.941   7.089
11441WAT     H134565   4.260   4.865   7.128
11441WAT     H234566   4.234   5.026   7.135
11442WAT      O34567   9.146   7.520   4.885
11442WAT     H134568   9.125   7.426   4.911
11442WAT     H234569   9.169   7.574   4.966
11443WAT      O34570   3.566   1.038   0.618
11443WAT     H134571   3.593   0.971   0.549
11443WAT     H234572   3.552   0.993   0.705
11444WAT      O34573   4.284   0.683   5.044
11444WAT     H134574   4.370   0.732   5.052
11444WAT     H234575   4.301   0.591   5.009
11445WAT      O34576   4.851   3.498   2.797
11445WAT     H134577   4.836   3.501   2.895
11445WAT     H234578   4.937   3.545   2.774
11446WAT      O34579   8.439   2.855   8.005
11446WAT     H134580   8.453   2.950   7.975
11446WAT     H234581   8.385   2.853   8.089
11447WAT      O34582   2.994   7.927   5.453
11447WAT     H134583   3.071   7.884   5.405
11447WAT     H234584   3.005   7.914   5.552
11448WAT      O34585   5.707   6.940   5.485
11448WAT     H134586   5.758   6.877   5.427
11448WAT     H234587   5.609   6.923   5.475
11449WAT      O34588   2.457   2.285   4.242
11449WAT     H134589   2.543   2.329   4.214
11449WAT     H234590   2.470   2.240   4.331
11450WAT      O34591   0.089   6.011   4.982
11450WAT     H134592   0.087   6.070   5.063
11450WAT     H234593   0.070   5.917   5.010
11451WAT      O34594   3.273   9.451   5.388
11451WAT     H134595   3.348   9.502   5.346
11451WAT     H234596   3.226   9.509   5.454
11452WAT      O34597   0.246   3.396   1.011
11452WAT     H134598   0.317   3.367   0.946
11452WAT     H234599   0.194   3.316   1.040
11453WAT      O34600   1.450   7.046   4.553
11453WAT     H134601   1.434   7.012   4.646
11453WAT     H234602   1.429   6.974   4.488
11454WAT      O34603   7.784   7.742   1.579
11454WAT     H134604   7.696   7.764   1.536
11454WAT     H234605   7.850   7.813   1.557
11455WAT      O34606   0.993   0.701   4.551
11455WAT     H134607   0.949   0.665   4.633
11455WAT     H234608   1.086   0.731   4.573
11456WAT      O34609   7.077   4.958   2.836
11456WAT     H134610   7.112   5.041   2.878
11456WAT     H234611   7.099   4.879   2.894
11457WAT      O34612   8.073   6.796   5.953
11457WAT     H134613   8.062   6.848   6.038
11457WAT     H234614   8.051   6.854   5.875
11458WAT      O34615   0.087   2.985   6.203
11458WAT     H134616   0.116   3.080   6.218
11458WAT     H234617   0.150   2.923   6.250
11459WAT      O34618   3.677   4.932   5.355
11459WAT     H134619   3.683   5.024   5.317
11459WAT     H234620   3.642   4.937   5.449
11460WAT      O34621   6.522   6.414   0.731
11460WAT     H134622   6.455   6.344   0.704
11460WAT     H234623   6.614   6.383   0.709
11461WAT      O34624   4.741   3.588   1.764
11461WAT     H134625   4.749   3.534   1.848
11461WAT     H234626   4.830   3.629   1.744
11462WAT      O34627   1.563   6.738   8.698
11462WAT     H134628   1.601   6.646   8.683
11462WAT     H234629   1.492   6.733   8.768
11463WAT      O34630   9.801   4.087   5.063
11463WAT     H134631   9.892   4.055   5.088
11463WAT     H234632   9.778   4.170   5.115
11464WAT      O34633   7.693   7.571   7.075
11464WAT     H134634   7.640   7.616   7.003
11464WAT     H234635   7.788   7.561   7.045
11465WAT      O34636   3.187   7.365   1.713
11465WAT     H134637   3.142   7.403   1.794
11465WAT     H234638   3.184   7.432   1.639
11466WAT      O34639   7.823   7.198   3.390
11466WAT     H134640   7.815   7.207   3.291
11466WAT     H234641   7.872   7.276   3.428
11467WAT      O34642   8.945   0.491   5.516
11467WAT     H134643   8.965   0.580   5.475
11467WAT     H234644   8.901   0.432   5.449
11468WAT      O34645   5.516   3.045   2.412
11468WAT     H134646   5.493   3.124   2.355
11468WAT     H234647   5.546   2.969   2.353
11469WAT      O34648   5.103   8.518   3.976
11469WAT     H134649   5.024   8.474   3.934
11469WAT     H234650   5.176   8.530   3.908
11470WAT      O34651   4.993   4.992   3.246
11470WAT     H134652   4.978   5.076   3.193
11470WAT     H234653   4.905   4.959   3.282
11471WAT      O34654   0.536   2.746   4.332
11471WAT     H134655   0.440   2.756   4.306
11471WAT     H234656   0.593   2.803   4.273
11472WAT      O34657   5.855   0.549   4.814
11472WAT     H134658   5.758   0.557   4.795
11472WAT     H234659   5.907   0.602   4.747
11473WAT      O34660   7.102   4.871   0.722
11473WAT     H134661   7.039   4.876   0.800
11473WAT     H234662   7.160   4.790   0.731
11474WAT      O34663   9.684   0.906   0.316
11474WAT     H134664   9.618   0.832   0.310
11474WAT     H234665   9.772   0.870   0.349
11475WAT      O34666   7.116   9.257   1.122
11475WAT     H134667   7.137   9.170   1.078
11475WAT     H234668   7.020   9.280   1.109
11476WAT      O34669   4.725   1.532   2.953
11476WAT     H134670   4.785   1.589   3.008
11476WAT     H234671   4.747   1.543   2.856
11477WAT      O34672   2.351   5.377   8.075
11477WAT     H134673   2.415   5.454   8.085
11477WAT     H234674   2.326   5.366   7.979
11478WAT      O34675   7.355   8.022   3.112
11478WAT     H134676   7.451   8.033   3.142
11478WAT     H234677   7.330   7.926   3.116
11479WAT      O34678   6.359   4.572   0.379
11479WAT     H134679   6.427   4.505   0.350
11479WAT     H234680   6.303   4.533   0.453
11480WAT      O34681   8.090   8.840   9.255
11480WAT     H134682   8.029   8.835   9.334
11480WAT     H234683   8.072   8.924   9.205
11481WAT      O34684   6.649   0.811   1.284
11481WAT     H134685   6.692   0.800   1.374
11481WAT     H234686   6.591   0.892   1.285
11482WAT      O34687   2.451   3.191   4.097
11482WAT     H134688   2.534   3.147   4.063
11482WAT     H234689   2.376   3.125   4.101
11483WAT      O34690   0.872   6.942   0.842
11483WAT     H134691   0.914   7.029   0.867
11483WAT     H234692   0.772   6.952   0.843
11484WAT      O34693   5.067   1.859   7.048
11484WAT     H134694   4.977   1.898   7.068
11484WAT     H234695   5.117   1.919   6.986
11485WAT      O34696   0.206   0.239   2.944
11485WAT     H134697   0.217   0.319   2.886
11485WAT     H234698   0.205   0.267   3.040
11486WAT      O34699   1.896   0.459   6.873
11486WAT     H134700   1.896   0.398   6.952
11486WAT     H234701   1.985   0.504   6.865
11487WAT      O34702   0.095   2.357   0.493
11487WAT     H134703   0.064   2.392   0.405
11487WAT     H234704   0.076   2.259   0.499
11488WAT      O34705   1.096   6.931   7.035
11488WAT     H134706   1.148   6.894   7.112
11488WAT     H234707   1.047   7.013   7.064
11489WAT      O34708   5.557   6.169   3.639
11489WAT     H134709   5.470   6.138   3.600
11489WAT     H234710   5.574   6.121   3.725
11490WAT      O34711   4.649   6.900   9.762
11490WAT     H134712   4.702   6.845   9.697
11490WAT     H234713   4.659   6.997   9.740
11491WAT      O34714   4.604   1.788   5.947
11491WAT     H134715   4.680   1.726   5.969
11491WAT     H234716   4.632   1.849   5.872
11492WAT      O34717   9.780   2.665   8.616
11492WAT     H134718   9.859   2.695   8.563
11492WAT     H234719   9.705   2.730   8.604
11493WAT      O34720   9.580   7.287   8.296
11493WAT     H134721   9.555   7.377   8.262
11493WAT     H234722   9.678   7.284   8.313
11494WAT      O34723   1.716   1.008   5.646
11494WAT     H134724   1.667   1.022   5.560
11494WAT     H234725   1.659   1.040   5.722
11495WAT      O34726   7.256   1.398   0.972
11495WAT     H134727   7.303   1.310   0.978
11495WAT     H234728   7.243   1.435   1.064
11496WAT      O34729   5.709   4.669   8.919
11496WAT     H134730   5.736   4.598   8.984
11496WAT     H234731   5.789   4.721   8.890
11497WAT      O34732   2.005   4.725   1.054
11497WAT     H134733   1.927   4.787   1.056
11497WAT     H234734   2.088   4.776   1.034
11498WAT      O34735   5.919   9.577   9.726
11498WAT     H134736   5.907   9.536   9.816
11498WAT     H234737   5.830   9.595   9.685
11499WAT      O34738   9.547   2.949   9.656
11499WAT     H134739   9.644   2.969   9.667
11499WAT     H234740   9.497   3.033   9.637
11500WAT      O34741   2.136   5.309   2.492
11500WAT     H134742   2.189   5.352   2.419
11500WAT     H234743   2.198   5.266   2.558
11501WAT      O34744   6.457   1.731   5.841
11501WAT     H134745   6.452   1.830   5.854
11501WAT     H234746   6.553   1.703   5.832
11502WAT      O34747   7.295   3.701   9.003
11502WAT     H134748   7.245   3.756   8.936
11502WAT     H234749   7.346   3.761   9.064
11503WAT      O34750   8.885   5.963   7.619
11503WAT     H134751   8.904   5.883   7.561
11503WAT     H234752   8.962   6.027   7.613
11504WAT      O34753   4.730   9.210   0.503
11504WAT     H134754   4.747   9.114   0.525
11504WAT     H234755   4.676   9.216   0.420
11505WAT      O34756   5.906   2.472   2.641
11505WAT     H134757   6.005   2.469   2.627
11505WAT     H234758   5.886   2.455   2.738
11506WAT      O34759   2.464   3.418   8.651
11506WAT     H134760   2.550   3.462   8.675
11506WAT     H234761   2.468   3.386   8.556
11507WAT      O34762   8.487   1.596   6.502
11507WAT     H134763   8.508   1.620   6.407
11507WAT     H234764   8.473   1.680   6.554
11508WAT      O34765   5.482   3.347   3.202
11508WAT     H134766   5.521   3.346   3.294
11508WAT     H234767   5.492   3.256   3.160
11509WAT      O34768   9.404   3.909   7.855
11509WAT     H134769   9.475   3.842   7.878
11509WAT     H234770   9.342   3.870   7.787
11510WAT      O34771   4.984   8.195   8.353
11510WAT     H134772   5.034   8.262   8.408
11510WAT     H234773   4.936   8.131   8.413
11511WAT      O34774   2.263   9.156   5.749
11511WAT     H134775   2.212   9.212   5.814
11511WAT     H234776   2.330   9.101   5.799
11512WAT      O34777   8.262   7.169   5.686
11512WAT     H134778   8.213   7.101   5.632
11512WAT     H234779   8.197   7.232   5.728
11513WAT      O34780   6.613   2.052   2.299
11513WAT     H134781   6.642   2.110   2.375
11513WAT     H234782   6.692   2.003   2.263
11514WAT      O34783   4.640   2.992   0.550
11514WAT     H134784   4.589   3.072   0.581
11514WAT     H234785   4.738   3.013   0.548
11515WAT      O34786   6.725   4.928   9.753
11515WAT     H134787   6.666   5.006   9.734
11515WAT     H234788   6.714   4.900   9.848
11516WAT      O34789   4.262   1.707   1.942
11516WAT     H134790   4.316   1.757   2.010
11516WAT     H234791   4.308   1.712   1.854
11517WAT      O34792   6.598   8.337   0.032
11517WAT     H134793   6.684   8.346  -0.018
11517WAT     H234794   6.538   8.414   0.009
11518WAT      O34795   2.972   1.412   4.121
11518WAT     H134796   2.914   1.373   4.192
11518WAT     H234797   3.051   1.458   4.163
11519WAT      O34798   6.091   4.737   6.109
11519WAT     H134799   6.101   4.807   6.039
11519WAT     H234800   6.071   4.649   6.065
11520WAT      O34801   3.733   2.082   1.996
11520WAT     H134802   3.830   2.061   2.007
11520WAT     H234803   3.694   2.105   2.085
11521WAT      O34804   7.585   4.439   9.743
11521WAT     H134805   7.674   4.393   9.740
11521WAT     H234806   7.533   4.406   9.821
11522WAT      O34807   6.015   4.304   4.990
11522WAT     H134808   6.109   4.272   4.992
11522WAT     H234809   5.983   4.308   4.895
11523WAT      O34810   5.436   7.459   5.538
11523WAT     H134811   5.364   7.521   5.568
11523WAT     H234812   5.471   7.408   5.617
11524WAT      O34813   4.891   7.683   5.157
11524WAT     H134814   4.962   7.616   5.137
11524WAT     H234815   4.897   7.709   5.254
11525WAT      O34816   8.937   4.976   4.658
11525WAT     H134817   8.984   4.889   4.646
11525WAT     H234818   9.004   5.048   4.676
11526WAT      O34819   5.745   0.157   3.586
11526WAT     H134820   5.662   0.102   3.578
11526WAT     H234821   5.769   0.169   3.683
11527WAT      O34822   5.204   7.105   8.222
11527WAT     H134823   5.227   7.091   8.126
11527WAT     H234824   5.135   7.038   8.250
11528WAT      O34825   1.326   5.764   1.860
11528WAT     H134826   1.244   5.721   1.821
11528WAT     H234827   1.331   5.742   1.957
11529WAT      O34828   6.489   9.680   1.181
11529WAT     H134829   6.434   9.640   1.254
11529WAT     H234830   6.531   9.765   1.214
11530WAT      O34831   6.022   3.825   9.507
11530WAT     H134832   6.113   3.860   9.528
11530WAT     H234833   6.027   3.726   9.494
11531WAT      O34834   9.665   3.265   0.361
11531WAT     H134835   9.747   3.234   0.409
11531WAT     H234836   9.588   3.268   0.424
11532WAT      O34837   2.048   2.864   8.680
11532WAT     H134838   2.018   2.958   8.694
11532WAT     H234839   2.123   2.844   8.744
11533WAT      O34840   2.321   5.460   5.174
11533WAT     H134841   2.398   5.486   5.232
11533WAT     H234842   2.283   5.373   5.207
11534WAT      O34843   4.110   6.616   5.926
11534WAT     H134844   4.041   6.544   5.928
11534WAT     H234845   4.073   6.698   5.972
11535WAT      O34846   4.621   0.959   4.816
11535WAT     H134847   4.585   1.052   4.827
11535WAT     H234848   4.676   0.954   4.733
11536WAT      O34849   0.889   3.743   8.024
11536WAT     H134850   0.849   3.658   7.991
11536WAT     H234851   0.988   3.735   8.026
11537WAT      O34852   9.660   4.856   8.207
11537WAT     H134853   9.667   4.925   8.279
11537WAT     H234854   9.671   4.900   8.118
11538WAT      O34855   3.918   3.231   8.899
11538WAT     H134856   3.878   3.161   8.840
11538WAT     H234857   3.878   3.224   8.991
11539WAT      O34858   8.243   6.364   2.810
11539WAT     H134859   8.185   6.438   2.775
11539WAT     H234860   8.321   6.403   2.858
11540WAT      O34861   5.080   8.788   6.914
11540WAT     H134862   5.141   8.840   6.853
11540WAT     H234863   4.995   8.839   6.927
11541WAT      O34864   1.552   2.727   4.380
11541WAT     H134865   1.624   2.797   4.387
11541WAT     H234866   1.595   2.636   4.376
11542WAT      O34867   3.432   6.351   3.498
11542WAT     H134868   3.515   6.405   3.512
11542WAT     H234869   3.357   6.389   3.553
11543WAT      O34870   2.648   3.800   1.776
11543WAT     H134871   2.583   3.731   1.745
11543WAT     H234872   2.615   3.841   1.862
11544WAT      O34873   9.482   2.408   7.905
11544WAT     H134874   9.476   2.508   7.909
11544WAT     H234875   9.493   2.373   7.998
11545WAT      O34876   6.880   0.383   6.073
11545WAT     H134877   6.899   0.454   6.141
11545WAT     H234878   6.966   0.343   6.040
11546WAT      O34879   4.547   4.587   3.569
11546WAT     H134880   4.525   4.663   3.507
11546WAT     H234881   4.465   4.557   3.616
11547WAT      O34882   4.152   4.024   1.302
11547WAT     H134883   4.144   4.122   1.319
11547WAT     H234884   4.133   4.005   1.205
11548WAT      O34885   5.636   9.607   8.587
11548WAT     H134886   5.676   9.516   8.575
11548WAT     H234887   5.538   9.603   8.570
11549WAT      O34888   7.997   3.058   0.772
11549WAT     H134889   7.915   3.036   0.719
11549WAT     H234890   7.975   3.128   0.840
11550WAT      O34891   9.668   0.255   8.524
11550WAT     H134892   9.721   0.263   8.608
11550WAT     H234893   9.616   0.339   8.509
11551WAT      O34894   4.566   2.161   6.816
11551WAT     H134895   4.618   2.076   6.827
11551WAT     H234896   4.532   2.168   6.722
11552WAT      O34897   8.211   9.817   3.621
11552WAT     H134898   8.160   9.764   3.554
11552WAT     H234899   8.220   9.765   3.706
11553WAT      O34900   9.640   9.769   6.966
11553WAT     H134901   9.599   9.698   7.023
11553WAT     H234902   9.584   9.782   6.884
11554WAT      O34903   4.147   1.747   0.682
11554WAT     H134904   4.136   1.732   0.584
11554WAT     H234905   4.163   1.659   0.728
11555WAT      O34906   1.135   4.551   7.168
11555WAT     H134907   1.189   4.479   7.125
11555WAT     H234908   1.040   4.546   7.137
11556WAT      O34909   4.935   9.728   7.682
11556WAT     H134910   4.984   9.757   7.601
11556WAT     H234911   4.850   9.780   7.691
11557WAT      O34912   6.718   5.870   3.007
11557WAT     H134913   6.629   5.859   3.051
11557WAT     H234914   6.756   5.779   2.987
11558WAT      O34915   3.319   6.985   2.562
11558WAT     H134916   3.377   6.938   2.627
11558WAT     H234917   3.253   6.920   2.523
11559WAT      O34918   7.783   4.172   2.480
11559WAT     H134919   7.794   4.271   2.495
11559WAT     H234920   7.696   4.155   2.433
11560WAT      O34921   0.551   0.697   9.337
11560WAT     H134922   0.591   0.753   9.409
11560WAT     H234923   0.574   0.736   9.247
11561WAT      O34924   3.564   3.105   1.087
11561WAT     H134925   3.552   3.053   1.002
11561WAT     H234926   3.477   3.145   1.114
11562WAT      O34927   2.654   3.408   9.574
11562WAT     H134928   2.677   3.317   9.610
11562WAT     H234929   2.586   3.451   9.632
11563WAT      O34930   8.602   3.945   0.912
11563WAT     H134931   8.632   4.013   0.978
11563WAT     H234932   8.595   3.856   0.956
11564WAT      O34933   5.212   7.057   2.625
11564WAT     H134934   5.254   7.121   2.562
11564WAT     H234935   5.282   6.995   2.662
11565WAT      O34936   1.595   3.780   1.538
11565WAT     H134937   1.645   3.768   1.623
11565WAT     H234938   1.502   3.811   1.557
11566WAT      O34939   2.396   4.329   0.403
11566WAT     H134940   2.382   4.262   0.330
11566WAT     H234941   2.345   4.302   0.484
11567WAT      O34942   9.274   8.964   8.808
11567WAT     H134943   9.371   8.984   8.813
11567WAT     H234944   9.228   9.031   8.750
11568WAT      O34945   3.395   8.287   4.560
11568WAT     H134946   3.320   8.254   4.617
11568WAT     H234947   3.416   8.381   4.585
11569WAT      O34948   1.117   8.533   8.152
11569WAT     H134949   1.069   8.563   8.070
11569WAT     H234950   1.211   8.509   8.129
11570WAT      O34951   6.680   0.868   1.859
11570WAT     H134952   6.583   0.888   1.870
11570WAT     H234953   6.705   0.879   1.763
11571WAT      O34954   5.665   4.161   2.186
11571WAT     H134955   5.637   4.235   2.247
11571WAT     H234956   5.627   4.178   2.095
11572WAT      O34957   5.991   0.756   1.631
11572WAT     H134958   5.913   0.733   1.573
11572WAT     H234959   5.997   0.856   1.640
11573WAT      O34960   7.358   3.447   5.937
11573WAT     H134961   7.312   3.360   5.919
11573WAT     H234962   7.443   3.451   5.885
11574WAT      O34963   6.618   4.501   0.100
11574WAT     H134964   6.709   4.539   0.084
11574WAT     H234965   6.603   4.423   0.039
11575WAT      O34966   4.064   4.613   6.564
11575WAT     H134967   4.006   4.692   6.545
11575WAT     H234968   4.099   4.576   6.478
11576WAT      O34969   4.157   5.775   6.355
11576WAT     H134970   4.072   5.776   6.303
11576WAT     H234971   4.227   5.725   6.304
11577WAT      O34972   0.480   3.716   7.842
11577WAT     H134973   0.517   3.624   7.855
11577WAT     H234974   0.451   3.752   7.931
11578WAT      O34975   6.084   0.961   3.642
11578WAT     H134976   6.016   0.994   3.708
11578WAT     H234977   6.041   0.950   3.553
11579WAT      O34978   9.841   6.656   8.549
11579WAT     H134979   9.805   6.605   8.627
11579WAT     H234980   9.808   6.750   8.552
11580WAT      O34981   9.388   0.230   3.575
11580WAT     H134982   9.410   0.206   3.670
11580WAT     H234983   9.311   0.174   3.544
11581WAT      O34984   6.395   1.502   9.734
11581WAT     H134985   6.388   1.412   9.692
11581WAT     H234986   6.380   1.494   9.833
11582WAT      O34987   6.953   8.472   5.550
11582WAT     H134988   6.916   8.489   5.642
11582WAT     H234989   7.051   8.493   5.550
11583WAT      O34990   2.343   8.905   4.359
11583WAT     H134991   2.378   8.870   4.272
11583WAT     H234992   2.373   9.000   4.370
11584WAT      O34993   5.006   0.476   3.959
11584WAT     H134994   4.937   0.521   4.017
11584WAT     H234995   5.012   0.523   3.871
11585WAT      O34996   5.695   7.301   6.828
11585WAT     H134997   5.685   7.245   6.746
11585WAT     H234998   5.752   7.381   6.807
11586WAT      O34999   7.749   8.941   4.179
11586WAT     H135000   7.812   8.880   4.131
11586WAT     H235001   7.741   8.913   4.274
11587WAT      O35002   3.284   9.664   1.177
11587WAT     H135003   3.251   9.587   1.232
11587WAT     H235004   3.336   9.629   1.099
11588WAT      O35005   3.012   4.695   7.119
11588WAT     H135006   3.009   4.790   7.152
11588WAT     H235007   2.955   4.687   7.037
11589WAT      O35008   3.075   4.470   5.919
11589WAT     H135009   3.138   4.512   5.854
11589WAT     H235010   2.983   4.466   5.879
11590WAT      O35011   5.706   6.635   5.089
11590WAT     H135012   5.791   6.596   5.054
11590WAT     H235013   5.659   6.683   5.015
11591WAT      O35014   6.123   1.217   1.535
11591WAT     H135015   6.174   1.218   1.621
11591WAT     H235016   6.164   1.151   1.472
11592WAT      O35017   6.673   7.579   2.314
11592WAT     H135018   6.689   7.506   2.380
11592WAT     H235019   6.748   7.645   2.320
11593WAT      O35020   1.949   5.894   4.198
11593WAT     H135021   1.900   5.862   4.279
11593WAT     H235022   2.034   5.938   4.226
11594WAT      O35023   1.468   8.892   5.493
11594WAT     H135024   1.471   8.924   5.588
11594WAT     H235025   1.535   8.943   5.439
11595WAT      O35026   6.204   6.298   2.645
11595WAT     H135027   6.215   6.293   2.545
11595WAT     H235028   6.241   6.216   2.687
11596WAT      O35029   2.610   6.538   3.576
11596WAT     H135030   2.647   6.600   3.508
11596WAT     H235031   2.510   6.550   3.581
11597WAT      O35032   2.990   3.144   4.609
11597WAT     H135033   3.090   3.141   4.619
11597WAT     H235034   2.960   3.240   4.605
11598WAT      O35035   4.595   9.576   6.575
11598WAT     H135036   4.670   9.603   6.635
11598WAT     H235037   4.632   9.534   6.493
11599WAT      O35038   1.653   3.746   7.632
11599WAT     H135039   1.645   3.665   7.574
11599WAT     H235040   1.727   3.732   7.698
11600WAT      O35041   4.711   2.136   9.293
11600WAT     H135042   4.790   2.180   9.251
11600WAT     H235043   4.728   2.037   9.298
11601WAT      O35044   2.392   7.170   0.446
11601WAT     H135045   2.422   7.165   0.350
11601WAT     H235046   2.468   7.149   0.506
11602WAT      O35047   5.431   5.684   2.078
11602WAT     H135048   5.419   5.607   2.016
11602WAT     H235049   5.441   5.768   2.025
11603WAT      O35050   3.570   6.859   8.037
11603WAT     H135051   3.479   6.892   8.066
11603WAT     H235052   3.570   6.845   7.938
11604WAT      O35053   5.901   8.816   5.862
11604WAT     H135054   5.882   8.719   5.882
11604WAT     H235055   5.966   8.822   5.787
11605WAT      O35056   7.954   2.900   6.337
11605WAT     H135057   7.868   2.848   6.344
11605WAT     H235058   7.978   2.936   6.427
11606WAT      O35059   3.511   7.517   8.635
11606WAT     H135060   3.431   7.573   8.610
11606WAT     H235061   3.527   7.449   8.563
11607WAT      O35062   3.084   0.696   3.854
11607WAT     H135063   2.999   0.747   3.869
11607WAT     H235064   3.161   0.760   3.852
11608WAT      O35065   4.023   7.542   2.005
11608WAT     H135066   4.086   7.579   1.937
11608WAT     H235067   4.044   7.582   2.094
11609WAT      O35068   3.588   1.539   5.370
11609WAT     H135069   3.570   1.516   5.466
11609WAT     H235070   3.553   1.467   5.311
11610WAT      O35071   3.666   3.392   9.657
11610WAT     H135072   3.613   3.315   9.621
11610WAT     H235073   3.752   3.400   9.607
11611WAT      O35074   7.935   6.756   2.314
11611WAT     H135075   7.853   6.699   2.322
11611WAT     H235076   7.914   6.836   2.258
11612WAT      O35077   6.239   4.934   7.304
11612WAT     H135078   6.231   4.889   7.393
11612WAT     H235079   6.220   5.032   7.315
11613WAT      O35080   0.362   9.531   9.532
11613WAT     H135081   0.327   9.447   9.490
11613WAT     H235082   0.453   9.551   9.496
11614WAT      O35083   3.362   0.782   5.979
11614WAT     H135084   3.301   0.861   5.967
11614WAT     H235085   3.456   0.814   5.988
11615WAT      O35086   4.401   8.006   3.009
11615WAT     H135087   4.351   7.935   2.959
11615WAT     H235088   4.366   8.013   3.102
11616WAT      O35089   3.302   0.035   1.960
11616WAT     H135090   3.386   0.081   1.932
11616WAT     H235091   3.307  -0.062   1.936
11617WAT      O35092   6.576   2.269   9.339
11617WAT     H135093   6.673   2.254   9.357
11617WAT     H235094   6.544   2.348   9.390
11618WAT      O35095   8.542   9.513   5.674
11618WAT     H135096   8.549   9.424   5.719
11618WAT     H235097   8.621   9.570   5.700
11619WAT      O35098   7.888   7.440   1.305
11619WAT     H135099   7.796   7.477   1.321
11619WAT     H235100   7.956   7.509   1.330
11620WAT      O35101   2.451   9.121   3.278
11620WAT     H135102   2.508   9.186   3.328
11620WAT     H235103   2.429   9.158   3.188
11621WAT      O35104   2.256   0.654   6.423
11621WAT     H135105   2.323   0.625   6.354
11621WAT     H235106   2.296   0.725   6.481
11622WAT      O35107   1.691   1.938   4.509
11622WAT     H135108   1.701   2.037   4.501
11622WAT     H235109   1.667   1.915   4.603
11623WAT      O35110   0.033   0.570   9.446
11623WAT     H135111  -0.016   0.500   9.498
11623WAT     H235112   0.128   0.543   9.436
11624WAT      O35113   8.180   3.869   0.816
11624WAT     H135114   8.263   3.813   0.821
11624WAT     H235115   8.144   3.882   0.908
11625WAT      O35116   9.181   1.915   1.966
11625WAT     H135117   9.163   1.888   2.061
11625WAT     H235118   9.104   1.969   1.932
11626WAT      O35119   4.765   5.365   9.743
11626WAT     H135120   4.782   5.409   9.654
11626WAT     H235121   4.840   5.387   9.805
11627WAT      O35122   0.575   1.505   5.971
11627WAT     H135123   0.507   1.442   6.008
11627WAT     H235124   0.631   1.458   5.903
11628WAT      O35125   6.502   3.577   6.891
11628WAT     H135126   6.560   3.630   6.953
11628WAT     H235127   6.414   3.623   6.880
11629WAT      O35128   1.720   1.853   6.719
11629WAT     H135129   1.797   1.905   6.756
11629WAT     H235130   1.652   1.839   6.791
11630WAT      O35131   1.881   5.003   9.579
11630WAT     H135132   1.892   4.942   9.501
11630WAT     H235133   1.885   5.098   9.549
11631WAT      O35134   6.926   9.648   7.324
11631WAT     H135135   6.955   9.721   7.386
11631WAT     H235136   7.007   9.606   7.282
11632WAT      O35137   1.771   7.465   0.249
11632WAT     H135138   1.737   7.418   0.168
11632WAT     H235139   1.697   7.475   0.316
11633WAT      O35140   2.545   7.972   3.946
11633WAT     H135141   2.629   7.956   3.998
11633WAT     H235142   2.547   7.917   3.862
11634WAT      O35143   5.122   5.301   3.864
11634WAT     H135144   5.190   5.269   3.930
11634WAT     H235145   5.135   5.399   3.847
11635WAT      O35146   8.762   6.899   2.828
11635WAT     H135147   8.668   6.922   2.800
11635WAT     H235148   8.822   6.899   2.748
11636WAT      O35149   6.034   2.816   7.746
11636WAT     H135150   6.018   2.773   7.834
11636WAT     H235151   5.947   2.847   7.707
11637WAT      O35152   0.436   2.508   9.654
11637WAT     H135153   0.466   2.429   9.602
11637WAT     H235154   0.336   2.512   9.655
11638WAT      O35155   6.692   4.400   2.727
11638WAT     H135156   6.644   4.324   2.773
11638WAT     H235157   6.690   4.481   2.786
11639WAT      O35158   6.443   0.295   1.706
11639WAT     H135159   6.417   0.392   1.705
11639WAT     H235160   6.360   0.239   1.710
11640WAT      O35161   0.852   2.672   1.895
11640WAT     H135162   0.913   2.635   1.965
11640WAT     H235163   0.844   2.606   1.820
11641WAT      O35164   7.382   2.304   5.808
11641WAT     H135165   7.478   2.275   5.810
11641WAT     H235166   7.363   2.348   5.721
11642WAT      O35167   4.106   4.083   3.157
11642WAT     H135168   4.176   4.155   3.162
11642WAT     H235169   4.022   4.115   3.201
11643WAT      O35170   5.403   2.362   7.855
11643WAT     H135171   5.312   2.400   7.837
11643WAT     H235172   5.439   2.400   7.940
11644WAT      O35173   4.545   5.882   3.763
11644WAT     H135174   4.570   5.938   3.684
11644WAT     H235175   4.574   5.788   3.748
11645WAT      O35176   1.279   3.116   6.208
11645WAT     H135177   1.308   3.146   6.118
11645WAT     H235178   1.182   3.092   6.206
11646WAT      O35179   8.108   6.958   8.810
11646WAT     H135180   8.102   7.010   8.725
11646WAT     H235181   8.145   6.867   8.791
11647WAT      O35182   9.411   0.769   1.889
11647WAT     H135183   9.445   0.677   1.912
11647WAT     H235184   9.366   0.766   1.800
11648WAT      O35185   7.407   4.707   6.022
11648WAT     H135186   7.349   4.626   6.010
11648WAT     H235187   7.484   4.685   6.081
11649WAT      O35188   2.307   4.603   2.438
11649WAT     H135189   2.305   4.645   2.529
11649WAT     H235190   2.215   4.596   2.402
11650WAT      O35191   5.658   8.031   0.540
11650WAT     H135192   5.672   8.130   0.532
11650WAT     H235193   5.627   8.009   0.633
11651WAT      O35194   6.050   5.873   1.459
11651WAT     H135195   6.030   5.933   1.537
11651WAT     H235196   6.138   5.829   1.473
11652WAT      O35197   2.742   6.541   5.515
11652WAT     H135198   2.742   6.615   5.582
11652WAT     H235199   2.825   6.546   5.460
11653WAT      O35200   4.081   7.673   2.229
11653WAT     H135201   4.126   7.761   2.214
11653WAT     H235202   4.060   7.663   2.326
11654WAT      O35203   7.953   6.967   3.294
11654WAT     H135204   7.875   6.912   3.264
11654WAT     H235205   7.920   7.052   3.336
11655WAT      O35206   7.726   2.353   8.762
11655WAT     H135207   7.748   2.257   8.747
11655WAT     H235208   7.767   2.384   8.848
11656WAT      O35209   5.530   0.141   8.900
11656WAT     H135210   5.559   0.059   8.851
11656WAT     H235211   5.585   0.153   8.982
11657WAT      O35212   5.307   5.293   1.738
11657WAT     H135213   5.385   5.239   1.707
11657WAT     H235214   5.253   5.323   1.660
11658WAT      O35215   3.965   3.288   0.325
11658WAT     H135216   3.992   3.238   0.407
11658WAT     H235217   4.046   3.308   0.270
11659WAT      O35218   9.499   3.802   5.558
11659WAT     H135219   9.431   3.830   5.626
11659WAT     H235220   9.514   3.703   5.565
11660WAT      O35221   0.125   7.913   6.299
11660WAT     H135222   0.099   8.010   6.299
11660WAT     H235223   0.160   7.888   6.389
11661WAT      O35224   2.921   2.938   6.254
11661WAT     H135225   2.839   2.880   6.248
11661WAT     H235226   2.894   3.034   6.245
11662WAT      O35227   2.868   0.678   6.090
11662WAT     H135228   2.966   0.658   6.094
11662WAT     H235229   2.819   0.599   6.054
11663WAT      O35230   9.516   9.504   0.332
11663WAT     H135231   9.545   9.477   0.240
11663WAT     H235232   9.526   9.427   0.395
11664WAT      O35233   8.401   6.914   7.639
11664WAT     H135234   8.368   6.913   7.544
11664WAT     H235235   8.493   6.953   7.641
11665WAT      O35236   9.397   0.814   8.565
11665WAT     H135237   9.430   0.723   8.539
11665WAT     H235238   9.450   0.884   8.517
11666WAT      O35239   0.767   3.972   4.548
11666WAT     H135240   0.808   3.995   4.636
11666WAT     H235241   0.668   3.962   4.559
11667WAT      O35242   6.089   5.249   5.260
11667WAT     H135243   6.129   5.231   5.350
11667WAT     H235244   6.152   5.217   5.189
11668WAT      O35245   7.886   3.885   7.639
11668WAT     H135246   7.896   3.786   7.645
11668WAT     H235247   7.790   3.910   7.652
11669WAT      O35248   1.974   7.853   6.163
11669WAT     H135249   1.983   7.901   6.250
11669WAT     H235250   2.044   7.782   6.157
11670WAT      O35251   2.683   4.200   6.412
11670WAT     H135252   2.634   4.134   6.354
11670WAT     H235253   2.648   4.194   6.506
11671WAT      O35254   3.909   8.744   4.608
11671WAT     H135255   3.817   8.781   4.619
11671WAT     H235256   3.945   8.716   4.697
11672WAT      O35257   5.939   4.919   8.922
11672WAT     H135258   6.029   4.916   8.968
11672WAT     H235259   5.901   5.011   8.931
11673WAT      O35260   8.166   3.895   1.388
11673WAT     H135261   8.092   3.834   1.361
11673WAT     H235262   8.161   3.911   1.487
11674WAT      O35263   0.982   9.281   0.932
11674WAT     H135264   1.075   9.276   0.968
11674WAT     H235265   0.981   9.337   0.849
11675WAT      O35266   2.110   4.165   5.920
11675WAT     H135267   2.053   4.182   5.840
11675WAT     H235268   2.132   4.252   5.965
11676WAT      O35269   9.861   5.937   4.448
11676WAT     H135270   9.869   5.972   4.541
11676WAT     H235271   9.875   5.838   4.448
11677WAT      O35272   2.273   3.269   9.686
11677WAT     H135273   2.311   3.335   9.621
11677WAT     H235274   2.195   3.310   9.733
11678WAT      O35275   5.020   6.902   0.852
11678WAT     H135276   5.027   6.810   0.892
11678WAT     H235277   5.055   6.899   0.758
11679WAT      O35278   5.808   6.130   3.504
11679WAT     H135279   5.879   6.184   3.548
11679WAT     H235280   5.719   6.151   3.546
11680WAT      O35281   7.452   8.978   0.868
11680WAT     H135282   7.521   8.983   0.940
11680WAT     H235283   7.486   8.922   0.793
11681WAT      O35284   0.346   6.679   0.255
11681WAT     H135285   0.355   6.753   0.189
11681WAT     H235286   0.389   6.596   0.218
11682WAT      O35287   4.879   1.962   2.959
11682WAT     H135288   4.902   2.033   3.026
11682WAT     H235289   4.780   1.961   2.944
11683WAT      O35290   2.368   8.184   6.352
11683WAT     H135291   2.322   8.115   6.296
11683WAT     H235292   2.336   8.275   6.325
11684WAT      O35293   6.542   1.893   7.507
11684WAT     H135294   6.485   1.975   7.508
11684WAT     H235295   6.562   1.867   7.413
11685WAT      O35296   6.572   7.573   2.693
11685WAT     H135297   6.589   7.665   2.657
11685WAT     H235298   6.513   7.580   2.773
11686WAT      O35299   4.896   9.062   4.054
11686WAT     H135300   4.958   9.139   4.043
11686WAT     H235301   4.806   9.087   4.020
11687WAT      O35302   6.343   4.229   2.252
11687WAT     H135303   6.371   4.315   2.209
11687WAT     H235304   6.414   4.199   2.315
11688WAT      O35305   6.732   6.431   4.073
11688WAT     H135306   6.697   6.458   4.162
11688WAT     H235307   6.748   6.332   4.072
11689WAT      O35308   9.225   5.274   8.904
11689WAT     H135309   9.289   5.346   8.877
11689WAT     H235310   9.178   5.301   8.988
11690WAT      O35311   8.143   7.746   7.122
11690WAT     H135312   8.189   7.827   7.086
11690WAT     H235313   8.078   7.774   7.193
11691WAT      O35314   2.960   4.146   9.001
11691WAT     H135315   3.039   4.181   9.052
11691WAT     H235316   2.897   4.102   9.064
11692WAT      O35317   8.853   5.270   7.724
11692WAT     H135318   8.839   5.273   7.823
11692WAT     H235319   8.919   5.199   7.702
11693WAT      O35320   9.562   7.457   8.075
11693WAT     H135321   9.571   7.357   8.079
11693WAT     H235322   9.529   7.484   7.985
11694WAT      O35323   3.564   5.574   4.603
11694WAT     H135324   3.593   5.629   4.525
11694WAT     H235325   3.587   5.622   4.688
11695WAT      O35326   0.821   8.602   6.691
11695WAT     H135327   0.888   8.529   6.680
11695WAT     H235328   0.816   8.629   6.787
11696WAT      O35329   4.500   4.211   8.777
11696WAT     H135330   4.422   4.250   8.827
11696WAT     H235331   4.579   4.206   8.838
11697WAT      O35332   3.755   7.539   1.925
11697WAT     H135333   3.841   7.511   1.969
11697WAT     H235334   3.753   7.506   1.831
11698WAT      O35335   4.013   3.615   2.359
11698WAT     H135336   4.006   3.671   2.442
11698WAT     H235337   4.001   3.519   2.382
11699WAT      O35338   7.935   1.147   3.349
11699WAT     H135339   7.935   1.205   3.268
11699WAT     H235340   7.992   1.067   3.334
11700WAT      O35341   3.713   2.525   0.518
11700WAT     H135342   3.722   2.561   0.425
11700WAT     H235343   3.741   2.595   0.584
11701WAT      O35344   4.152   5.647   2.316
11701WAT     H135345   4.248   5.675   2.317
11701WAT     H235346   4.113   5.665   2.225
11702WAT      O35347   0.700   5.978   7.299
11702WAT     H135348   0.631   5.975   7.227
11702WAT     H235349   0.665   5.932   7.381
11703WAT      O35350   5.203   0.989   9.680
11703WAT     H135351   5.204   0.955   9.586
11703WAT     H235352   5.250   0.924   9.740
11704WAT      O35353   9.485   0.018   2.273
11704WAT     H135354   9.571   0.050   2.233
11704WAT     H235355   9.498   0.000   2.371
11705WAT      O35356   8.472   5.360   5.025
11705WAT     H135357   8.422   5.319   5.101
11705WAT     H235358   8.470   5.460   5.033
11706WAT      O35359   7.227   0.130   8.276
11706WAT     H135360   7.222   0.225   8.246
11706WAT     H235361   7.321   0.107   8.301
11707WAT      O35362   7.223   3.546   4.850
11707WAT     H135363   7.315   3.531   4.814
11707WAT     H235364   7.155   3.530   4.779
11708WAT      O35365   8.285   1.705   0.777
11708WAT     H135366   8.334   1.639   0.833
11708WAT     H235367   8.258   1.663   0.690
11709WAT      O35368   6.549   8.178   6.498
11709WAT     H135369   6.580   8.271   6.476
11709WAT     H235370   6.629   8.119   6.511
11710WAT      O35371   0.284   7.469   0.374
11710WAT     H135372   0.366   7.481   0.431
11710WAT     H235373   0.271   7.550   0.318
11711WAT      O35374   8.014   7.687   8.273
11711WAT     H135375   7.929   7.734   8.293
11711WAT     H235376   8.087   7.723   8.331
11712WAT      O35377   4.329   4.424   2.329
11712WAT     H135378   4.404   4.487   2.307
11712WAT     H235379   4.326   4.352   2.260
11713WAT      O35380   2.554   8.989   4.890
11713WAT     H135381   2.555   8.890   4.904
11713WAT     H235382   2.463   9.024   4.914
11714WAT      O35383   0.106   8.298   9.244
11714WAT     H135384   0.154   8.249   9.317
11714WAT     H235385   0.042   8.363   9.284
11715WAT      O35386   6.474   8.787   6.407
11715WAT     H135387   6.434   8.696   6.396
11715WAT     H235388   6.573   8.779   6.420
11716WAT      O35389   9.154   3.568   8.628
11716WAT     H135390   9.183   3.640   8.691
11716WAT     H235391   9.136   3.484   8.679
11717WAT      O35392   8.980   2.376   6.802
11717WAT     H135393   8.892   2.359   6.757
11717WAT     H235394   9.027   2.289   6.814
11718WAT      O35395   7.890   6.372   9.525
11718WAT     H135396   7.865   6.275   9.526
11718WAT     H235397   7.954   6.389   9.450
11719WAT      O35398   8.211   2.765   0.250
11719WAT     H135399   8.287   2.731   0.306
11719WAT     H235400   8.126   2.721   0.279
11720WAT      O35401   4.701   1.590   9.013
11720WAT     H135402   4.790   1.632   8.994
11720WAT     H235403   4.641   1.603   8.934
11721WAT      O35404   5.491   9.411   3.158
11721WAT     H135405   5.518   9.464   3.239
11721WAT     H235406   5.505   9.465   3.076
11722WAT      O35407   6.332   8.569   6.337
11722WAT     H135408   6.331   8.475   6.371
11722WAT     H235409   6.383   8.572   6.251
11723WAT      O35410   9.588   1.815   5.326
11723WAT     H135411   9.627   1.858   5.408
11723WAT     H235412   9.642   1.734   5.302
11724WAT      O35413   7.079   0.171   3.813
11724WAT     H135414   7.141   0.213   3.746
11724WAT     H235415   7.133   0.129   3.886
11725WAT      O35416   6.612   0.811   0.666
11725WAT     H135417   6.691   0.753   0.648
11725WAT     H235418   6.628   0.864   0.750
11726WAT      O35419   6.789   3.242   4.437
11726WAT     H135420   6.736   3.196   4.509
11726WAT     H235421   6.793   3.184   4.356
11727WAT      O35422   3.802   1.018   2.752
11727WAT     H135423   3.727   1.067   2.796
11727WAT     H235424   3.784   1.010   2.654
11728WAT      O35425   6.364   6.828   4.625
11728WAT     H135426   6.300   6.863   4.556
11728WAT     H235427   6.365   6.728   4.621
11729WAT      O35428   0.288   8.959   9.360
11729WAT     H135429   0.219   9.030   9.379
11729WAT     H235430   0.246   8.886   9.306
11730WAT      O35431   6.281   2.760   8.250
11730WAT     H135432   6.287   2.672   8.203
11730WAT     H235433   6.262   2.832   8.182
11731WAT      O35434   8.184   0.890   3.850
11731WAT     H135435   8.244   0.947   3.794
11731WAT     H235436   8.094   0.932   3.856
11732WAT      O35437   2.835   2.619   1.729
11732WAT     H135438   2.778   2.623   1.647
11732WAT     H235439   2.803   2.687   1.795
11733WAT      O35440   1.149   5.269   4.656
11733WAT     H135441   1.187   5.189   4.609
11733WAT     H235442   1.102   5.240   4.739
11734WAT      O35443   8.603   3.223   7.829
11734WAT     H135444   8.691   3.263   7.801
11734WAT     H235445   8.594   3.133   7.786
11735WAT      O35446   5.142   6.513   8.745
11735WAT     H135447   5.070   6.456   8.705
11735WAT     H235448   5.229   6.492   8.701
11736WAT      O35449   6.375   2.888   4.699
11736WAT     H135450   6.463   2.847   4.676
11736WAT     H235451   6.317   2.821   4.745
11737WAT      O35452   7.533   4.851   6.367
11737WAT     H135453   7.440   4.886   6.354
11737WAT     H235454   7.531   4.774   6.431
11738WAT      O35455   8.747   9.463   4.749
11738WAT     H135456   8.716   9.523   4.822
11738WAT     H235457   8.844   9.443   4.761
11739WAT      O35458   0.037   8.105   4.682
11739WAT     H135459   0.073   8.037   4.618
11739WAT     H235460  -0.057   8.080   4.708
11740WAT      O35461   4.776   6.459   3.313
11740WAT     H135462   4.782   6.506   3.401
11740WAT     H235463   4.716   6.510   3.252
11741WAT      O35464   1.529   0.866   3.171
11741WAT     H135465   1.474   0.947   3.153
11741WAT     H235466   1.600   0.888   3.238
11742WAT      O35467   5.554   3.643   7.394
11742WAT     H135468   5.497   3.631   7.476
11742WAT     H235469   5.544   3.563   7.335
11743WAT      O35470   9.244   2.622   9.388
11743WAT     H135471   9.303   2.693   9.427
11743WAT     H235472   9.174   2.664   9.331
11744WAT      O35473   5.177   6.333   8.961
11744WAT     H135474   5.229   6.418   8.958
11744WAT     H235475   5.201   6.275   8.883
11745WAT      O35476   9.720   9.028   1.144
11745WAT     H135477   9.668   9.100   1.190
11745WAT     H235478   9.795   9.070   1.092
11746WAT      O35479   1.227   9.690   2.557
11746WAT     H135480   1.289   9.762   2.587
11746WAT     H235481   1.136   9.729   2.538
11747WAT      O35482   7.368   1.995   7.524
11747WAT     H135483   7.436   2.064   7.549
11747WAT     H235484   7.395   1.952   7.438
11748WAT      O35485   6.319   5.679   8.240
11748WAT     H135486   6.406   5.635   8.216
11748WAT     H235487   6.334   5.776   8.256
11749WAT      O35488   9.713   3.398   5.145
11749WAT     H135489   9.802   3.414   5.188
11749WAT     H235490   9.645   3.460   5.184
11750WAT      O35491   0.430   2.086   7.891
11750WAT     H135492   0.503   2.020   7.907
11750WAT     H235493   0.342   2.039   7.891
11751WAT      O35494   2.213   4.513   0.301
11751WAT     H135495   2.177   4.547   0.388
11751WAT     H235496   2.254   4.423   0.315
11752WAT      O35497   5.062   1.772   5.444
11752WAT     H135498   5.152   1.728   5.442
11752WAT     H235499   5.040   1.809   5.354
11753WAT      O35500   9.173   7.511   1.869
11753WAT     H135501   9.270   7.490   1.861
11753WAT     H235502   9.146   7.574   1.796
11754WAT      O35503   4.698   2.871   4.136
11754WAT     H135504   4.769   2.802   4.140
11754WAT     H235505   4.726   2.951   4.190
11755WAT      O35506   1.995   0.077   6.956
11755WAT     H135507   2.065   0.117   6.897
11755WAT     H235508   2.035   0.053   7.044
11756WAT      O35509   6.878   7.660   0.491
11756WAT     H135510   6.855   7.694   0.400
11756WAT     H235511   6.962   7.703   0.523
11757WAT      O35512   7.004   2.539   4.668
11757WAT     H135513   7.074   2.468   4.671
11757WAT     H235514   6.922   2.504   4.624
11758WAT      O35515   3.569   2.798   6.525
11758WAT     H135516   3.548   2.894   6.543
11758WAT     H235517   3.597   2.754   6.611
11759WAT      O35518   4.250   9.630   2.602
11759WAT     H135519   4.215   9.547   2.645
11759WAT     H235520   4.222   9.710   2.656
11760WAT      O35521   5.991   0.502   2.897
11760WAT     H135522   5.910   0.530   2.846
11760WAT     H235523   5.971   0.420   2.951
11761WAT      O35524   8.152   8.071   4.706
11761WAT     H135525   8.150   8.028   4.616
11761WAT     H235526   8.174   8.002   4.775
11762WAT      O35527   6.639   8.749   3.304
11762WAT     H135528   6.596   8.837   3.325
11762WAT     H235529   6.698   8.721   3.380
11763WAT      O35530   2.383   5.530   1.798
11763WAT     H135531   2.425   5.610   1.754
11763WAT     H235532   2.315   5.561   1.865
11764WAT      O35533   0.802   2.681   4.032
11764WAT     H135534   0.871   2.706   3.963
11764WAT     H235535   0.784   2.759   4.092
11765WAT      O35536   0.266   3.790   5.903
11765WAT     H135537   0.296   3.871   5.854
11765WAT     H235538   0.167   3.781   5.895
11766WAT      O35539   0.476   7.322   6.076
11766WAT     H135540   0.532   7.389   6.125
11766WAT     H235541   0.495   7.230   6.111
11767WAT      O35542   2.359   5.302   7.373
11767WAT     H135543   2.420   5.329   7.448
11767WAT     H235544   2.388   5.349   7.289
11768WAT      O35545   1.032   6.874   0.377
11768WAT     H135546   1.013   6.912   0.467
11768WAT     H235547   1.033   6.774   0.382
11769WAT      O35548   4.158   2.517   2.391
11769WAT     H135549   4.175   2.424   2.359
11769WAT     H235550   4.187   2.583   2.321
11770WAT      O35551   5.148   8.274   2.395
11770WAT     H135552   5.133   8.372   2.383
11770WAT     H235553   5.088   8.241   2.469
11771WAT      O35554   0.895   2.471   0.668
11771WAT     H135555   0.893   2.458   0.768
11771WAT     H235556   0.802   2.487   0.635
11772WAT      O35557   0.897   2.133   7.065
11772WAT     H135558   0.907   2.232   7.070
11772WAT     H235559   0.898   2.103   6.970
11773WAT      O35560   8.962   5.765   7.419
11773WAT     H135561   8.932   5.797   7.330
11773WAT     H235562   8.928   5.672   7.435
11774WAT      O35563   2.936   9.459   7.782
11774WAT     H135564   2.851   9.483   7.735
11774WAT     H235565   2.916   9.436   7.877
11775WAT      O35566   4.790   0.657   2.911
11775WAT     H135567   4.772   0.697   3.000
11775WAT     H235568   4.716   0.680   2.848
11776WAT      O35569   9.812   5.064   3.155
11776WAT     H135570   9.855   5.150   3.129
11776WAT     H235571   9.761   5.076   3.240
11777WAT      O35572   0.950   3.715   2.743
11777WAT     H135573   0.930   3.644   2.811
11777WAT     H235574   0.974   3.800   2.789
11778WAT      O35575   5.642   1.758   9.839
11778WAT     H135576   5.696   1.733   9.919
11778WAT     H235577   5.612   1.675   9.791
11779WAT      O35578   9.224   5.204   0.860
11779WAT     H135579   9.280   5.121   0.862
11779WAT     H235580   9.282   5.283   0.877
11780WAT      O35581   5.523   9.288   7.392
11780WAT     H135582   5.615   9.320   7.369
11780WAT     H235583   5.468   9.285   7.309
11781WAT      O35584   5.861   3.557   8.776
11781WAT     H135585   5.848   3.547   8.678
11781WAT     H235586   5.856   3.653   8.801
11782WAT      O35587   4.398   7.808   5.326
11782WAT     H135588   4.379   7.756   5.410
11782WAT     H235589   4.489   7.848   5.331
11783WAT      O35590   6.400   0.561   1.703
11783WAT     H135591   6.352   0.638   1.661
11783WAT     H235592   6.496   0.563   1.675
11784WAT      O35593   6.218   6.584   0.761
11784WAT     H135594   6.289   6.650   0.788
11784WAT     H235595   6.231   6.499   0.810
11785WAT      O35596   0.298   9.459   7.364
11785WAT     H135597   0.278   9.557   7.356
11785WAT     H235598   0.217   9.406   7.339
11786WAT      O35599   5.261   8.372   3.723
11786WAT     H135600   5.345   8.353   3.671
11786WAT     H235601   5.255   8.309   3.800
11787WAT      O35602   5.761   3.163   7.144
11787WAT     H135603   5.776   3.249   7.094
11787WAT     H235604   5.679   3.118   7.108
11788WAT      O35605   1.103   8.795   8.237
11788WAT     H135606   1.074   8.865   8.171
11788WAT     H235607   1.079   8.704   8.202
11789WAT      O35608   0.031   2.500   7.760
11789WAT     H135609  -0.042   2.562   7.789
11789WAT     H235610   0.105   2.553   7.719
11790WAT      O35611   1.134   1.039   8.286
11790WAT     H135612   1.184   1.076   8.208
11790WAT     H235613   1.140   1.103   8.362
11791WAT      O35614   6.726   6.156   4.350
11791WAT     H135615   6.726   6.230   4.417
11791WAT     H235616   6.680   6.187   4.267
11792WAT      O35617   6.098   2.317   3.478
11792WAT     H135618   6.170   2.357   3.534
11792WAT     H235619   6.111   2.345   3.383
11793WAT      O35620   9.524   3.410   4.337
11793WAT     H135621   9.487   3.320   4.358
11793WAT     H235622   9.624   3.407   4.339
11794WAT      O35623   2.349   1.771   0.312
11794WAT     H135624   2.262   1.807   0.279
11794WAT     H235625   2.424   1.827   0.277
11795WAT      O35626   4.823   6.092   0.180
11795WAT     H135627   4.734   6.137   0.196
11795WAT     H235628   4.812   6.021   0.111
11796WAT      O35629   7.094   4.163   9.690
11796WAT     H135630   7.046   4.075   9.688
11796WAT     H235631   7.080   4.211   9.603
11797WAT      O35632   1.335   5.399   0.297
11797WAT     H135633   1.396   5.380   0.221
11797WAT     H235634   1.252   5.444   0.263
11798WAT      O35635   2.289   3.718   5.750
11798WAT     H135636   2.283   3.624   5.784
11798WAT     H235637   2.225   3.776   5.800
11799WAT      O35638   4.152   9.694   4.996
11799WAT     H135639   4.109   9.680   5.085
11799WAT     H235640   4.083   9.719   4.928
11800WAT      O35641   6.623   2.583   0.426
11800WAT     H135642   6.526   2.596   0.408
11800WAT     H235643   6.673   2.667   0.406
11801WAT      O35644   1.986   4.037   7.264
11801WAT     H135645   2.054   3.967   7.287
11801WAT     H235646   1.945   4.073   7.347
11802WAT      O35647   0.961   7.517   0.404
11802WAT     H135648   1.026   7.452   0.365
11802WAT     H235649   0.878   7.469   0.432
11803WAT      O35650   0.143   0.669   4.237
11803WAT     H135651   0.105   0.576   4.244
11803WAT     H235652   0.143   0.697   4.142
11804WAT      O35653   7.294   6.497   5.171
11804WAT     H135654   7.232   6.461   5.102
11804WAT     H235655   7.340   6.579   5.135
11805WAT      O35656   8.684   0.708   9.522
11805WAT     H135657   8.607   0.687   9.582
11805WAT     H235658   8.734   0.787   9.559
11806WAT      O35659   3.695   5.805   2.734
11806WAT     H135660   3.596   5.792   2.735
11806WAT     H235661   3.719   5.872   2.665
11807WAT      O35662   6.714   5.462   9.310
11807WAT     H135663   6.760   5.423   9.230
11807WAT     H235664   6.776   5.457   9.389
11808WAT      O35665   5.630   4.531   3.690
11808WAT     H135666   5.579   4.576   3.764
11808WAT     H235667   5.660   4.441   3.720
11809WAT      O35668   7.087   0.635   0.856
11809WAT     H135669   7.106   0.710   0.919
11809WAT     H235670   7.124   0.550   0.892
11810WAT      O35671   8.512   1.203   1.185
11810WAT     H135672   8.594   1.209   1.129
11810WAT     H235673   8.436   1.170   1.129
11811WAT      O35674   5.627   6.996   1.174
11811WAT     H135675   5.663   6.925   1.234
11811WAT     H235676   5.701   7.058   1.147
11812WAT      O35677   5.707   5.860   7.854
11812WAT     H135678   5.795   5.870   7.900
11812WAT     H235679   5.698   5.929   7.782
11813WAT      O35680   8.860   3.382   4.928
11813WAT     H135681   8.905   3.426   4.850
11813WAT     H235682   8.897   3.291   4.942
11814WAT      O35683   5.737   7.838   0.949
11814WAT     H135684   5.676   7.807   1.022
11814WAT     H235685   5.832   7.836   0.982
11815WAT      O35686   0.744   5.312   5.215
11815WAT     H135687   0.758   5.320   5.314
11815WAT     H235688   0.830   5.285   5.171
11816WAT      O35689   3.476   1.333   9.033
11816WAT     H135690   3.499   1.290   9.120
11816WAT     H235691   3.385   1.374   9.039
11817WAT      O35692   6.514   0.180   4.389
11817WAT     H135693   6.449   0.232   4.334
11817WAT     H235694   6.516   0.216   4.482
11818WAT      O35695   6.275   9.059   4.485
11818WAT     H135696   6.245   9.120   4.558
11818WAT     H235697   6.221   9.077   4.402
11819WAT      O35698   0.909   3.400   3.881
11819WAT     H135699   0.831   3.452   3.916
11819WAT     H235700   0.978   3.392   3.953
11820WAT      O35701   3.901   6.148   7.582
11820WAT     H135702   3.963   6.226   7.574
11820WAT     H235703   3.878   6.132   7.678
11821WAT      O35704   6.526   7.759   7.688
11821WAT     H135705   6.538   7.679   7.629
11821WAT     H235706   6.539   7.843   7.635
11822WAT      O35707   9.208   4.132   3.968
11822WAT     H135708   9.241   4.160   3.877
11822WAT     H235709   9.124   4.183   3.989
11823WAT      O35710   6.744   2.969   5.244
11823WAT     H135711   6.710   3.011   5.328
11823WAT     H235712   6.761   3.039   5.175
11824WAT      O35713   8.054   6.056   0.895
11824WAT     H135714   8.101   6.073   0.982
11824WAT     H235715   8.111   5.996   0.839
11825WAT      O35716   3.131   0.032   1.745
11825WAT     H135717   3.193   0.034   1.823
11825WAT     H235718   3.102   0.125   1.722
11826WAT      O35719   0.729   6.628   9.377
11826WAT     H135720   0.823   6.597   9.363
11826WAT     H235721   0.729   6.708   9.438
11827WAT      O35722   7.461   0.783   6.623
11827WAT     H135723   7.518   0.744   6.696
11827WAT     H235724   7.369   0.800   6.658
11828WAT      O35725   1.899   5.525   9.046
11828WAT     H135726   1.813   5.494   9.085
11828WAT     H235727   1.955   5.446   9.021
11829WAT      O35728   4.041   2.229   5.762
11829WAT     H135729   4.038   2.328   5.757
11829WAT     H235730   4.000   2.198   5.847
11830WAT      O35731   1.361   4.977   8.732
11830WAT     H135732   1.348   4.998   8.635
11830WAT     H235733   1.278   5.002   8.782
11831WAT      O35734   0.110   6.409   4.044
11831WAT     H135735   0.106   6.422   4.143
11831WAT     H235736   0.176   6.473   4.004
11832WAT      O35737   1.166   4.921   1.067
11832WAT     H135738   1.217   4.837   1.086
11832WAT     H235739   1.086   4.899   1.012
11833WAT      O35740   4.817   9.172   1.954
11833WAT     H135741   4.785   9.258   1.994
11833WAT     H235742   4.767   9.152   1.870
11834WAT      O35743   8.036   2.424   0.433
11834WAT     H135744   8.083   2.424   0.344
11834WAT     H235745   7.994   2.513   0.448
11835WAT      O35746   2.987   9.755   5.335
11835WAT     H135747   3.067   9.775   5.392
11835WAT     H235748   3.017   9.738   5.241
11836WAT      O35749   5.948   2.506   7.164
11836WAT     H135750   5.915   2.417   7.194
11836WAT     H235751   5.881   2.546   7.101
11837WAT      O35752   3.066   3.784   7.602
11837WAT     H135753   2.980   3.818   7.640
11837WAT     H235754   3.134   3.776   7.675
11838WAT      O35755   8.443   6.121   0.744
11838WAT     H135756   8.541   6.101   0.743
11838WAT     H235757   8.417   6.156   0.835
11839WAT      O35758   3.818   5.087   3.550
11839WAT     H135759   3.907   5.047   3.533
11839WAT     H235760   3.829   5.183   3.576
11840WAT      O35761   9.535   5.042   7.678
11840WAT     H135762   9.533   5.069   7.582
11840WAT     H235763   9.582   5.111   7.732
11841WAT      O35764   2.176   4.173   5.130
11841WAT     H135765   2.182   4.081   5.092
11841WAT     H235766   2.230   4.178   5.215
11842WAT      O35767   1.055   5.900   6.760
11842WAT     H135768   1.022   5.990   6.734
11842WAT     H235769   0.977   5.838   6.772
11843WAT      O35770   7.478   5.072   3.552
11843WAT     H135771   7.435   5.087   3.641
11843WAT     H235772   7.486   5.160   3.504
11844WAT      O35773   6.160   9.130   4.197
11844WAT     H135774   6.099   9.193   4.148
11844WAT     H235775   6.107   9.053   4.231
11845WAT      O35776   1.870   6.347   4.422
11845WAT     H135777   1.782   6.368   4.379
11845WAT     H235778   1.853   6.305   4.512
11846WAT      O35779   4.145   1.511   2.225
11846WAT     H135780   4.181   1.457   2.149
11846WAT     H235781   4.055   1.547   2.200
11847WAT      O35782   5.249   3.439   0.334
11847WAT     H135783   5.242   3.383   0.251
11847WAT     H235784   5.221   3.533   0.313
11848WAT      O35785   6.734   0.420   4.247
11848WAT     H135786   6.711   0.323   4.243
11848WAT     H235787   6.715   0.463   4.159
11849WAT      O35788   8.392   4.252   9.894
11849WAT     H135789   8.393   4.216   9.800
11849WAT     H235790   8.297   4.262   9.924
11850WAT      O35791   6.816   2.231   0.887
11850WAT     H135792   6.899   2.252   0.938
11850WAT     H235793   6.836   2.230   0.789
11851WAT      O35794   7.568   3.277   2.307
11851WAT     H135795   7.601   3.360   2.262
11851WAT     H235796   7.599   3.277   2.402
11852WAT      O35797   0.073   3.049   4.734
11852WAT     H135798  -0.013   3.020   4.692
11852WAT     H235799   0.069   3.035   4.832
11853WAT      O35800   0.866   1.408   1.258
11853WAT     H135801   0.927   1.426   1.181
11853WAT     H235802   0.773   1.434   1.234
11854WAT      O35803   8.415   8.986   4.625
11854WAT     H135804   8.508   8.990   4.663
11854WAT     H235805   8.418   8.951   4.532
11855WAT      O35806   5.057   3.645   1.427
11855WAT     H135807   5.080   3.722   1.367
11855WAT     H235808   4.965   3.658   1.465
11856WAT      O35809   0.317   4.363   7.189
11856WAT     H135810   0.271   4.393   7.273
11856WAT     H235811   0.301   4.431   7.117
11857WAT      O35812   0.225   6.836   9.396
11857WAT     H135813   0.203   6.930   9.371
11857WAT     H235814   0.295   6.800   9.335
11858WAT      O35815   8.549   0.614   3.420
11858WAT     H135816   8.548   0.544   3.492
11858WAT     H235817   8.641   0.620   3.381
11859WAT      O35818   7.259   3.440   7.264
11859WAT     H135819   7.328   3.411   7.330
11859WAT     H235820   7.303   3.451   7.174
11860WAT      O35821   2.493   5.622   0.243
11860WAT     H135822   2.418   5.615   0.177
11860WAT     H235823   2.458   5.661   0.328
11861WAT      O35824   8.014   9.307   7.716
11861WAT     H135825   7.955   9.382   7.686
11861WAT     H235826   7.976   9.220   7.683
11862WAT      O35827   2.105   4.894   0.128
11862WAT     H135828   2.054   4.892   0.042
11862WAT     H235829   2.046   4.863   0.202
11863WAT      O35830   0.666   3.773   2.196
11863WAT     H135831   0.598   3.750   2.266
11863WAT     H235832   0.647   3.722   2.113
11864WAT      O35833   8.174   3.149   9.455
11864WAT     H135834   8.239   3.210   9.500
11864WAT     H235835   8.122   3.200   9.387
11865WAT      O35836   7.200   4.410   4.773
11865WAT     H135837   7.127   4.358   4.816
11865WAT     H235838   7.286   4.359   4.780
11866WAT      O35839   3.578   6.558   9.640
11866WAT     H135840   3.658   6.604   9.603
11866WAT     H235841   3.500   6.571   9.578
11867WAT      O35842   1.215   9.588   8.845
11867WAT     H135843   1.280   9.641   8.899
11867WAT     H235844   1.240   9.491   8.850
11868WAT      O35845   1.974   0.502   7.803
11868WAT     H135846   1.926   0.475   7.886
11868WAT     H235847   1.911   0.552   7.743
11869WAT      O35848   9.080   1.046   0.055
11869WAT     H135849   9.054   1.115  -0.012
11869WAT     H235850   9.172   1.013   0.035
11870WAT      O35851   9.423   1.876   1.403
11870WAT     H135852   9.421   1.782   1.368
11870WAT     H235853   9.357   1.885   1.478
11871WAT      O35854   1.079   4.001   1.876
11871WAT     H135855   0.998   3.952   1.907
11871WAT     H235856   1.155   3.936   1.866
11872WAT      O35857   7.681   5.599   5.428
11872WAT     H135858   7.740   5.521   5.406
11872WAT     H235859   7.589   5.566   5.450
11873WAT      O35860   8.349   2.582   5.672
11873WAT     H135861   8.343   2.484   5.690
11873WAT     H235862   8.385   2.628   5.753
11874WAT      O35863   3.258   5.577   3.692
11874WAT     H135864   3.348   5.547   3.723
11874WAT     H235865   3.221   5.644   3.756
11875WAT      O35866   0.897   5.291   0.312
11875WAT     H135867   0.960   5.238   0.254
11875WAT     H235868   0.880   5.242   0.397
11876WAT      O35869   5.482   8.476   0.549
11876WAT     H135870   5.453   8.537   0.476
11876WAT     H235871   5.542   8.526   0.612
11877WAT      O35872   0.083   5.508   3.278
11877WAT     H135873   0.120   5.556   3.358
11877WAT     H235874   0.143   5.430   3.256
11878WAT      O35875   5.713   4.548   1.654
11878WAT     H135876   5.668   4.625   1.607
11878WAT     H235877   5.644   4.495   1.703
11879WAT      O35878   8.651   4.936   8.926
11879WAT     H135879   8.658   4.854   8.982
11879WAT     H235880   8.556   4.948   8.895
11880WAT      O35881   8.196   8.156   7.650
11880WAT     H135882   8.103   8.175   7.683
11880WAT     H235883   8.212   8.058   7.652
11881WAT      O35884   5.418   3.917   7.061
11881WAT     H135885   5.339   3.968   7.028
11881WAT     H235886   5.391   3.823   7.080
11882WAT      O35887   8.042   0.902   1.859
11882WAT     H135888   8.042   0.841   1.780
11882WAT     H235889   8.125   0.958   1.858
11883WAT      O35890   0.195   2.461   0.083
11883WAT     H135891   0.219   2.557   0.098
11883WAT     H235892   0.251   2.425   0.008
11884WAT      O35893   1.503   5.489   2.737
11884WAT     H135894   1.447   5.563   2.699
11884WAT     H235895   1.592   5.489   2.692
11885WAT      O35896   2.109   7.303   7.227
11885WAT     H135897   2.199   7.282   7.265
11885WAT     H235898   2.067   7.378   7.279
11886WAT      O35899   8.237   3.122   2.754
11886WAT     H135900   8.221   3.030   2.789
11886WAT     H235901   8.242   3.120   2.655
11887WAT      O35902   9.655   4.027   0.346
11887WAT     H135903   9.578   3.966   0.365
11887WAT     H235904   9.625   4.102   0.287
11888WAT      O35905   8.828   5.762   2.472
11888WAT     H135906   8.750   5.770   2.534
11888WAT     H235907   8.878   5.848   2.470
11889WAT      O35908   3.090   0.788   2.795
11889WAT     H135909   3.001   0.743   2.802
11889WAT     H235910   3.110   0.835   2.881
11890WAT      O35911   1.195   6.957   8.861
11890WAT     H135912   1.254   7.034   8.835
11890WAT     H235913   1.102   6.974   8.828
11891WAT      O35914   1.644   6.072   3.050
11891WAT     H135915   1.580   6.134   3.006
11891WAT     H235916   1.628   6.072   3.149
11892WAT      O35917   1.067   5.040   5.659
11892WAT     H135918   0.996   4.976   5.688
11892WAT     H235919   1.083   5.107   5.732
11893WAT      O35920   7.025   4.374   2.980
11893WAT     H135921   6.928   4.352   2.993
11893WAT     H235922   7.034   4.454   2.921
11894WAT      O35923   3.694   1.339   8.606
11894WAT     H135924   3.602   1.312   8.576
11894WAT     H235925   3.702   1.326   8.705
11895WAT      O35926   6.801   3.393   9.307
11895WAT     H135927   6.826   3.336   9.228
11895WAT     H235928   6.812   3.341   9.391
11896WAT      O35929   7.686   1.886   5.643
11896WAT     H135930   7.690   1.984   5.664
11896WAT     H235931   7.756   1.838   5.696
11897WAT      O35932   5.001   6.856   0.567
11897WAT     H135933   5.081   6.914   0.552
11897WAT     H235934   5.005   6.777   0.506
11898WAT      O35935   0.926   6.260   4.684
11898WAT     H135936   1.017   6.230   4.710
11898WAT     H235937   0.876   6.293   4.764
11899WAT      O35938   9.769   0.213   6.073
11899WAT     H135939   9.793   0.191   6.167
11899WAT     H235940   9.699   0.284   6.072
11900WAT      O35941   7.616   8.945   5.445
11900WAT     H135942   7.544   9.005   5.477
11900WAT     H235943   7.703   8.993   5.446
11901WAT      O35944   9.065   5.035   4.940
11901WAT     H135945   9.065   5.080   4.850
11901WAT     H235946   9.153   5.050   4.984
11902WAT      O35947   5.193   7.775   5.151
11902WAT     H135948   5.168   7.682   5.123
11902WAT     H235949   5.262   7.811   5.089
11903WAT      O35950   4.848   3.839   7.866
11903WAT     H135951   4.919   3.780   7.905
11903WAT     H235952   4.880   3.878   7.780
11904WAT      O35953   9.828   7.942   7.065
11904WAT     H135954   9.847   7.928   7.162
11904WAT     H235955   9.893   8.009   7.028
11905WAT      O35956   3.918   5.249   8.803
11905WAT     H135957   4.010   5.218   8.777
11905WAT     H235958   3.858   5.170   8.813
11906WAT      O35959   9.719   9.667   2.404
11906WAT     H135960   9.775   9.746   2.426
11906WAT     H235961   9.650   9.654   2.475
11907WAT      O35962   6.094   0.467   0.719
11907WAT     H135963   6.086   0.556   0.675
11907WAT     H235964   6.078   0.395   0.652
11908WAT      O35965   3.599   1.265   9.289
11908WAT     H135966   3.585   1.359   9.322
11908WAT     H235967   3.672   1.222   9.343
11909WAT      O35968   1.154   2.315   7.109
11909WAT     H135969   1.068   2.364   7.122
11909WAT     H235970   1.205   2.356   7.034
11910WAT      O35971   5.660   1.516   4.547
11910WAT     H135972   5.624   1.448   4.483
11910WAT     H235973   5.679   1.601   4.499
11911WAT      O35974   1.396   2.798   1.277
11911WAT     H135975   1.300   2.807   1.249
11911WAT     H235976   1.455   2.811   1.198
11912WAT      O35977   5.166   2.214   2.335
11912WAT     H135978   5.185   2.116   2.331
11912WAT     H235979   5.237   2.264   2.285
11913WAT      O35980   0.633   7.707   9.083
11913WAT     H135981   0.635   7.635   9.013
11913WAT     H235982   0.694   7.682   9.158
11914WAT      O35983   8.982   3.054   9.647
11914WAT     H135984   8.887   3.084   9.648
11914WAT     H235985   8.987   2.962   9.608
11915WAT      O35986   2.498   3.881   4.862
11915WAT     H135987   2.433   3.853   4.791
11915WAT     H235988   2.587   3.839   4.844
11916WAT      O35989   0.108   6.849   5.852
11916WAT     H135990   0.077   6.843   5.947
11916WAT     H235991   0.186   6.787   5.839
11917WAT      O35992   5.135   4.615   3.617
11917WAT     H135993   5.210   4.566   3.573
11917WAT     H235994   5.168   4.703   3.651
11918WAT      O35995   0.548   4.181   6.232
11918WAT     H135996   0.513   4.198   6.324
11918WAT     H235997   0.611   4.103   6.235
11919WAT      O35998   1.748   0.663   5.309
11919WAT     H135999   1.669   0.664   5.370
11919WAT     H236000   1.732   0.726   5.233
11920WAT      O36001   5.382   3.053   2.879
11920WAT     H136002   5.302   3.108   2.903
11920WAT     H236003   5.359   2.992   2.803
11921WAT      O36004   0.161   4.961   8.750
11921WAT     H136005   0.158   5.032   8.679
11921WAT     H236006   0.137   5.001   8.838
11922WAT      O36007   8.697   7.532   4.799
11922WAT     H136008   8.737   7.546   4.708
11922WAT     H236009   8.675   7.435   4.811
11923WAT      O36010   2.419   5.587   7.349
11923WAT     H136011   2.368   5.655   7.402
11923WAT     H236012   2.439   5.624   7.258
11924WAT      O36013   0.305   5.160   0.621
11924WAT     H136014   0.401   5.178   0.598
11924WAT     H236015   0.283   5.206   0.707
11925WAT      O36016   8.059   8.928   9.730
11925WAT     H136017   8.018   8.837   9.732
11925WAT     H236018   7.987   8.997   9.729
11926WAT      O36019   2.944   1.131   9.767
11926WAT     H136020   3.017   1.111   9.832
11926WAT     H236021   2.983   1.178   9.687
11927WAT      O36022   9.348   3.682   5.777
11927WAT     H136023   9.293   3.600   5.792
11927WAT     H236024   9.288   3.757   5.747
11928WAT      O36025   4.642   6.235   0.466
11928WAT     H136026   4.567   6.201   0.522
11928WAT     H236027   4.725   6.184   0.489
11929WAT      O36028   8.033   9.011   8.162
11929WAT     H136029   8.015   8.992   8.066
11929WAT     H236030   8.083   8.934   8.203
11930WAT      O36031   7.403   2.929   6.980
11930WAT     H136032   7.416   3.006   7.042
11930WAT     H236033   7.345   2.956   6.904
11931WAT      O36034   5.912   6.883   7.970
11931WAT     H136035   5.886   6.846   8.058
11931WAT     H236036   5.865   6.833   7.897
11932WAT      O36037   9.747   8.781   6.131
11932WAT     H136038   9.786   8.740   6.049
11932WAT     H236039   9.650   8.758   6.138
11933WAT      O36040   9.763   1.338   3.391
11933WAT     H136041   9.772   1.391   3.307
11933WAT     H236042   9.853   1.318   3.429
11934WAT      O36043   4.544   8.264   7.592
11934WAT     H136044   4.532   8.315   7.677
11934WAT     H236045   4.532   8.325   7.514
11935WAT      O36046   5.209   0.542   1.835
11935WAT     H136047   5.265   0.464   1.865
11935WAT     H236048   5.164   0.520   1.749
11936WAT      O36049   9.169   6.119   7.740
11936WAT     H136050   9.261   6.123   7.779
11936WAT     H236051   9.173   6.070   7.653
11937WAT      O36052   8.859   9.823   2.137
11937WAT     H136053   8.876   9.916   2.104
11937WAT     H236054   8.907   9.808   2.223
11938WAT      O36055   6.293   6.131   4.105
11938WAT     H136056   6.361   6.067   4.067
11938WAT     H236057   6.220   6.145   4.039
11939WAT      O36058   7.269   8.081   7.844
11939WAT     H136059   7.255   7.985   7.818
11939WAT     H236060   7.248   8.093   7.941
11940WAT      O36061   1.554   7.802   0.675
11940WAT     H136062   1.636   7.840   0.633
11940WAT     H236063   1.514   7.868   0.738
11941WAT      O36064   6.564   3.967   8.479
11941WAT     H136065   6.541   4.031   8.552
11941WAT     H236066   6.555   4.013   8.391
11942WAT      O36067   8.835   7.037   8.650
11942WAT     H136068   8.799   7.099   8.719
11942WAT     H236069   8.933   7.023   8.666
11943WAT      O36070   2.397   7.697   2.131
11943WAT     H136071   2.324   7.708   2.200
11943WAT     H236072   2.404   7.601   2.106
11944WAT      O36073   0.306   0.007   5.837
11944WAT     H136074   0.222  -0.046   5.824
11944WAT     H236075   0.287   0.087   5.893
11945WAT      O36076   7.457   0.030   6.957
11945WAT     H136077   7.417   0.066   6.872
11945WAT     H236078   7.516   0.100   6.998
11946WAT      O36079   3.460   2.664   8.419
11946WAT     H136080   3.538   2.685   8.360
11946WAT     H236081   3.456   2.565   8.434
11947WAT      O36082   4.704   4.564   6.792
11947WAT     H136083   4.760   4.587   6.712
11947WAT     H236084   4.610   4.591   6.775
11948WAT      O36085   2.555   2.834   3.480
11948WAT     H136086   2.600   2.806   3.565
11948WAT     H236087   2.521   2.927   3.489
11949WAT      O36088   5.144   5.974   6.885
11949WAT     H136089   5.138   5.913   6.806
11949WAT     H236090   5.138   6.069   6.855
11950WAT      O36091   7.802   0.580   6.040
11950WAT     H136092   7.766   0.637   6.114
11950WAT     H236093   7.874   0.521   6.076
11951WAT      O36094   6.665   6.619   9.688
11951WAT     H136095   6.569   6.641   9.705
11951WAT     H236096   6.677   6.519   9.689
11952WAT      O36097   4.230   6.180   2.772
11952WAT     H136098   4.252   6.177   2.675
11952WAT     H236099   4.176   6.100   2.797
11953WAT      O36100   2.163   4.754   4.644
11953WAT     H136101   2.174   4.817   4.720
11953WAT     H236102   2.131   4.804   4.563
11954WAT      O36103   9.061   5.572   4.965
11954WAT     H136104   9.151   5.552   5.002
11954WAT     H236105   9.002   5.608   5.037
11955WAT      O36106   8.641   6.335   9.833
11955WAT     H136107   8.699   6.329   9.752
11955WAT     H236108   8.606   6.244   9.855
11956WAT      O36109   7.880   3.211   2.276
11956WAT     H136110   7.935   3.165   2.206
11956WAT     H236111   7.789   3.170   2.278
11957WAT      O36112   0.445   5.429   3.359
11957WAT     H136113   0.391   5.487   3.420
11957WAT     H236114   0.518   5.483   3.318
11958WAT      O36115   9.577   0.309   0.438
11958WAT     H136116   9.661   0.334   0.390
11958WAT     H236117   9.530   0.237   0.387
11959WAT      O36118   6.979   4.876   9.711
11959WAT     H136119   6.880   4.890   9.716
11959WAT     H236120   7.020   4.901   9.798
11960WAT      O36121   2.234   6.433   5.445
11960WAT     H136122   2.305   6.363   5.457
11960WAT     H236123   2.213   6.475   5.533
11961WAT      O36124   1.142   4.878   1.579
11961WAT     H136125   1.189   4.795   1.609
11961WAT     H236126   1.085   4.857   1.500
11962WAT      O36127   3.497   4.686   1.544
11962WAT     H136128   3.572   4.716   1.603
11962WAT     H236129   3.465   4.763   1.488
11963WAT      O36130   6.494   0.958   0.078
11963WAT     H136131   6.428   0.953   0.154
11963WAT     H236132   6.568   0.894   0.095
11964WAT      O36133   0.072   9.106   9.379
11964WAT     H136134   0.050   9.126   9.283
11964WAT     H236135  -0.013   9.088   9.429
11965WAT      O36136   3.050   6.859   1.060
11965WAT     H136137   2.971   6.881   1.003
11965WAT     H236138   3.024   6.864   1.157
11966WAT      O36139   4.325   9.505   4.994
11966WAT     H136140   4.326   9.477   4.898
11966WAT     H236141   4.269   9.588   5.004
11967WAT      O36142   5.529   1.336   8.061
11967WAT     H136143   5.614   1.289   8.086
11967WAT     H236144   5.491   1.381   8.142
11968WAT      O36145   9.665   2.416   2.852
11968WAT     H136146   9.665   2.327   2.897
11968WAT     H236147   9.710   2.484   2.910
11969WAT      O36148   1.535   3.924   0.682
11969WAT     H136149   1.447   3.958   0.715
11969WAT     H236150   1.608   3.985   0.711
11970WAT      O36151   8.589   5.707   5.781
11970WAT     H136152   8.536   5.622   5.787
11970WAT     H236153   8.660   5.696   5.711
11971WAT      O36154   1.498   8.784   7.449
11971WAT     H136155   1.562   8.739   7.386
11971WAT     H236156   1.428   8.718   7.478
11972WAT      O36157   8.963   0.838   0.181
11972WAT     H136158   8.867   0.839   0.208
11972WAT     H236159   8.988   0.928   0.146
11973WAT      O36160   6.449   6.101   2.967
11973WAT     H136161   6.472   6.024   3.027
11973WAT     H236162   6.370   6.077   2.910
11974WAT      O36163   9.404   4.505   7.906
11974WAT     H136164   9.501   4.517   7.925
11974WAT     H236165   9.390   4.494   7.808
11975WAT      O36166   7.668   2.206   0.315
11975WAT     H136167   7.757   2.172   0.346
11975WAT     H236168   7.672   2.306   0.306
11976WAT      O36169   7.421   5.584   5.496
11976WAT     H136170   7.388   5.528   5.572
11976WAT     H236171   7.389   5.545   5.410
11977WAT      O36172   8.386   7.147   5.038
11977WAT     H136173   8.457   7.154   5.107
11977WAT     H236174   8.300   7.185   5.073
11978WAT      O36175   1.407   1.206   1.577
11978WAT     H136176   1.465   1.287   1.579
11978WAT     H236177   1.344   1.209   1.655
11979WAT      O36178   9.703   3.326   3.804
11979WAT     H136179   9.624   3.368   3.758
11979WAT     H236180   9.671   3.273   3.882
11980WAT      O36181   7.392   7.766   3.808
11980WAT     H136182   7.460   7.700   3.774
11980WAT     H236183   7.370   7.744   3.903
11981WAT      O36184   4.581   3.039   8.573
11981WAT     H136185   4.544   3.098   8.644
11981WAT     H236186   4.680   3.031   8.584
11982WAT      O36187   7.242   3.980   7.702
11982WAT     H136188   7.329   4.028   7.706
11982WAT     H236189   7.248   3.903   7.638
11983WAT      O36190   4.787   9.822   6.523
11983WAT     H136191   4.696   9.856   6.502
11983WAT     H236192   4.851   9.852   6.452
11984WAT      O36193   4.228   3.376   3.212
11984WAT     H136194   4.324   3.354   3.194
11984WAT     H236195   4.170   3.328   3.145
11985WAT      O36196   2.524   2.699   5.547
11985WAT     H136197   2.484   2.790   5.535
11985WAT     H236198   2.622   2.703   5.528
11986WAT      O36199   2.773   7.017   6.051
11986WAT     H136200   2.754   7.103   6.098
11986WAT     H236201   2.714   7.008   5.971
11987WAT      O36202   3.110   1.065   6.619
11987WAT     H136203   3.128   0.983   6.563
11987WAT     H236204   3.065   1.038   6.704
11988WAT      O36205   0.177   7.631   5.775
11988WAT     H136206   0.270   7.666   5.781
11988WAT     H236207   0.178   7.539   5.735
11989WAT      O36208   0.525   7.009   5.484
11989WAT     H136209   0.612   7.053   5.462
11989WAT     H236210   0.513   7.006   5.583
11990WAT      O36211   7.130   1.110   7.495
11990WAT     H136212   7.220   1.069   7.508
11990WAT     H236213   7.136   1.209   7.507
11991WAT      O36214   1.820   3.779   4.077
11991WAT     H136215   1.832   3.805   4.173
11991WAT     H236216   1.862   3.848   4.018
11992WAT      O36217   0.372   5.531   5.997
11992WAT     H136218   0.436   5.460   6.026
11992WAT     H236219   0.337   5.579   6.078
11993WAT      O36220   8.353   7.742   2.712
11993WAT     H136221   8.362   7.818   2.776
11993WAT     H236222   8.443   7.720   2.674
11994WAT      O36223   7.766   9.172   0.702
11994WAT     H136224   7.856   9.216   0.699
11994WAT     H236225   7.767   9.090   0.644
11995WAT      O36226   6.922   6.536   1.532
11995WAT     H136227   7.017   6.553   1.508
11995WAT     H236228   6.907   6.437   1.539
11996WAT      O36229   3.263   3.995   2.964
11996WAT     H136230   3.257   4.030   2.871
11996WAT     H236231   3.197   4.043   3.022
11997WAT      O36232   3.919   1.804   2.637
11997WAT     H136233   3.843   1.865   2.661
11997WAT     H236234   3.944   1.750   2.718
11998WAT      O36235   3.349   0.879   9.777
11998WAT     H136236   3.274   0.903   9.715
11998WAT     H236237   3.432   0.927   9.748
11999WAT      O36238   1.256   0.834   1.907
11999WAT     H136239   1.238   0.900   1.834
11999WAT     H236240   1.295   0.882   1.986
12000WAT      O36241   9.030   2.249   6.083
12000WAT     H136242   9.122   2.286   6.071
12000WAT     H236243   9.016   2.171   6.022
12001WAT      O36244   2.542   7.485   3.385
12001WAT     H136245   2.554   7.558   3.318
12001WAT     H236246   2.522   7.399   3.338
12002WAT      O36247   7.092   7.415   6.395
12002WAT     H136248   7.121   7.356   6.470
12002WAT     H236249   7.170   7.469   6.363
12003WAT      O36250   9.038   7.303   3.595
12003WAT     H136251   9.055   7.331   3.689
12003WAT     H236252   9.124   7.272   3.554
12004WAT      O36253   0.068   8.167   6.258
12004WAT     H136254   0.165   8.184   6.237
12004WAT     H236255   0.025   8.252   6.288
12005WAT      O36256   6.953   6.299   5.682
12005WAT     H136257   6.908   6.385   5.656
12005WAT     H236258   6.960   6.294   5.782
12006WAT      O36259   4.400   8.484   5.647
12006WAT     H136260   4.418   8.501   5.744
12006WAT     H236261   4.323   8.540   5.616
12007WAT      O36262   2.845   7.039   9.568
12007WAT     H136263   2.851   6.944   9.599
12007WAT     H236264   2.763   7.081   9.606
12008WAT      O36265   5.333   2.445   1.786
12008WAT     H136266   5.426   2.478   1.807
12008WAT     H236267   5.269   2.521   1.792
12009WAT      O36268   4.512   9.665   7.291
12009WAT     H136269   4.437   9.731   7.284
12009WAT     H236270   4.595   9.705   7.254
12010WAT      O36271   0.386   8.126   8.565
12010WAT     H136272   0.427   8.128   8.656
12010WAT     H236273   0.382   8.219   8.529
12011WAT      O36274   0.048   4.034   0.431
12011WAT     H136275   0.123   4.091   0.397
12011WAT     H236276  -0.037   4.062   0.388
12012WAT      O36277   2.265   6.043   3.245
12012WAT     H136278   2.348   6.044   3.302
12012WAT     H236279   2.242   5.948   3.221
12013WAT      O36280   2.544   6.406   3.149
12013WAT     H136281   2.575   6.334   3.087
12013WAT     H236282   2.594   6.491   3.130
12014WAT      O36283   0.223   8.670   8.642
12014WAT     H136284   0.188   8.761   8.620
12014WAT     H236285   0.318   8.662   8.612
12015WAT      O36286   0.047   2.916   8.326
12015WAT     H136287   0.109   2.943   8.400
12015WAT     H236288  -0.041   2.962   8.338
12016WAT      O36289   7.647   1.513   0.691
12016WAT     H136290   7.675   1.417   0.700
12016WAT     H236291   7.564   1.528   0.745
12017WAT      O36292   7.112   9.342   5.951
12017WAT     H136293   7.185   9.377   5.892
12017WAT     H236294   7.146   9.333   6.045
12018WAT      O36295   7.772   4.797   3.438
12018WAT     H136296   7.817   4.771   3.523
12018WAT     H236297   7.680   4.758   3.436
12019WAT      O36298   7.760   0.188   7.641
12019WAT     H136299   7.747   0.203   7.543
12019WAT     H236300   7.767   0.276   7.688
12020WAT      O36301   0.689   3.739   6.668
12020WAT     H136302   0.774   3.706   6.628
12020WAT     H236303   0.663   3.681   6.745
12021WAT      O36304   0.607   5.840   7.506
12021WAT     H136305   0.667   5.794   7.571
12021WAT     H236306   0.517   5.853   7.548
12022WAT      O36307   9.190   5.741   6.219
12022WAT     H136308   9.246   5.821   6.200
12022WAT     H236309   9.245   5.670   6.263
12023WAT      O36310   6.853   0.295   7.413
12023WAT     H136311   6.819   0.333   7.499
12023WAT     H236312   6.915   0.361   7.370
12024WAT      O36313   3.736   0.552   7.237
12024WAT     H136314   3.802   0.500   7.291
12024WAT     H236315   3.784   0.626   7.189
12025WAT      O36316   0.844   9.143   5.324
12025WAT     H136317   0.938   9.108   5.325
12025WAT     H236318   0.803   9.132   5.414
12026WAT      O36319   2.284   1.025   0.752
12026WAT     H136320   2.316   1.008   0.845
12026WAT     H236321   2.301   0.943   0.696
12027WAT      O36322   2.711   0.540   9.115
12027WAT     H136323   2.754   0.622   9.153
12027WAT     H236324   2.713   0.545   9.015
12028WAT      O36325   6.321   3.263   3.171
12028WAT     H136326   6.294   3.267   3.267
12028WAT     H236327   6.243   3.289   3.113
12029WAT      O36328   0.613   6.491   4.482
12029WAT     H136329   0.596   6.455   4.574
12029WAT     H236330   0.534   6.473   4.424
12030WAT      O36331   2.304   2.497   6.566
12030WAT     H136332   2.311   2.593   6.541
12030WAT     H236333   2.241   2.451   6.504
12031WAT      O36334   8.137   2.100   5.014
12031WAT     H136335   8.200   2.031   5.049
12031WAT     H236336   8.051   2.094   5.065
12032WAT      O36337   8.711   3.607   4.707
12032WAT     H136338   8.681   3.626   4.801
12032WAT     H236339   8.801   3.565   4.710
12033WAT      O36340   2.804   9.463   5.342
12033WAT     H136341   2.889   9.418   5.314
12033WAT     H236342   2.818   9.562   5.343
12034WAT      O36343   9.070   6.642   6.719
12034WAT     H136344   9.146   6.661   6.781
12034WAT     H236345   9.071   6.710   6.645
12035WAT      O36346   4.768   5.467   6.450
12035WAT     H136347   4.709   5.395   6.414
12035WAT     H236348   4.711   5.545   6.478
12036WAT      O36349   4.644   3.824   1.953
12036WAT     H136350   4.683   3.785   1.869
12036WAT     H236351   4.654   3.923   1.951
12037WAT      O36352   9.337   1.859   2.778
12037WAT     H136353   9.312   1.764   2.756
12037WAT     H236354   9.255   1.916   2.779
12038WAT      O36355   0.485   3.050   1.606
12038WAT     H136356   0.541   3.045   1.689
12038WAT     H236357   0.474   2.959   1.567
12039WAT      O36358   6.515   1.231   6.249
12039WAT     H136359   6.610   1.200   6.260
12039WAT     H236360   6.453   1.162   6.285
12040WAT      O36361   8.063   2.799   0.677
12040WAT     H136362   8.050   2.887   0.723
12040WAT     H236363   8.153   2.796   0.635
12041WAT      O36364   2.580   4.176   5.844
12041WAT     H136365   2.547   4.091   5.805
12041WAT     H236366   2.646   4.156   5.916
12042WAT      O36367   2.022   5.249   3.593
12042WAT     H136368   2.034   5.313   3.669
12042WAT     H236369   2.096   5.261   3.527
12043WAT      O36370   1.180   6.792   8.337
12043WAT     H136371   1.160   6.833   8.248
12043WAT     H236372   1.143   6.849   8.410
12044WAT      O36373   0.042   9.349   7.038
12044WAT     H136374   0.026   9.447   7.054
12044WAT     H236375   0.051   9.332   6.940
12045WAT      O36376   1.822   3.487   8.065
12045WAT     H136377   1.835   3.445   8.156
12045WAT     H236378   1.850   3.422   7.995
12046WAT      O36379   7.211   2.729   8.181
12046WAT     H136380   7.278   2.803   8.173
12046WAT     H236381   7.238   2.653   8.123
12047WAT      O36382   8.743   2.016   8.378
12047WAT     H136383   8.775   1.956   8.451
12047WAT     H236384   8.661   1.977   8.336
12048WAT      O36385   0.598   2.671   3.879
12048WAT     H136386   0.673   2.659   3.944
12048WAT     H236387   0.511   2.677   3.929
12049WAT      O36388   5.222   1.592   1.397
12049WAT     H136389   5.153   1.529   1.360
12049WAT     H236390   5.182   1.642   1.474
12050WAT      O36391   6.003   0.617   7.286
12050WAT     H136392   5.931   0.590   7.222
12050WAT     H236393   6.053   0.695   7.248
12051WAT      O36394   1.409   8.796   3.821
12051WAT     H136395   1.438   8.770   3.729
12051WAT     H236396   1.432   8.723   3.885
12052WAT      O36397   5.580   6.874   9.627
12052WAT     H136398   5.667   6.905   9.665
12052WAT     H236399   5.597   6.826   9.541
12053WAT      O36400   6.145   7.714   3.144
12053WAT     H136401   6.140   7.660   3.059
12053WAT     H236402   6.190   7.801   3.125
12054WAT      O36403   4.343   1.138   0.150
12054WAT     H136404   4.317   1.094   0.065
12054WAT     H236405   4.429   1.187   0.137
12055WAT      O36406   1.145   5.292   9.482
12055WAT     H136407   1.154   5.212   9.542
12055WAT     H236408   1.060   5.340   9.504
12056WAT      O36409   4.247   1.862   3.827
12056WAT     H136410   4.277   1.943   3.777
12056WAT     H236411   4.250   1.881   3.926
12057WAT      O36412   8.823   6.295   0.270
12057WAT     H136413   8.869   6.345   0.196
12057WAT     H236414   8.745   6.348   0.303
12058WAT      O36415   5.051   8.730   2.882
12058WAT     H136416   5.126   8.782   2.840
12058WAT     H236417   5.084   8.639   2.908
12059WAT      O36418   8.333   3.404   6.703
12059WAT     H136419   8.401   3.351   6.754
12059WAT     H236420   8.247   3.353   6.701
12060WAT      O36421   3.742   4.685   0.101
12060WAT     H136422   3.728   4.626   0.180
12060WAT     H236423   3.673   4.665   0.032
12061WAT      O36424   2.841   4.653   6.068
12061WAT     H136425   2.835   4.600   6.153
12061WAT     H236426   2.858   4.591   5.991
12062WAT      O36427   3.939   2.584   8.205
12062WAT     H136428   3.923   2.486   8.190
12062WAT     H236429   4.038   2.601   8.204
12063WAT      O36430   4.989   9.142   7.063
12063WAT     H136431   4.952   9.135   7.155
12063WAT     H236432   5.068   9.203   7.063
12064WAT      O36433   7.682   9.606   5.595
12064WAT     H136434   7.733   9.520   5.596
12064WAT     H236435   7.729   9.672   5.654
12065WAT      O36436   8.459   7.361   5.270
12065WAT     H136437   8.532   7.297   5.245
12065WAT     H236438   8.371   7.319   5.250
12066WAT      O36439   3.456   9.278   6.001
12066WAT     H136440   3.375   9.219   6.009
12066WAT     H236441   3.503   9.258   5.916
12067WAT      O36442   7.893   3.916   3.930
12067WAT     H136443   7.888   3.973   3.848
12067WAT     H236444   7.951   3.961   3.998
12068WAT      O36445   9.146   5.332   7.546
12068WAT     H136446   9.056   5.354   7.509
12068WAT     H236447   9.144   5.342   7.646
12069WAT      O36448   0.623   6.381   9.425
12069WAT     H136449   0.647   6.306   9.363
12069WAT     H236450   0.671   6.464   9.397
12070WAT      O36451   4.498   4.370   9.154
12070WAT     H136452   4.554   4.300   9.110
12070WAT     H236453   4.544   4.404   9.236
12071WAT      O36454   1.449   9.042   8.773
12071WAT     H136455   1.485   9.026   8.681
12071WAT     H236456   1.402   8.960   8.805
12072WAT      O36457   3.997   1.871   2.232
12072WAT     H136458   4.043   1.859   2.319
12072WAT     H236459   3.928   1.799   2.220
12073WAT      O36460   8.230   5.918   0.699
12073WAT     H136461   8.233   5.867   0.613
12073WAT     H236462   8.320   5.957   0.718
12074WAT      O36463   2.847   4.392   2.570
12074WAT     H136464   2.787   4.349   2.638
12074WAT     H236465   2.800   4.472   2.531
12075WAT      O36466   1.151   0.221   6.357
12075WAT     H136467   1.124   0.137   6.404
12075WAT     H236468   1.196   0.198   6.270
12076WAT      O36469   5.671   0.166   7.949
12076WAT     H136470   5.715   0.233   8.010
12076WAT     H236471   5.592   0.207   7.904
12077WAT      O36472   5.365   8.998   9.004
12077WAT     H136473   5.424   9.004   8.923
12077WAT     H236474   5.306   9.079   9.008
12078WAT      O36475   2.816   8.085   3.100
12078WAT     H136476   2.732   8.127   3.068
12078WAT     H236477   2.868   8.151   3.155
12079WAT      O36478   8.038   6.662   9.144
12079WAT     H136479   7.974   6.653   9.068
12079WAT     H236480   8.131   6.647   9.112
12080WAT      O36481   3.730   2.063   5.895
12080WAT     H136482   3.632   2.077   5.913
12080WAT     H236483   3.747   2.071   5.797
12081WAT      O36484   5.835   5.886   1.277
12081WAT     H136485   5.831   5.800   1.226
12081WAT     H236486   5.904   5.880   1.348
12082WAT      O36487   4.447   9.051   3.930
12082WAT     H136488   4.384   9.011   3.997
12082WAT     H236489   4.411   9.140   3.900
12083WAT      O36490   6.444   5.827   2.249
12083WAT     H136491   6.518   5.766   2.221
12083WAT     H236492   6.462   5.861   2.342
12084WAT      O36493   3.638   9.613   5.478
12084WAT     H136494   3.707   9.680   5.508
12084WAT     H236495   3.591   9.648   5.397
12085WAT      O36496   9.752   3.839   4.827
12085WAT     H136497   9.762   3.743   4.799
12085WAT     H236498   9.758   3.845   4.927
12086WAT      O36499   9.530   8.330   1.918
12086WAT     H136500   9.603   8.279   1.873
12086WAT     H236501   9.566   8.378   1.998
12087WAT      O36502   2.965   6.498   3.232
12087WAT     H136503   2.992   6.444   3.153
12087WAT     H236504   2.946   6.438   3.309
12088WAT      O36505   7.445   0.650   6.188
12088WAT     H136506   7.436   0.734   6.133
12088WAT     H236507   7.488   0.672   6.275
12089WAT      O36508   1.405   0.112   5.835
12089WAT     H136509   1.425   0.209   5.852
12089WAT     H236510   1.447   0.085   5.748
12090WAT      O36511   3.581   4.876   5.100
12090WAT     H136512   3.656   4.866   5.034
12090WAT     H236513   3.618   4.879   5.193
12091WAT      O36514   7.312   8.516   8.725
12091WAT     H136515   7.274   8.565   8.646
12091WAT     H236516   7.250   8.523   8.802
12092WAT      O36517   8.050   1.009   8.629
12092WAT     H136518   7.991   1.080   8.669
12092WAT     H236519   8.139   1.010   8.675
12093WAT      O36520   8.100   9.584   4.157
12093WAT     H136521   8.045   9.597   4.075
12093WAT     H236522   8.136   9.491   4.160
12094WAT      O36523   6.164   8.145   2.914
12094WAT     H136524   6.131   8.222   2.969
12094WAT     H236525   6.199   8.073   2.975
12095WAT      O36526   4.307   6.046   0.209
12095WAT     H136527   4.279   6.112   0.280
12095WAT     H236528   4.257   5.960   0.223
12096WAT      O36529   2.387   8.345   6.920
12096WAT     H136530   2.289   8.324   6.916
12096WAT     H236531   2.421   8.364   6.828
12097WAT      O36532   2.491   3.319   3.865
12097WAT     H136533   2.414   3.367   3.823
12097WAT     H236534   2.464   3.283   3.954
12098WAT      O36535   9.348   7.747   1.879
12098WAT     H136536   9.259   7.735   1.835
12098WAT     H236537   9.419   7.703   1.822
12099WAT      O36538   1.037   1.292   6.685
12099WAT     H136539   1.012   1.326   6.594
12099WAT     H236540   0.973   1.220   6.712
12100WAT      O36541   6.186   7.675   1.730
12100WAT     H136542   6.213   7.771   1.729
12100WAT     H236543   6.106   7.664   1.789
12101WAT      O36544   9.855   0.190   6.387
12101WAT     H136545   9.933   0.131   6.408
12101WAT     H236546   9.770   0.140   6.404
12102WAT      O36547   5.430   6.378   1.067
12102WAT     H136548   5.406   6.379   0.970
12102WAT     H236549   5.466   6.468   1.093
12103WAT      O36550   5.116   4.520   9.778
12103WAT     H136551   5.109   4.467   9.862
12103WAT     H236552   5.183   4.478   9.717
12104WAT      O36553   4.143   4.320   6.470
12104WAT     H136554   4.112   4.228   6.447
12104WAT     H236555   4.220   4.314   6.534
12105WAT      O36556   2.054   7.715   1.600
12105WAT     H136557   2.117   7.683   1.671
12105WAT     H236558   2.094   7.699   1.510
12106WAT      O36559   3.229   0.567   7.752
12106WAT     H136560   3.235   0.664   7.728
12106WAT     H236561   3.273   0.551   7.840
12107WAT      O36562   8.608   9.418   7.615
12107WAT     H136563   8.669   9.466   7.678
12107WAT     H236564   8.634   9.321   7.611
12108WAT      O36565   3.262   8.596   6.424
12108WAT     H136566   3.245   8.527   6.494
12108WAT     H236567   3.333   8.563   6.362
12109WAT      O36568   1.380   6.745   2.306
12109WAT     H136569   1.430   6.763   2.221
12109WAT     H236570   1.282   6.752   2.289
12110WAT      O36571   9.735   7.296   4.584
12110WAT     H136572   9.667   7.298   4.512
12110WAT     H236573   9.817   7.344   4.554
12111WAT      O36574   6.151   5.035   1.691
12111WAT     H136575   6.132   4.951   1.741
12111WAT     H236576   6.117   5.114   1.743
12112WAT      O36577   9.147   7.205   1.675
12112WAT     H136578   9.187   7.265   1.606
12112WAT     H236579   9.062   7.166   1.641
12113WAT      O36580   9.869   7.901   0.061
12113WAT     H136581   9.915   7.955  -0.009
12113WAT     H236582   9.781   7.943   0.084
12114WAT      O36583   3.558   0.044   9.188
12114WAT     H136584   3.539   0.115   9.120
12114WAT     H236585   3.540  -0.046   9.147
12115WAT      O36586   7.645   6.664   6.596
12115WAT     H136587   7.629   6.566   6.598
12115WAT     H236588   7.722   6.687   6.654
12116WAT      O36589   2.404   4.250   8.676
12116WAT     H136590   2.313   4.238   8.636
12116WAT     H236591   2.398   4.242   8.776
12117WAT      O36592   9.051   8.642   8.041
12117WAT     H136593   9.122   8.637   7.972
12117WAT     H236594   9.074   8.581   8.117
12118WAT      O36595   4.123   1.024   9.198
12118WAT     H136596   4.110   1.002   9.295
12118WAT     H236597   4.104   1.122   9.184
12119WAT      O36598   9.876   0.824   1.269
12119WAT     H136599   9.947   0.799   1.335
12119WAT     H236600   9.804   0.754   1.268
12120WAT      O36601   1.157   7.809   0.879
12120WAT     H136602   1.144   7.712   0.858
12120WAT     H236603   1.085   7.840   0.940
12121WAT      O36604   4.774   2.925   7.295
12121WAT     H136605   4.803   3.007   7.245
12121WAT     H236606   4.716   2.952   7.372
12122WAT      O36607   9.272   2.976   8.351
12122WAT     H136608   9.325   3.059   8.366
12122WAT     H236609   9.243   2.971   8.255
12123WAT      O36610   3.125   4.284   9.506
12123WAT     H136611   3.179   4.229   9.570
12123WAT     H236612   3.175   4.292   9.420
12124WAT      O36613   3.672   2.624   3.609
12124WAT     H136614   3.718   2.631   3.698
12124WAT     H236615   3.723   2.675   3.541
12125WAT      O36616   4.144   6.627   8.065
12125WAT     H136617   4.161   6.635   7.967
12125WAT     H236618   4.178   6.709   8.111
12126WAT      O36619   9.759   7.134   7.690
12126WAT     H136620   9.848   7.179   7.695
12126WAT     H236621   9.692   7.197   7.650
12127WAT      O36622   6.312   3.370   0.356
12127WAT     H136623   6.408   3.361   0.328
12127WAT     H236624   6.287   3.294   0.415
12128WAT      O36625   5.361   4.936   2.635
12128WAT     H136626   5.440   4.979   2.677
12128WAT     H236627   5.391   4.878   2.559
12129WAT      O36628   7.424   4.350   0.459
12129WAT     H136629   7.420   4.294   0.377
12129WAT     H236630   7.332   4.362   0.496
12130WAT      O36631   8.096   3.519   9.128
12130WAT     H136632   8.195   3.529   9.119
12130WAT     H236633   8.051   3.590   9.075
12131WAT      O36634   9.538   1.447   1.646
12131WAT     H136635   9.600   1.516   1.609
12131WAT     H236636   9.576   1.356   1.631
12132WAT      O36637   7.654   3.879   9.057
12132WAT     H136638   7.657   3.891   8.957
12132WAT     H236639   7.741   3.909   9.096
12133WAT      O36640   7.708   9.616   8.610
12133WAT     H136641   7.806   9.604   8.623
12133WAT     H236642   7.687   9.617   8.512
12134WAT      O36643   3.922   4.418   4.027
12134WAT     H136644   3.942   4.515   4.018
12134WAT     H236645   3.914   4.394   4.124
12135WAT      O36646   4.118   4.777   5.600
12135WAT     H136647   4.042   4.810   5.543
12135WAT     H236648   4.082   4.747   5.689
12136WAT      O36649   2.715   2.845   2.964
12136WAT     H136650   2.702   2.920   2.899
12136WAT     H236651   2.764   2.770   2.919
12137WAT      O36652   8.793   7.220   5.012
12137WAT     H136653   8.727   7.255   4.945
12137WAT     H236654   8.886   7.236   4.979
12138WAT      O36655   5.237   7.159   6.510
12138WAT     H136656   5.204   7.110   6.429
12138WAT     H236657   5.173   7.144   6.586
12139WAT      O36658   0.791   3.371   9.258
12139WAT     H136659   0.867   3.420   9.301
12139WAT     H236660   0.731   3.435   9.211
12140WAT      O36661   7.276   5.241   5.851
12140WAT     H136662   7.320   5.201   5.771
12140WAT     H236663   7.213   5.175   5.891
12141WAT      O36664   6.582   9.839   1.726
12141WAT     H136665   6.600   9.770   1.796
12141WAT     H236666   6.565   9.927   1.770
12142WAT      O36667   6.892   7.382   2.510
12142WAT     H136668   6.927   7.348   2.597
12142WAT     H236669   6.962   7.438   2.465
12143WAT      O36670   1.984   7.398   5.760
12143WAT     H136671   1.966   7.330   5.831
12143WAT     H236672   1.962   7.360   5.670
12144WAT      O36673   1.939   7.382   0.849
12144WAT     H136674   1.945   7.482   0.840
12144WAT     H236675   2.003   7.339   0.785
12145WAT      O36676   2.697   9.052   4.678
12145WAT     H136677   2.723   8.960   4.648
12145WAT     H236678   2.628   9.045   4.750
12146WAT      O36679   1.731   9.522   2.845
12146WAT     H136680   1.636   9.538   2.817
12146WAT     H236681   1.769   9.446   2.793
12147WAT      O36682   5.950   0.897   3.433
12147WAT     H136683   5.988   0.906   3.341
12147WAT     H236684   5.872   0.834   3.431
12148WAT      O36685   7.114   7.099   0.356
12148WAT     H136686   7.152   7.188   0.381
12148WAT     H236687   7.038   7.112   0.292
12149WAT      O36688   6.518   3.275   2.747
12149WAT     H136689   6.464   3.231   2.675
12149WAT     H236690   6.469   3.355   2.782
12150WAT      O36691   4.918   2.801   2.764
12150WAT     H136692   5.000   2.768   2.716
12150WAT     H236693   4.894   2.892   2.731
12151WAT      O36694   6.764   8.603   3.493
12151WAT     H136695   6.745   8.506   3.479
12151WAT     H236696   6.840   8.614   3.557
12152WAT      O36697   3.567   1.713   3.489
12152WAT     H136698   3.624   1.692   3.410
12152WAT     H236699   3.619   1.699   3.573
12153WAT      O36700   6.436   7.157   4.334
12153WAT     H136701   6.405   7.199   4.419
12153WAT     H236702   6.533   7.133   4.343
12154WAT      O36703   5.921   0.599   0.023
12154WAT     H136704   5.862   0.622  -0.054
12154WAT     H236705   5.993   0.668   0.032
12155WAT      O36706   8.841   4.092   5.652
12155WAT     H136707   8.867   4.182   5.686
12155WAT     H236708   8.847   4.025   5.727
12156WAT      O36709   9.037   4.135   7.986
12156WAT     H136710   9.110   4.199   8.009
12156WAT     H236711   8.965   4.141   8.055
12157WAT      O36712   1.241   7.385   4.431
12157WAT     H136713   1.143   7.387   4.415
12157WAT     H236714   1.284   7.322   4.366
12158WAT      O36715   8.865   5.603   2.859
12158WAT     H136716   8.840   5.507   2.854
12158WAT     H236717   8.784   5.658   2.877
12159WAT      O36718   6.188   4.207   1.839
12159WAT     H136719   6.225   4.164   1.757
12159WAT     H236720   6.208   4.305   1.838
12160WAT      O36721   9.436   0.469   1.335
12160WAT     H136722   9.466   0.534   1.265
12160WAT     H236723   9.481   0.381   1.321
12161WAT      O36724   6.783   4.694   2.059
12161WAT     H136725   6.867   4.745   2.042
12161WAT     H236726   6.776   4.670   2.156
12162WAT      O36727   4.754   3.343   4.949
12162WAT     H136728   4.739   3.306   5.041
12162WAT     H236729   4.780   3.439   4.956
12163WAT      O36730   3.581   4.659   7.763
12163WAT     H136731   3.560   4.722   7.838
12163WAT     H236732   3.519   4.580   7.768
12164WAT      O36733   4.216   3.173   4.937
12164WAT     H136734   4.191   3.078   4.920
12164WAT     H236735   4.173   3.204   5.022
12165WAT      O36736   3.578   4.976   3.512
12165WAT     H136737   3.528   5.049   3.559
12165WAT     H236738   3.674   5.003   3.502
12166WAT      O36739   6.954   9.388   1.660
12166WAT     H136740   7.049   9.414   1.649
12166WAT     H236741   6.947   9.288   1.666
12167WAT      O36742   5.835   2.977   2.341
12167WAT     H136743   5.844   2.877   2.339
12167WAT     H236744   5.738   3.001   2.331
12168WAT      O36745   0.577   1.462   7.914
12168WAT     H136746   0.645   1.391   7.895
12168WAT     H236747   0.505   1.425   7.972
12169WAT      O36748   1.039   1.587   7.452
12169WAT     H136749   0.987   1.582   7.366
12169WAT     H236750   1.017   1.507   7.508
12170WAT      O36751   6.377   6.054   8.604
12170WAT     H136752   6.356   5.978   8.665
12170WAT     H236753   6.306   6.062   8.535
12171WAT      O36754   8.912   7.668   8.847
12171WAT     H136755   8.945   7.763   8.844
12171WAT     H236756   8.980   7.611   8.893
12172WAT      O36757   2.069   5.681   2.693
12172WAT     H136758   1.997   5.675   2.624
12172WAT     H236759   2.158   5.671   2.649
12173WAT      O36760   3.415   8.472   4.144
12173WAT     H136761   3.501   8.488   4.095
12173WAT     H236762   3.432   8.474   4.242
12174WAT      O36763   7.651   5.648   4.002
12174WAT     H136764   7.597   5.728   4.029
12174WAT     H236765   7.741   5.677   3.970
12175WAT      O36766   8.017   9.727   2.430
12175WAT     H136767   8.091   9.661   2.416
12175WAT     H236768   7.979   9.715   2.521
12176WAT      O36769   4.256   8.177   7.081
12176WAT     H136770   4.249   8.268   7.041
12176WAT     H236771   4.196   8.114   7.031
12177WAT      O36772   8.030   0.919   0.630
12177WAT     H136773   8.021   0.883   0.537
12177WAT     H236774   8.091   0.860   0.683
12178WAT      O36775   8.345   7.013   3.461
12178WAT     H136776   8.421   7.074   3.438
12178WAT     H236777   8.376   6.944   3.527
12179WAT      O36778   4.638   4.866   7.256
12179WAT     H136779   4.580   4.948   7.249
12179WAT     H236780   4.720   4.878   7.200
12180WAT      O36781   4.653   5.137   3.529
12180WAT     H136782   4.740   5.187   3.528
12180WAT     H236783   4.645   5.086   3.615
12181WAT      O36784   0.291   7.244   1.786
12181WAT     H136785   0.345   7.188   1.722
12181WAT     H236786   0.314   7.219   1.880
12182WAT      O36787   5.107   7.578   2.963
12182WAT     H136788   5.150   7.508   2.906
12182WAT     H236789   5.027   7.614   2.916
12183WAT      O36790   5.600   0.739   6.127
12183WAT     H136791   5.634   0.831   6.105
12183WAT     H236792   5.649   0.704   6.207
12184WAT      O36793   8.271   9.231   7.615
12184WAT     H136794   8.179   9.252   7.646
12184WAT     H236795   8.278   9.247   7.517
12185WAT      O36796   4.912   3.927   8.251
12185WAT     H136797   4.848   3.902   8.179
12185WAT     H236798   5.006   3.916   8.219
12186WAT      O36799   3.550   9.449   1.781
12186WAT     H136800   3.474   9.385   1.788
12186WAT     H236801   3.602   9.430   1.698
12187WAT      O36802   7.911   3.230   0.520
12187WAT     H136803   7.844   3.170   0.564
12187WAT     H236804   7.974   3.175   0.466
12188WAT      O36805   4.018   3.699   0.414
12188WAT     H136806   3.928   3.666   0.442
12188WAT     H236807   4.008   3.782   0.358
12189WAT      O36808   3.261   9.499   0.279
12189WAT     H136809   3.244   9.404   0.255
12189WAT     H236810   3.265   9.555   0.196
12190WAT      O36811   2.175   6.502   2.224
12190WAT     H136812   2.149   6.593   2.258
12190WAT     H236813   2.206   6.510   2.129
12191WAT      O36814   7.321   1.936   8.786
12191WAT     H136815   7.266   1.966   8.865
12191WAT     H236816   7.262   1.887   8.722
12192WAT      O36817   6.717   4.439   0.360
12192WAT     H136818   6.666   4.459   0.276
12192WAT     H236819   6.681   4.356   0.402
12193WAT      O36820   4.394   0.861   7.354
12193WAT     H136821   4.326   0.930   7.332
12193WAT     H236822   4.349   0.775   7.379
12194WAT      O36823   5.349   7.750   6.714
12194WAT     H136824   5.361   7.818   6.640
12194WAT     H236825   5.403   7.779   6.793
12195WAT      O36826   8.007   6.015   0.419
12195WAT     H136827   7.957   5.996   0.504
12195WAT     H236828   8.095   5.967   0.421
12196WAT      O36829   9.754   8.290   9.890
12196WAT     H136830   9.680   8.336   9.938
12196WAT     H236831   9.799   8.355   9.828
12197WAT      O36832   5.119   0.852   8.828
12197WAT     H136833   5.147   0.756   8.833
12197WAT     H236834   5.198   0.911   8.844
12198WAT      O36835   7.953   7.199   9.836
12198WAT     H136836   7.893   7.164   9.908
12198WAT     H236837   7.928   7.156   9.749
12199WAT      O36838   0.944   9.553   6.043
12199WAT     H136839   0.864   9.544   5.983
12199WAT     H236840   1.024   9.517   5.997
12200WAT      O36841   3.195   6.432   8.077
12200WAT     H136842   3.157   6.377   8.151
12200WAT     H236843   3.172   6.528   8.092
12201WAT      O36844   7.530   8.589   9.086
12201WAT     H136845   7.622   8.578   9.123
12201WAT     H236846   7.494   8.500   9.059
12202WAT      O36847   0.296   3.043   1.226
12202WAT     H136848   0.288   3.095   1.311
12202WAT     H236849   0.391   3.019   1.210
12203WAT      O36850   9.867   6.255   6.287
12203WAT     H136851   9.828   6.192   6.355
12203WAT     H236852   9.843   6.349   6.312
12204WAT      O36853   4.156   9.275   6.472
12204WAT     H136854   4.205   9.197   6.432
12204WAT     H236855   4.212   9.318   6.542
12205WAT      O36856   3.489   1.370   8.369
12205WAT     H136857   3.534   1.339   8.285
12205WAT     H236858   3.453   1.291   8.418
12206WAT      O36859   8.485   0.986   0.534
12206WAT     H136860   8.580   0.987   0.565
12206WAT     H236861   8.453   1.080   0.523
12207WAT      O36862   3.415   9.245   8.236
12207WAT     H136863   3.504   9.254   8.280
12207WAT     H236864   3.422   9.271   8.140
12208WAT      O36865   1.394   3.098   1.225
12208WAT     H136866   1.441   3.062   1.306
12208WAT     H236867   1.301   3.125   1.250
12209WAT      O36868   8.197   8.763   7.695
12209WAT     H136869   8.105   8.727   7.707
12209WAT     H236870   8.253   8.697   7.645
12210WAT      O36871   0.598   7.447   8.984
12210WAT     H136872   0.631   7.352   8.983
12210WAT     H236873   0.504   7.449   9.017
12211WAT      O36874   1.793   4.303   5.914
12211WAT     H136875   1.802   4.244   5.994
12211WAT     H236876   1.855   4.271   5.842
12212WAT      O36877   7.567   8.504   5.945
12212WAT     H136878   7.595   8.580   6.005
12212WAT     H236879   7.599   8.418   5.983
12213WAT      O36880   0.278   4.932   4.428
12213WAT     H136881   0.197   4.945   4.371
12213WAT     H236882   0.349   4.884   4.376
12214WAT      O36883   6.742   4.316   2.990
12214WAT     H136884   6.729   4.382   3.064
12214WAT     H236885   6.654   4.281   2.960
12215WAT      O36886   0.562   0.514   7.766
12215WAT     H136887   0.637   0.503   7.832
12215WAT     H236888   0.545   0.611   7.751
12216WAT      O36889   1.387   4.249   0.912
12216WAT     H136890   1.424   4.158   0.932
12216WAT     H236891   1.454   4.300   0.858
12217WAT      O36892   4.137   9.014   2.748
12217WAT     H136893   4.073   9.086   2.720
12217WAT     H236894   4.089   8.927   2.756
12218WAT      O36895   1.995   4.922   5.724
12218WAT     H136896   2.052   5.000   5.751
12218WAT     H236897   2.049   4.858   5.670
12219WAT      O36898   0.232   3.640   2.040
12219WAT     H136899   0.243   3.548   2.003
12219WAT     H236900   0.312   3.696   2.017
12220WAT      O36901   8.811   1.044   8.080
12220WAT     H136902   8.792   0.986   8.000
12220WAT     H236903   8.749   1.019   8.154
12221WAT      O36904   9.188   2.924   5.043
12221WAT     H136905   9.201   2.845   5.103
12221WAT     H236906   9.225   2.903   4.952
12222WAT      O36907   3.052   7.753   6.852
12222WAT     H136908   3.068   7.801   6.938
12222WAT     H236909   3.006   7.666   6.871
12223WAT      O36910   8.593   1.351   0.640
12223WAT     H136911   8.528   1.309   0.577
12223WAT     H236912   8.672   1.386   0.589
12224WAT      O36913   2.602   9.182   4.432
12224WAT     H136914   2.661   9.127   4.373
12224WAT     H236915   2.633   9.176   4.527
12225WAT      O36916   2.621   5.724   3.303
12225WAT     H136917   2.632   5.676   3.390
12225WAT     H236918   2.622   5.657   3.228
12226WAT      O36919   5.154   7.379   5.820
12226WAT     H136920   5.068   7.398   5.866
12226WAT     H236921   5.154   7.284   5.787
12227WAT      O36922   5.423   6.407   4.991
12227WAT     H136923   5.504   6.354   4.966
12227WAT     H236924   5.342   6.349   4.985
12228WAT      O36925   9.623   8.067   7.509
12228WAT     H136926   9.684   7.998   7.547
12228WAT     H236927   9.541   8.075   7.566
12229WAT      O36928   7.040   6.078   7.250
12229WAT     H136929   7.073   5.984   7.238
12229WAT     H236930   6.942   6.081   7.231
12230WAT      O36931   7.532   9.825   4.900
12230WAT     H136932   7.459   9.884   4.934
12230WAT     H236933   7.496   9.733   4.885
12231WAT      O36934   7.693   1.471   6.613
12231WAT     H136935   7.664   1.550   6.559
12231WAT     H236936   7.628   1.454   6.687
12232WAT      O36937   8.030   3.999   2.096
12232WAT     H136938   7.998   4.091   2.118
12232WAT     H236939   7.957   3.933   2.110
12233WAT      O36940   5.905   8.022   2.826
12233WAT     H136941   5.974   8.087   2.859
12233WAT     H236942   5.814   8.054   2.851
12234WAT      O36943   4.700   0.579   3.409
12234WAT     H136944   4.745   0.524   3.340
12234WAT     H236945   4.608   0.603   3.378
12235WAT      O36946   0.404   2.107   1.527
12235WAT     H136947   0.424   2.057   1.443
12235WAT     H236948   0.308   2.093   1.552
12236WAT      O36949   8.800   1.367   2.403
12236WAT     H136950   8.713   1.413   2.387
12236WAT     H236951   8.865   1.392   2.330
12237WAT      O36952   5.334   8.452   0.144
12237WAT     H136953   5.327   8.499   0.232
12237WAT     H236954   5.271   8.493   0.079
12238WAT      O36955   4.285   5.278   1.323
12238WAT     H136956   4.336   5.358   1.353
12238WAT     H236957   4.341   5.224   1.260
12239WAT      O36958   8.593   3.246   3.413
12239WAT     H136959   8.548   3.334   3.396
12239WAT     H236960   8.640   3.249   3.501
12240WAT      O36961   3.916   9.185   6.857
12240WAT     H136962   3.985   9.113   6.847
12240WAT     H236963   3.887   9.216   6.767
12241WAT      O36964   8.512   6.975   0.433
12241WAT     H136965   8.475   6.971   0.526
12241WAT     H236966   8.612   6.973   0.437
12242WAT      O36967   3.943   7.488   6.702
12242WAT     H136968   3.857   7.515   6.660
12242WAT     H236969   3.957   7.541   6.787
12243WAT      O36970   3.912   6.674   8.410
12243WAT     H136971   3.901   6.772   8.392
12243WAT     H236972   3.825   6.627   8.392
12244WAT      O36973   1.932   9.234   8.553
12244WAT     H136974   1.968   9.264   8.642
12244WAT     H236975   1.911   9.136   8.557
12245WAT      O36976   4.078   4.702   5.011
12245WAT     H136977   4.116   4.744   4.929
12245WAT     H236978   4.027   4.620   4.987
12246WAT      O36979   7.830   8.412   8.297
12246WAT     H136980   7.813   8.486   8.233
12246WAT     H236981   7.852   8.450   8.387
12247WAT      O36982   7.935   5.341   9.728
12247WAT     H136983   8.017   5.383   9.691
12247WAT     H236984   7.857   5.402   9.713
12248WAT      O36985   4.500   5.086   7.229
12248WAT     H136986   4.438   5.094   7.308
12248WAT     H236987   4.487   5.164   7.169
12249WAT      O36988   1.760   1.733   5.617
12249WAT     H136989   1.716   1.643   5.609
12249WAT     H236990   1.690   1.804   5.620
12250WAT      O36991   1.181   0.204   4.495
12250WAT     H136992   1.234   0.125   4.465
12250WAT     H236993   1.234   0.256   4.563
12251WAT      O36994   3.685   3.914   6.686
12251WAT     H136995   3.776   3.949   6.665
12251WAT     H236996   3.662   3.935   6.781
12252WAT      O36997   4.293   3.672   9.724
12252WAT     H136998   4.360   3.719   9.782
12252WAT     H236999   4.254   3.738   9.660
12253WAT      O37000   0.576   3.059   6.639
12253WAT     H137001   0.649   3.027   6.578
12253WAT     H237002   0.546   3.150   6.610
12254WAT      O37003   3.274   1.894   4.187
12254WAT     H137004   3.242   1.879   4.280
12254WAT     H237005   3.206   1.859   4.122
12255WAT      O37006   6.509   8.315   0.869
12255WAT     H137007   6.559   8.289   0.951
12255WAT     H237008   6.542   8.261   0.792
12256WAT      O37009   7.956   7.468   2.871
12256WAT     H137010   7.972   7.369   2.868
12256WAT     H237011   8.018   7.513   2.806
12257WAT      O37012   3.699   7.909   5.825
12257WAT     H137013   3.653   7.820   5.822
12257WAT     H237014   3.637   7.977   5.863
12258WAT      O37015   0.878   6.594   6.782
12258WAT     H137016   0.806   6.606   6.850
12258WAT     H237017   0.951   6.660   6.799
12259WAT      O37018   8.483   1.572   4.507
12259WAT     H137019   8.510   1.517   4.427
12259WAT     H237020   8.563   1.614   4.548
12260WAT      O37021   6.769   1.119   8.087
12260WAT     H137022   6.860   1.080   8.098
12260WAT     H237023   6.777   1.210   8.044
12261WAT      O37024   8.784   9.755   6.817
12261WAT     H137025   8.864   9.701   6.790
12261WAT     H237026   8.791   9.779   6.914
12262WAT      O37027   5.093   2.989   8.548
12262WAT     H137028   5.180   2.977   8.595
12262WAT     H237029   5.041   2.903   8.552
12263WAT      O37030   8.648   2.319   3.547
12263WAT     H137031   8.644   2.419   3.555
12263WAT     H237032   8.559   2.280   3.569
12264WAT      O37033   8.864   8.140   7.559
12264WAT     H137034   8.784   8.088   7.527
12264WAT     H237035   8.941   8.123   7.496
12265WAT      O37036   8.124   7.913   4.461
12265WAT     H137037   8.104   7.911   4.363
12265WAT     H237038   8.207   7.860   4.480
12266WAT      O37039   4.982   6.201   7.870
12266WAT     H137040   4.885   6.189   7.849
12266WAT     H237041   5.008   6.297   7.856
12267WAT      O37042   8.488   5.321   7.372
12267WAT     H137043   8.561   5.327   7.440
12267WAT     H237044   8.527   5.336   7.281
12268WAT      O37045   9.771   9.648   3.204
12268WAT     H137046   9.689   9.691   3.242
12268WAT     H237047   9.773   9.552   3.229
12269WAT      O37048   3.988   6.641   3.752
12269WAT     H137049   4.013   6.682   3.840
12269WAT     H237050   3.888   6.636   3.745
12270WAT      O37051   6.107   3.467   1.969
12270WAT     H137052   6.010   3.483   1.986
12270WAT     H237053   6.129   3.490   1.874
12271WAT      O37054   9.887   9.627   6.943
12271WAT     H137055   9.918   9.685   6.868
12271WAT     H237056   9.792   9.650   6.966
12272WAT      O37057   5.498   5.818   2.790
12272WAT     H137058   5.401   5.838   2.798
12272WAT     H237059   5.518   5.733   2.839
12273WAT      O37060   7.911   7.216   8.453
12273WAT     H137061   7.820   7.200   8.416
12273WAT     H237062   7.950   7.298   8.412
12274WAT      O37063   9.728   4.354   5.162
12274WAT     H137064   9.629   4.349   5.149
12274WAT     H237065   9.747   4.389   5.254
12275WAT      O37066   5.618   2.009   6.756
12275WAT     H137067   5.708   1.970   6.734
12275WAT     H237068   5.568   2.026   6.672
12276WAT      O37069   8.077   6.636   7.756
12276WAT     H137070   8.166   6.590   7.762
12276WAT     H237071   8.091   6.735   7.750
12277WAT      O37072   1.640   5.174   7.977
12277WAT     H137073   1.608   5.155   8.070
12277WAT     H237074   1.740   5.177   7.976
12278WAT      O37075   4.938   1.204   8.415
12278WAT     H137076   4.991   1.251   8.345
12278WAT     H237077   4.884   1.131   8.372
12279WAT      O37078   0.566   1.458   2.522
12279WAT     H137079   0.656   1.431   2.556
12279WAT     H237080   0.496   1.405   2.570
12280WAT      O37081   3.403   2.794   6.898
12280WAT     H137082   3.361   2.884   6.913
12280WAT     H237083   3.347   2.742   6.832
12281WAT      O37084   4.920   3.761   0.146
12281WAT     H137085   5.019   3.749   0.140
12281WAT     H237086   4.896   3.853   0.114
12282WAT      O37087   6.972   3.804   1.524
12282WAT     H137088   7.016   3.794   1.435
12282WAT     H237089   6.963   3.714   1.566
12283WAT      O37090   1.950   6.767   0.763
12283WAT     H137091   1.858   6.804   0.778
12283WAT     H237092   1.996   6.818   0.691
12284WAT      O37093   4.244   2.698   5.525
12284WAT     H137094   4.238   2.601   5.546
12284WAT     H237095   4.200   2.751   5.598
12285WAT      O37096   4.350   4.588   5.560
12285WAT     H137097   4.395   4.613   5.645
12285WAT     H237098   4.272   4.649   5.545
12286WAT      O37099   2.705   4.255   3.143
12286WAT     H137100   2.736   4.280   3.235
12286WAT     H237101   2.764   4.183   3.106
12287WAT      O37102   5.073   1.424   1.261
12287WAT     H137103   5.130   1.436   1.180
12287WAT     H237104   5.007   1.351   1.245
12288WAT      O37105   0.312   5.539   0.494
12288WAT     H137106   0.335   5.632   0.469
12288WAT     H237107   0.351   5.517   0.583
12289WAT      O37108   5.577   7.107   8.721
12289WAT     H137109   5.516   7.175   8.761
12289WAT     H237110   5.533   7.017   8.725
12290WAT      O37111   8.207   1.912   0.334
12290WAT     H137112   8.125   1.889   0.387
12290WAT     H237113   8.183   1.975   0.261
12291WAT      O37114   9.379   0.409   5.397
12291WAT     H137115   9.375   0.476   5.472
12291WAT     H237116   9.377   0.317   5.435
12292WAT      O37117   5.993   0.308   5.123
12292WAT     H137118   5.907   0.359   5.123
12292WAT     H237119   6.048   0.336   5.043
12293WAT      O37120   9.255   7.959   4.717
12293WAT     H137121   9.210   8.041   4.681
12293WAT     H237122   9.197   7.918   4.787
12294WAT      O37123   5.083   8.212   8.948
12294WAT     H137124   5.167   8.161   8.966
12294WAT     H237125   5.057   8.264   9.029
12295WAT      O37126   7.722   3.825   9.892
12295WAT     H137127   7.640   3.793   9.845
12295WAT     H237128   7.762   3.901   9.840
12296WAT      O37129   6.038   3.791   7.103
12296WAT     H137130   5.984   3.875   7.102
12296WAT     H237131   6.133   3.813   7.083
12297WAT      O37132   7.027   8.538   9.066
12297WAT     H137133   7.112   8.588   9.081
12297WAT     H237134   6.949   8.597   9.090
12298WAT      O37135   5.819   8.842   2.213
12298WAT     H137136   5.909   8.805   2.237
12298WAT     H237137   5.759   8.839   2.293
12299WAT      O37138   6.563   7.830   6.405
12299WAT     H137139   6.587   7.868   6.495
12299WAT     H237140   6.613   7.880   6.334
12300WAT      O37141   0.472   2.381   7.140
12300WAT     H137142   0.510   2.291   7.162
12300WAT     H237143   0.432   2.379   7.049
12301WAT      O37144   7.373   3.680   3.015
12301WAT     H137145   7.324   3.596   3.035
12301WAT     H237146   7.332   3.756   3.066
12302WAT      O37147   8.675   9.416   9.698
12302WAT     H137148   8.657   9.420   9.796
12302WAT     H237149   8.686   9.320   9.670
12303WAT      O37150   8.921   3.012   2.011
12303WAT     H137151   8.965   3.094   2.046
12303WAT     H237152   8.984   2.962   1.952
12304WAT      O37153   0.771   3.020   6.450
12304WAT     H137154   0.706   2.951   6.420
12304WAT     H237155   0.861   2.979   6.462
12305WAT      O37156   0.118   4.308   5.602
12305WAT     H137157   0.020   4.321   5.586
12305WAT     H237158   0.142   4.346   5.692
12306WAT      O37159   7.130   3.822   4.301
12306WAT     H137160   7.165   3.783   4.387
12306WAT     H237161   7.138   3.921   4.304
12307WAT      O37162   9.084   5.417   0.065
12307WAT     H137163   9.160   5.397   0.002
12307WAT     H237164   9.011   5.351   0.050
12308WAT      O37165   3.383   8.152   1.255
12308WAT     H137166   3.425   8.062   1.250
12308WAT     H237167   3.292   8.149   1.213
12309WAT      O37168   3.640   5.178   8.214
12309WAT     H137169   3.576   5.228   8.156
12309WAT     H237170   3.611   5.082   8.219
12310WAT      O37171   7.535   2.132   4.649
12310WAT     H137172   7.535   2.093   4.558
12310WAT     H237173   7.622   2.180   4.665
12311WAT      O37174   4.128   4.099   8.128
12311WAT     H137175   4.195   4.148   8.184
12311WAT     H237176   4.170   4.017   8.089
12312WAT      O37177   8.571   9.288   3.150
12312WAT     H137178   8.604   9.372   3.193
12312WAT     H237179   8.644   9.219   3.153
12313WAT      O37180   0.172   4.047   4.066
12313WAT     H137181   0.200   4.012   3.977
12313WAT     H237182   0.121   4.132   4.054
12314WAT      O37183   3.884   1.598   0.262
12314WAT     H137184   3.958   1.610   0.195
12314WAT     H237185   3.796   1.597   0.215
12315WAT      O37186   6.944   7.139   0.603
12315WAT     H137187   6.907   7.219   0.557
12315WAT     H237188   6.977   7.073   0.535
12316WAT      O37189   3.297   3.219   6.299
12316WAT     H137190   3.334   3.185   6.213
12316WAT     H237191   3.371   3.247   6.360
12317WAT      O37192   1.735   8.899   4.113
12317WAT     H137193   1.692   8.989   4.119
12317WAT     H237194   1.827   8.908   4.077
12318WAT      O37195   2.220   2.814   4.945
12318WAT     H137196   2.278   2.746   4.989
12318WAT     H237197   2.125   2.784   4.947
12319WAT      O37198   5.617   6.715   6.408
12319WAT     H137199   5.533   6.662   6.416
12319WAT     H237200   5.614   6.769   6.324
12320WAT      O37201   7.688   0.849   2.225
12320WAT     H137202   7.604   0.837   2.278
12320WAT     H237203   7.668   0.841   2.127
12321WAT      O37204   0.091   4.475   4.077
12321WAT     H137205   0.055   4.383   4.064
12321WAT     H237206   0.175   4.471   4.131
12322WAT      O37207   8.836   0.851   3.948
12322WAT     H137208   8.875   0.779   4.006
12322WAT     H237209   8.756   0.814   3.899
12323WAT      O37210   8.256   9.687   4.361
12323WAT     H137211   8.200   9.646   4.289
12323WAT     H237212   8.340   9.724   4.321
12324WAT      O37213   9.035   2.630   7.232
12324WAT     H137214   8.951   2.587   7.263
12324WAT     H237215   9.048   2.612   7.134
12325WAT      O37216   1.102   6.884   8.085
12325WAT     H137217   1.028   6.823   8.056
12325WAT     H237218   1.064   6.974   8.107
12326WAT      O37219   2.107   3.829   0.280
12326WAT     H137220   2.126   3.788   0.369
12326WAT     H237221   2.171   3.792   0.212
12327WAT      O37222   5.684   1.187   6.852
12327WAT     H137223   5.682   1.151   6.759
12327WAT     H237224   5.644   1.120   6.915
12328WAT      O37225   2.204   8.245   4.660
12328WAT     H137226   2.200   8.263   4.758
12328WAT     H237227   2.235   8.151   4.644
12329WAT      O37228   3.712   8.597   8.525
12329WAT     H137229   3.700   8.684   8.573
12329WAT     H237230   3.633   8.538   8.542
12330WAT      O37231   3.019   4.832   3.304
12330WAT     H137232   3.085   4.907   3.304
12330WAT     H237233   3.066   4.745   3.317
12331WAT      O37234   7.276   1.073   2.135
12331WAT     H137235   7.354   1.134   2.148
12331WAT     H237236   7.302   0.980   2.158
12332WAT      O37237   7.009   2.722   0.720
12332WAT     H137238   6.993   2.728   0.819
12332WAT     H237239   6.930   2.678   0.676
12333WAT      O37240   4.342   3.833   8.103
12333WAT     H137241   4.435   3.808   8.076
12333WAT     H237242   4.326   3.808   8.198
12334WAT      O37243   4.877   9.248   1.604
12334WAT     H137244   4.786   9.215   1.626
12334WAT     H237245   4.900   9.223   1.510
12335WAT      O37246   9.241   4.609   6.596
12335WAT     H137247   9.208   4.571   6.510
12335WAT     H237248   9.163   4.630   6.655
12336WAT      O37249   6.106   9.502   5.728
12336WAT     H137250   6.175   9.430   5.723
12336WAT     H237251   6.110   9.546   5.818
12337WAT      O37252   4.396   7.900   0.547
12337WAT     H137253   4.314   7.926   0.496
12337WAT     H237254   4.477   7.920   0.492
12338WAT      O37255   0.936   5.586   7.867
12338WAT     H137256   0.957   5.493   7.836
12338WAT     H237257   0.901   5.583   7.960
12339WAT      O37258   4.409   5.770   8.483
12339WAT     H137259   4.456   5.773   8.571
12339WAT     H237260   4.440   5.690   8.431
12340WAT      O37261   2.267   5.365   5.720
12340WAT     H137262   2.330   5.288   5.735
12340WAT     H237263   2.277   5.430   5.795
12341WAT      O37264   3.133   3.737   4.755
12341WAT     H137265   3.184   3.652   4.737
12341WAT     H237266   3.065   3.750   4.683
12342WAT      O37267   2.289   6.450   1.976
12342WAT     H137268   2.308   6.548   1.972
12342WAT     H237269   2.364   6.403   2.022
12343WAT      O37270   0.792   5.168   4.246
12343WAT     H137271   0.695   5.154   4.266
12343WAT     H237272   0.840   5.190   4.331
12344WAT      O37273   4.896   4.703   3.554
12344WAT     H137274   4.831   4.699   3.630
12344WAT     H237275   4.989   4.686   3.589
12345WAT      O37276   1.332   5.552   9.252
12345WAT     H137277   1.417   5.603   9.237
12345WAT     H237278   1.280   5.548   9.167
12346WAT      O37279   3.371   4.987   4.974
12346WAT     H137280   3.363   4.946   4.883
12346WAT     H237281   3.443   4.941   5.025
12347WAT      O37282   7.613   6.128   2.551
12347WAT     H137283   7.527   6.180   2.553
12347WAT     H237284   7.609   6.056   2.621
12348WAT      O37285   5.502   6.554   6.737
12348WAT     H137286   5.445   6.523   6.812
12348WAT     H237287   5.506   6.654   6.737
12349WAT      O37288   4.100   8.046   6.912
12349WAT     H137289   4.146   8.052   6.824
12349WAT     H237290   4.110   7.953   6.949
12350WAT      O37291   9.658   6.766   0.800
12350WAT     H137292   9.649   6.668   0.779
12350WAT     H237293   9.577   6.814   0.766
12351WAT      O37294   9.574   7.674   1.727
12351WAT     H137295   9.613   7.586   1.753
12351WAT     H237296   9.568   7.680   1.627
12352WAT      O37297   6.331   9.410   8.618
12352WAT     H137298   6.353   9.376   8.527
12352WAT     H237299   6.363   9.505   8.626
12353WAT      O37300   6.996   0.020   5.354
12353WAT     H137301   7.074   0.029   5.293
12353WAT     H237302   6.936   0.100   5.345
12354WAT      O37303   8.587   2.900   5.619
12354WAT     H137304   8.659   2.954   5.576
12354WAT     H237305   8.500   2.917   5.573
12355WAT      O37306   5.696   3.751   7.597
12355WAT     H137307   5.629   3.749   7.671
12355WAT     H237308   5.649   3.734   7.510
12356WAT      O37309   4.928   3.039   0.503
12356WAT     H137310   4.982   2.965   0.463
12356WAT     H237311   4.972   3.127   0.483
12357WAT      O37312   3.127   3.286   8.012
12357WAT     H137313   3.188   3.360   7.986
12357WAT     H237314   3.081   3.309   8.098
12358WAT      O37315   9.527   9.810   3.881
12358WAT     H137316   9.601   9.753   3.844
12358WAT     H237317   9.455   9.821   3.812
12359WAT      O37318   2.563   1.999   5.201
12359WAT     H137319   2.650   2.041   5.176
12359WAT     H237320   2.576   1.938   5.279
12360WAT      O37321   9.223   0.823   4.867
12360WAT     H137322   9.198   0.750   4.930
12360WAT     H237323   9.306   0.868   4.900
12361WAT      O37324   2.027   1.894   8.578
12361WAT     H137325   1.990   1.843   8.655
12361WAT     H237326   2.013   1.992   8.593
12362WAT      O37327   5.258   1.936   4.540
12362WAT     H137328   5.211   1.849   4.553
12362WAT     H237329   5.260   1.986   4.627
12363WAT      O37330   3.174   4.575   9.336
12363WAT     H137331   3.168   4.654   9.396
12363WAT     H237332   3.084   4.531   9.329
12364WAT      O37333   6.555   5.930   5.143
12364WAT     H137334   6.513   5.884   5.064
12364WAT     H237335   6.494   5.924   5.221
12365WAT      O37336   3.274   9.625   0.785
12365WAT     H137337   3.212   9.631   0.864
12365WAT     H237338   3.220   9.628   0.701
12366WAT      O37339   5.058   3.356   1.143
12366WAT     H137340   5.132   3.355   1.210
12366WAT     H237341   5.084   3.303   1.062
12367WAT      O37342   3.994   9.088   3.841
12367WAT     H137343   4.077   9.106   3.787
12367WAT     H237344   3.925   9.157   3.821
12368WAT      O37345   9.209   2.033   5.082
12368WAT     H137346   9.277   2.103   5.104
12368WAT     H237347   9.232   1.948   5.128
12369WAT      O37348   2.709   6.316   3.999
12369WAT     H137349   2.706   6.282   3.905
12369WAT     H237350   2.618   6.342   4.028
12370WAT      O37351   8.433   2.991   9.198
12370WAT     H137352   8.505   2.932   9.162
12370WAT     H237353   8.377   2.939   9.263
12371WAT      O37354   7.005   4.056   5.131
12371WAT     H137355   6.940   4.081   5.203
12371WAT     H237356   7.090   4.106   5.144
12372WAT      O37357   9.166   0.137   4.595
12372WAT     H137358   9.244   0.199   4.589
12372WAT     H237359   9.110   0.161   4.674
12373WAT      O37360   2.195   9.812   0.252
12373WAT     H137361   2.159   9.795   0.160
12373WAT     H237362   2.249   9.733   0.281
12374WAT      O37363   0.456   3.143   8.371
12374WAT     H137364   0.480   3.240   8.377
12374WAT     H237365   0.497   3.095   8.449
12375WAT      O37366   7.085   6.401   5.403
12375WAT     H137367   7.079   6.489   5.451
12375WAT     H237368   7.153   6.406   5.331
12376WAT      O37369   3.936   8.562   5.823
12376WAT     H137370   3.947   8.497   5.748
12376WAT     H237371   3.975   8.650   5.796
12377WAT      O37372   6.031   0.700   6.881
12377WAT     H137373   5.997   0.729   6.791
12377WAT     H237374   6.112   0.753   6.904
12378WAT      O37375   5.103   2.120   3.911
12378WAT     H137376   5.199   2.093   3.915
12378WAT     H237377   5.045   2.039   3.922
12379WAT      O37378   8.261   5.651   9.779
12379WAT     H137379   8.240   5.728   9.840
12379WAT     H237380   8.317   5.584   9.829
12380WAT      O37381   7.380   3.893   3.699
12380WAT     H137382   7.303   3.934   3.748
12380WAT     H237383   7.434   3.965   3.655
12381WAT      O37384   0.460   7.232   3.769
12381WAT     H137385   0.407   7.180   3.837
12381WAT     H237386   0.513   7.168   3.713
12382WAT      O37387   5.753   6.190   1.363
12382WAT     H137388   5.718   6.171   1.272
12382WAT     H237389   5.738   6.111   1.422
12383WAT      O37390   4.893   2.682   9.758
12383WAT     H137391   4.850   2.615   9.698
12383WAT     H237392   4.941   2.634   9.832
12384WAT      O37393   8.610   3.276   8.495
12384WAT     H137394   8.586   3.331   8.575
12384WAT     H237395   8.601   3.179   8.518
12385WAT      O37396   5.371   7.741   1.055
12385WAT     H137397   5.373   7.646   1.087
12385WAT     H237398   5.452   7.789   1.089
12386WAT      O37399   7.315   9.215   4.635
12386WAT     H137400   7.384   9.287   4.639
12386WAT     H237401   7.233   9.246   4.684
12387WAT      O37402   6.325   0.461   3.104
12387WAT     H137403   6.275   0.502   3.028
12387WAT     H237404   6.424   0.476   3.091
12388WAT      O37405   8.679   3.566   6.892
12388WAT     H137406   8.738   3.545   6.814
12388WAT     H237407   8.596   3.612   6.859
12389WAT      O37408   0.291   8.944   0.982
12389WAT     H137409   0.349   9.022   1.005
12389WAT     H237410   0.195   8.971   0.986
12390WAT      O37411   6.195   9.524   8.236
12390WAT     H137412   6.108   9.477   8.243
12390WAT     H237413   6.228   9.519   8.141
12391WAT      O37414   9.823   3.378   1.575
12391WAT     H137415   9.892   3.307   1.591
12391WAT     H237416   9.764   3.385   1.655
12392WAT      O37417   0.128   4.310   1.952
12392WAT     H137418   0.063   4.324   1.877
12392WAT     H237419   0.083   4.260   2.026
12393WAT      O37420   0.038   5.995   5.819
12393WAT     H137421   0.120   6.043   5.791
12393WAT     H237422   0.004   5.940   5.743
12394WAT      O37423   8.318   1.634   3.352
12394WAT     H137424   8.243   1.700   3.343
12394WAT     H237425   8.405   1.682   3.347
12395WAT      O37426   7.768   2.068   6.332
12395WAT     H137427   7.785   2.099   6.426
12395WAT     H237428   7.754   1.969   6.332
12396WAT      O37429   6.689   1.501   0.174
12396WAT     H137430   6.593   1.504   0.200
12396WAT     H237431   6.703   1.427   0.108
12397WAT      O37432   7.908   1.273   8.584
12397WAT     H137433   7.880   1.301   8.675
12397WAT     H237434   7.828   1.251   8.529
12398WAT      O37435   7.228   1.956   2.134
12398WAT     H137436   7.160   2.030   2.132
12398WAT     H237437   7.222   1.907   2.221
12399WAT      O37438   8.408   5.755   5.271
12399WAT     H137439   8.319   5.712   5.255
12399WAT     H237440   8.427   5.821   5.198
12400WAT      O37441   6.237   5.237   9.359
12400WAT     H137442   6.330   5.275   9.349
12400WAT     H237443   6.187   5.250   9.273
12401WAT      O37444   0.756   6.680   1.301
12401WAT     H137445   0.765   6.744   1.377
12401WAT     H237446   0.715   6.595   1.333
12402WAT      O37447   9.468   5.949   3.763
12402WAT     H137448   9.442   5.908   3.675
12402WAT     H237449   9.523   6.030   3.747
12403WAT      O37450   9.668   0.424   2.156
12403WAT     H137451   9.674   0.484   2.076
12403WAT     H237452   9.737   0.451   2.224
12404WAT      O37453   2.062   9.253   8.802
12404WAT     H137454   2.073   9.159   8.769
12404WAT     H237455   2.145   9.305   8.785
12405WAT      O37456   5.965   9.497   6.751
12405WAT     H137457   6.031   9.572   6.750
12405WAT     H237458   5.872   9.535   6.751
12406WAT      O37459   6.819   0.686   9.794
12406WAT     H137460   6.918   0.683   9.811
12406WAT     H237461   6.774   0.741   9.865
12407WAT      O37462   0.645   7.969   0.270
12407WAT     H137463   0.657   7.874   0.301
12407WAT     H237464   0.607   8.024   0.345
12408WAT      O37465   2.617   1.739   6.338
12408WAT     H137466   2.532   1.754   6.387
12408WAT     H237467   2.631   1.641   6.324
12409WAT      O37468   7.536   7.940   8.749
12409WAT     H137469   7.451   7.908   8.792
12409WAT     H237470   7.598   7.973   8.821
12410WAT      O37471   3.989   8.283   0.396
12410WAT     H137472   4.037   8.220   0.336
12410WAT     H237473   3.891   8.281   0.377
12411WAT      O37474   1.484   8.624   4.025
12411WAT     H137475   1.419   8.549   4.015
12411WAT     H237476   1.532   8.614   4.113
12412WAT      O37477   8.092   0.719   7.073
12412WAT     H137478   8.119   0.622   7.070
12412WAT     H237479   8.172   0.776   7.059
12413WAT      O37480   8.291   0.803   6.102
12413WAT     H137481   8.243   0.874   6.049
12413WAT     H237482   8.237   0.779   6.183
12414WAT      O37483   9.752   9.063   2.945
12414WAT     H137484   9.655   9.042   2.959
12414WAT     H237485   9.796   9.073   3.035
12415WAT      O37486   9.564   2.964   8.094
12415WAT     H137487   9.635   2.937   8.029
12415WAT     H237488   9.487   2.902   8.087
12416WAT      O37489   3.664   4.913   6.667
12416WAT     H137490   3.691   4.961   6.751
12416WAT     H237491   3.601   4.969   6.614
12417WAT      O37492   8.729   5.775   4.832
12417WAT     H137493   8.828   5.785   4.824
12417WAT     H237494   8.686   5.865   4.824
12418WAT      O37495   4.093   6.629   4.285
12418WAT     H137496   4.127   6.581   4.366
12418WAT     H237497   4.164   6.691   4.251
12419WAT      O37498   3.395   5.246   9.198
12419WAT     H137499   3.457   5.180   9.157
12419WAT     H237500   3.430   5.339   9.183
12420WAT      O37501   2.626   2.055   5.835
12420WAT     H137502   2.578   2.143   5.842
12420WAT     H237503   2.670   2.049   5.745
12421WAT      O37504   2.096   3.141   7.812
12421WAT     H137505   2.099   3.233   7.851
12421WAT     H237506   2.028   3.138   7.739
12422WAT      O37507   2.440   4.012   3.009
12422WAT     H137508   2.482   3.989   3.097
12422WAT     H237509   2.482   3.958   2.937
12423WAT      O37510   4.792   2.382   3.437
12423WAT     H137511   4.832   2.329   3.511
12423WAT     H237512   4.864   2.407   3.371
12424WAT      O37513   4.493   6.491   7.949
12424WAT     H137514   4.560   6.444   7.892
12424WAT     H237515   4.474   6.582   7.911
12425WAT      O37516   3.170   2.675   8.622
12425WAT     H137517   3.198   2.707   8.531
12425WAT     H237518   3.156   2.576   8.620
12426WAT      O37519   6.274   5.394   6.067
12426WAT     H137520   6.185   5.348   6.068
12426WAT     H237521   6.317   5.384   6.156
12427WAT      O37522   0.018   5.363   2.457
12427WAT     H137523  -0.043   5.410   2.392
12427WAT     H237524   0.011   5.264   2.443
12428WAT      O37525   2.153   7.652   6.184
12428WAT     H137526   2.091   7.630   6.259
12428WAT     H237527   2.234   7.593   6.190
12429WAT      O37528   6.584   5.241   3.964
12429WAT     H137529   6.593   5.329   3.918
12429WAT     H237530   6.621   5.248   4.057
12430WAT      O37531   9.214   7.438   0.333
12430WAT     H137532   9.145   7.494   0.378
12430WAT     H237533   9.181   7.343   0.326
12431WAT      O37534   4.886   4.928   2.902
12431WAT     H137535   4.847   4.886   2.820
12431WAT     H237536   4.827   5.002   2.933
12432WAT      O37537   5.935   3.392   1.560
12432WAT     H137538   5.944   3.328   1.636
12432WAT     H237539   5.870   3.356   1.494
12433WAT      O37540   1.676   2.415   4.784
12433WAT     H137541   1.628   2.447   4.865
12433WAT     H237542   1.712   2.493   4.733
12434WAT      O37543   8.266   3.598   2.575
12434WAT     H137544   8.193   3.663   2.599
12434WAT     H237545   8.331   3.594   2.650
12435WAT      O37546   7.451   4.061   0.582
12435WAT     H137547   7.434   4.145   0.530
12435WAT     H237548   7.418   3.982   0.530
12436WAT      O37549   2.732   8.228   9.379
12436WAT     H137550   2.704   8.132   9.382
12436WAT     H237551   2.708   8.272   9.465
12437WAT      O37552   5.321   0.965   1.808
12437WAT     H137553   5.374   1.047   1.788
12437WAT     H237554   5.368   0.885   1.771
12438WAT      O37555   1.954   5.443   7.446
12438WAT     H137556   1.884   5.460   7.376
12438WAT     H237557   1.994   5.352   7.431
12439WAT      O37558   8.087   9.098   1.807
12439WAT     H137559   8.077   9.166   1.734
12439WAT     H237560   8.153   9.029   1.779
12440WAT      O37561   0.578   2.184   4.426
12440WAT     H137562   0.630   2.256   4.380
12440WAT     H237563   0.584   2.099   4.374
12441WAT      O37564   9.715   6.899   8.079
12441WAT     H137565   9.756   6.820   8.124
12441WAT     H237566   9.751   6.907   7.986
12442WAT      O37567   8.197   4.046   5.001
12442WAT     H137568   8.121   3.980   4.993
12442WAT     H237569   8.183   4.103   5.082
12443WAT      O37570   0.248   1.525   0.994
12443WAT     H137571   0.286   1.601   1.047
12443WAT     H237572   0.266   1.439   1.041
12444WAT      O37573   5.992   4.621   9.244
12444WAT     H137574   6.014   4.543   9.303
12444WAT     H237575   5.914   4.597   9.186
12445WAT      O37576   5.097   8.566   1.951
12445WAT     H137577   5.002   8.533   1.953
12445WAT     H237578   5.101   8.658   1.989
12446WAT      O37579   2.411   6.027   2.204
12446WAT     H137580   2.426   6.047   2.301
12446WAT     H237581   2.461   5.944   2.179
12447WAT      O37582   3.300   1.253   6.651
12447WAT     H137583   3.387   1.215   6.620
12447WAT     H237584   3.227   1.187   6.634
12448WAT      O37585   7.433   3.328   8.387
12448WAT     H137586   7.462   3.291   8.475
12448WAT     H237587   7.339   3.300   8.368
12449WAT      O37588   7.853   8.885   3.712
12449WAT     H137589   7.864   8.966   3.769
12449WAT     H237590   7.943   8.851   3.685
12450WAT      O37591   3.237   7.113   9.868
12450WAT     H137592   3.165   7.043   9.869
12450WAT     H237593   3.327   7.068   9.863
12451WAT      O37594   5.091   6.095   0.081
12451WAT     H137595   4.997   6.111   0.109
12451WAT     H237596   5.139   6.043   0.152
12452WAT      O37597   9.156   0.788   2.269
12452WAT     H137598   9.083   0.838   2.316
12452WAT     H237599   9.121   0.700   2.237
12453WAT      O37600   6.483   3.620   5.350
12453WAT     H137601   6.418   3.594   5.421
12453WAT     H237602   6.479   3.555   5.274
12454WAT      O37603   1.650   8.944   1.598
12454WAT     H137604   1.644   8.890   1.682
12454WAT     H237605   1.564   8.935   1.547
12455WAT      O37606   6.061   1.100   7.234
12455WAT     H137607   6.144   1.105   7.288
12455WAT     H237608   5.983   1.080   7.294
12456WAT      O37609   2.863   0.748   1.602
12456WAT     H137610   2.802   0.828   1.610
12456WAT     H237611   2.825   0.685   1.535
12457WAT      O37612   9.058   3.962   6.521
12457WAT     H137613   8.972   3.950   6.572
12457WAT     H237614   9.106   3.875   6.517
12458WAT      O37615   2.647   8.523   1.171
12458WAT     H137616   2.595   8.591   1.223
12458WAT     H237617   2.710   8.476   1.232
12459WAT      O37618   0.781   9.579   9.882
12459WAT     H137619   0.692   9.603   9.922
12459WAT     H237620   0.836   9.662   9.870
12460WAT      O37621   7.729   0.548   5.778
12460WAT     H137622   7.651   0.486   5.769
12460WAT     H237623   7.755   0.556   5.874
12461WAT      O37624   6.674   3.110   5.951
12461WAT     H137625   6.656   3.203   5.982
12461WAT     H237626   6.704   3.054   6.028
12462WAT      O37627   4.535   4.985   7.957
12462WAT     H137628   4.609   4.967   8.022
12462WAT     H237629   4.568   5.044   7.884
12463WAT      O37630   0.960   9.249   7.259
12463WAT     H137631   0.861   9.233   7.261
12463WAT     H237632   0.990   9.256   7.163
12464WAT      O37633   2.024   5.156   6.096
12464WAT     H137634   1.934   5.117   6.077
12464WAT     H237635   2.041   5.154   6.195
12465WAT      O37636   8.299   5.832   4.056
12465WAT     H137637   8.216   5.873   4.094
12465WAT     H237638   8.278   5.739   4.024
12466WAT      O37639   8.068   6.563   1.964
12466WAT     H137640   8.100   6.598   2.052
12466WAT     H237641   8.138   6.502   1.925
12467WAT      O37642   6.111   2.126   5.875
12467WAT     H137643   6.091   2.116   5.973
12467WAT     H237644   6.082   2.217   5.845
12468WAT      O37645   5.731   2.022   2.700
12468WAT     H137646   5.714   2.045   2.604
12468WAT     H237647   5.818   1.973   2.707
12469WAT      O37648   9.030   5.820   5.314
12469WAT     H137649   9.022   5.916   5.288
12469WAT     H237650   9.017   5.811   5.413
12470WAT      O37651   8.766   8.531   0.223
12470WAT     H137652   8.749   8.449   0.279
12470WAT     H237653   8.848   8.517   0.168
12471WAT      O37654   7.321   1.221   9.178
12471WAT     H137655   7.263   1.141   9.194
12471WAT     H237656   7.399   1.195   9.122
12472WAT      O37657   7.266   7.766   3.130
12472WAT     H137658   7.169   7.740   3.133
12472WAT     H237659   7.322   7.683   3.137
12473WAT      O37660   2.181   0.070   5.397
12473WAT     H137661   2.214   0.111   5.482
12473WAT     H237662   2.087   0.099   5.380
12474WAT      O37663   7.306   9.561   8.380
12474WAT     H137664   7.257   9.621   8.444
12474WAT     H237665   7.250   9.480   8.361
12475WAT      O37666   6.900   4.368   9.043
12475WAT     H137667   6.883   4.275   9.011
12475WAT     H237668   6.924   4.426   8.965
12476WAT      O37669   6.650   2.540   5.783
12476WAT     H137670   6.675   2.447   5.760
12476WAT     H237671   6.700   2.604   5.725
12477WAT      O37672   2.242   4.380   6.066
12477WAT     H137673   2.278   4.414   6.153
12477WAT     H237674   2.316   4.338   6.014
12478WAT      O37675   0.014   3.574   8.609
12478WAT     H137676   0.096   3.556   8.554
12478WAT     H237677  -0.048   3.496   8.602
12479WAT      O37678   8.738   9.154   0.019
12479WAT     H137679   8.714   9.251   0.018
12479WAT     H237680   8.660   9.100   0.050
12480WAT      O37681   3.338   1.838   4.976
12480WAT     H137682   3.256   1.789   5.006
12480WAT     H237683   3.405   1.772   4.942
12481WAT      O37684   2.398   0.852   2.906
12481WAT     H137685   2.358   0.822   2.820
12481WAT     H237686   2.461   0.781   2.940
12482WAT      O37687   5.915   2.447   5.222
12482WAT     H137688   5.899   2.358   5.266
12482WAT     H237689   6.011   2.455   5.198
12483WAT      O37690   8.396   2.639   1.519
12483WAT     H137691   8.431   2.733   1.517
12483WAT     H237692   8.462   2.579   1.475
12484WAT      O37693   1.791   7.219   3.430
12484WAT     H137694   1.792   7.183   3.524
12484WAT     H237695   1.837   7.308   3.429
12485WAT      O37696   7.193   3.463   8.894
12485WAT     H137697   7.256   3.537   8.917
12485WAT     H237698   7.102   3.484   8.930
12486WAT      O37699   6.855   6.552   1.160
12486WAT     H137700   6.897   6.533   1.071
12486WAT     H237701   6.839   6.465   1.208
12487WAT      O37702   2.427   7.425   4.443
12487WAT     H137703   2.489   7.385   4.511
12487WAT     H237704   2.456   7.398   4.351
12488WAT      O37705   6.496   1.084   8.199
12488WAT     H137706   6.593   1.072   8.178
12488WAT     H237707   6.445   1.104   8.115
12489WAT      O37708   7.437   8.509   4.743
12489WAT     H137709   7.531   8.540   4.735
12489WAT     H237710   7.399   8.538   4.830
12490WAT      O37711   2.799   5.411   2.451
12490WAT     H137712   2.701   5.423   2.442
12490WAT     H237713   2.839   5.393   2.361
12491WAT      O37714   4.213   5.443   3.110
12491WAT     H137715   4.188   5.390   3.029
12491WAT     H237716   4.256   5.382   3.178
12492WAT      O37717   4.093   8.623   3.655
12492WAT     H137718   4.064   8.538   3.698
12492WAT     H237719   4.043   8.637   3.570
12493WAT      O37720   2.626   8.148   2.325
12493WAT     H137721   2.719   8.114   2.316
12493WAT     H237722   2.562   8.079   2.290
12494WAT      O37723   6.501   6.314   7.744
12494WAT     H137724   6.505   6.285   7.649
12494WAT     H237725   6.507   6.235   7.804
12495WAT      O37726   0.203   7.592   3.852
12495WAT     H137727   0.218   7.559   3.945
12495WAT     H237728   0.113   7.562   3.819
12496WAT      O37729   4.790   1.528   2.470
12496WAT     H137730   4.846   1.600   2.510
12496WAT     H237731   4.846   1.468   2.414
12497WAT      O37732   9.630   3.705   0.135
12497WAT     H137733   9.699   3.774   0.157
12497WAT     H237734   9.588   3.727   0.047
12498WAT      O37735   8.541   8.368   7.804
12498WAT     H137736   8.623   8.326   7.844
12498WAT     H237737   8.471   8.378   7.874
12499WAT      O37738   9.131   6.466   0.285
12499WAT     H137739   9.149   6.381   0.334
12499WAT     H237740   9.071   6.448   0.207
12500WAT      O37741   0.251   4.803   3.486
12500WAT     H137742   0.163   4.838   3.518
12500WAT     H237743   0.236   4.735   3.414
12501WAT      O37744   2.239   3.100   7.341
12501WAT     H137745   2.262   3.133   7.432
12501WAT     H237746   2.145   3.127   7.319
12502WAT      O37747   8.739   7.058   3.035
12502WAT     H137748   8.648   7.042   3.073
12502WAT     H237749   8.749   7.007   2.949
12503WAT      O37750   2.687   8.087   2.595
12503WAT     H137751   2.786   8.084   2.606
12503WAT     H237752   2.664   8.097   2.498
12504WAT      O37753   6.036   0.367   9.817
12504WAT     H137754   6.008   0.462   9.837
12504WAT     H237755   5.982   0.332   9.740
12505WAT      O37756   1.254   2.329   4.695
12505WAT     H137757   1.219   2.235   4.697
12505WAT     H237758   1.303   2.344   4.610
12506WAT      O37759   2.739   9.224   1.859
12506WAT     H137760   2.721   9.322   1.846
12506WAT     H237761   2.746   9.205   1.957
12507WAT      O37762   0.941   4.475   3.570
12507WAT     H137763   0.965   4.512   3.660
12507WAT     H237764   0.856   4.517   3.538
12508WAT      O37765   8.910   0.464   1.067
12508WAT     H137766   8.907   0.415   0.980
12508WAT     H237767   8.956   0.409   1.136
12509WAT      O37768   8.680   6.507   1.216
12509WAT     H137769   8.625   6.505   1.132
12509WAT     H237770   8.621   6.483   1.294
12510WAT      O37771   0.130   2.490   6.472
12510WAT     H137772   0.094   2.583   6.473
12510WAT     H237773   0.185   2.476   6.389
12511WAT      O37774   7.647   0.234   3.289
12511WAT     H137775   7.729   0.212   3.235
12511WAT     H237776   7.615   0.151   3.335
12512WAT      O37777   4.166   6.827   9.353
12512WAT     H137778   4.247   6.786   9.311
12512WAT     H237779   4.154   6.790   9.445
12513WAT      O37780   6.438   0.704   8.224
12513WAT     H137781   6.363   0.733   8.166
12513WAT     H237782   6.470   0.781   8.279
12514WAT      O37783   6.642   8.982   3.839
12514WAT     H137784   6.583   8.989   3.919
12514WAT     H237785   6.731   9.023   3.859
12515WAT      O37786   0.780   7.738   8.477
12515WAT     H137787   0.744   7.681   8.552
12515WAT     H237788   0.817   7.823   8.514
12516WAT      O37789   7.711   8.650   4.714
12516WAT     H137790   7.764   8.679   4.794
12516WAT     H237791   7.753   8.685   4.631
12517WAT      O37792   8.738   1.931   7.150
12517WAT     H137793   8.728   1.832   7.160
12517WAT     H237794   8.718   1.957   7.055
12518WAT      O37795   5.394   4.881   1.301
12518WAT     H137796   5.444   4.919   1.223
12518WAT     H237797   5.337   4.952   1.341
12519WAT      O37798   6.192   7.375   5.138
12519WAT     H137799   6.103   7.416   5.115
12519WAT     H237800   6.231   7.424   5.216
12520WAT      O37801   9.719   1.199   0.656
12520WAT     H137802   9.749   1.115   0.702
12520WAT     H237803   9.632   1.182   0.610
12521WAT      O37804   5.036   5.296   2.402
12521WAT     H137805   4.999   5.297   2.309
12521WAT     H237806   5.084   5.382   2.419
12522WAT      O37807   2.003   0.418   9.393
12522WAT     H137808   1.993   0.485   9.467
12522WAT     H237809   1.965   0.330   9.421
12523WAT      O37810   2.805   2.460   1.340
12523WAT     H137811   2.893   2.499   1.368
12523WAT     H237812   2.771   2.399   1.412
12524WAT      O37813   3.516   5.148   2.497
12524WAT     H137814   3.615   5.143   2.512
12524WAT     H237815   3.469   5.141   2.584
12525WAT      O37816   0.255   0.057   9.772
12525WAT     H137817   0.299   0.144   9.750
12525WAT     H237818   0.156   0.065   9.759
12526WAT      O37819   1.021   8.120   8.169
12526WAT     H137820   1.024   8.208   8.217
12526WAT     H237821   0.944   8.066   8.203
12527WAT      O37822   4.575   5.644   6.541
12527WAT     H137823   4.563   5.742   6.556
12527WAT     H237824   4.526   5.592   6.611
12528WAT      O37825   7.713   1.847   5.368
12528WAT     H137826   7.746   1.755   5.347
12528WAT     H237827   7.711   1.860   5.467
12529WAT      O37828   3.967   4.541   2.014
12529WAT     H137829   3.948   4.446   2.041
12529WAT     H237830   3.880   4.590   2.002
12530WAT      O37831   3.121   4.381   6.169
12530WAT     H137832   3.030   4.355   6.202
12530WAT     H237833   3.115   4.409   6.073
12531WAT      O37834   8.625   5.991   3.941
12531WAT     H137835   8.613   5.974   4.039
12531WAT     H237836   8.573   5.922   3.889
12532WAT      O37837   6.792   4.894   1.626
12532WAT     H137838   6.813   4.797   1.610
12532WAT     H237839   6.694   4.910   1.614
12533WAT      O37840   0.914   0.264   9.519
12533WAT     H137841   0.962   0.216   9.593
12533WAT     H237842   0.872   0.197   9.458
12534WAT      O37843   3.119   8.227   6.778
12534WAT     H137844   3.057   8.150   6.763
12534WAT     H237845   3.066   8.310   6.796
12535WAT      O37846   4.624   4.308   6.894
12535WAT     H137847   4.670   4.388   6.856
12535WAT     H237848   4.526   4.315   6.879
12536WAT      O37849   4.468   0.608   6.583
12536WAT     H137850   4.516   0.679   6.531
12536WAT     H237851   4.376   0.596   6.546
12537WAT      O37852   1.644   3.082   4.144
12537WAT     H137853   1.643   3.173   4.186
12537WAT     H237854   1.684   3.017   4.208
12538WAT      O37855   4.826   1.642   4.914
12538WAT     H137856   4.827   1.598   5.004
12538WAT     H237857   4.904   1.609   4.860
12539WAT      O37858   4.475   7.859   8.838
12539WAT     H137859   4.492   7.889   8.932
12539WAT     H237860   4.551   7.887   8.780
12540WAT      O37861   2.211   8.915   3.665
12540WAT     H137862   2.248   8.826   3.638
12540WAT     H237863   2.124   8.930   3.620
12541WAT      O37864   5.922   2.648   8.470
12541WAT     H137865   5.876   2.559   8.464
12541WAT     H237866   5.945   2.667   8.565
12542WAT      O37867   8.759   0.058   4.069
12542WAT     H137868   8.810  -0.011   4.017
12542WAT     H237869   8.769   0.040   4.167
12543WAT      O37870   4.416   6.574   7.419
12543WAT     H137871   4.494   6.548   7.362
12543WAT     H237872   4.350   6.498   7.420
12544WAT      O37873   6.471   9.661   8.576
12544WAT     H137874   6.538   9.594   8.607
12544WAT     H237875   6.488   9.749   8.620
12545WAT      O37876   2.745   0.727   8.074
12545WAT     H137877   2.805   0.648   8.063
12545WAT     H237878   2.710   0.730   8.167
12546WAT      O37879   1.267   9.156   7.256
12546WAT     H137880   1.168   9.161   7.270
12546WAT     H237881   1.312   9.135   7.343
12547WAT      O37882   8.074   1.451   9.237
12547WAT     H137883   8.004   1.481   9.302
12547WAT     H237884   8.159   1.433   9.287
12548WAT      O37885   7.724   1.630   9.219
12548WAT     H137886   7.787   1.570   9.269
12548WAT     H237887   7.726   1.721   9.259
12549WAT      O37888   0.246   6.260   6.421
12549WAT     H137889   0.213   6.179   6.470
12549WAT     H237890   0.191   6.339   6.447
12550WAT      O37891   0.807   7.930   2.903
12550WAT     H137892   0.898   7.907   2.867
12550WAT     H237893   0.738   7.872   2.860
12551WAT      O37894   3.676   4.432   1.228
12551WAT     H137895   3.669   4.529   1.203
12551WAT     H237896   3.713   4.381   1.151
12552WAT      O37897   6.921   7.793   4.060
12552WAT     H137898   6.917   7.890   4.036
12552WAT     H237899   6.928   7.739   3.977
12553WAT      O37900   4.071   0.596   1.412
12553WAT     H137901   4.054   0.524   1.480
12553WAT     H237902   4.163   0.587   1.377
12554WAT      O37903   6.863   0.750   2.932
12554WAT     H137904   6.934   0.763   2.863
12554WAT     H237905   6.906   0.733   3.021
12555WAT      O37906   7.893   6.041   7.245
12555WAT     H137907   7.832   5.981   7.297
12555WAT     H237908   7.921   5.994   7.161
12556WAT      O37909   6.590   4.890   8.235
12556WAT     H137910   6.633   4.966   8.284
12556WAT     H237911   6.492   4.891   8.253
12557WAT      O37912   4.369   6.951   5.761
12557WAT     H137913   4.392   6.922   5.854
12557WAT     H237914   4.306   6.885   5.720
12558WAT      O37915   3.986   5.468   8.983
12558WAT     H137916   4.014   5.452   9.078
12558WAT     H237917   3.950   5.383   8.945
12559WAT      O37918   4.074   5.554   1.870
12559WAT     H137919   4.052   5.459   1.892
12559WAT     H237920   4.063   5.569   1.772
12560WAT      O37921   5.340   4.635   9.437
12560WAT     H137922   5.252   4.678   9.418
12560WAT     H237923   5.334   4.537   9.420
12561WAT      O37924   4.348   5.656   3.214
12561WAT     H137925   4.302   5.585   3.161
12561WAT     H237926   4.391   5.722   3.152
12562WAT      O37927   6.349   8.547   8.679
12562WAT     H137928   6.396   8.612   8.619
12562WAT     H237929   6.270   8.592   8.721
12563WAT      O37930   7.377   4.230   7.392
12563WAT     H137931   7.409   4.324   7.395
12563WAT     H237932   7.397   4.190   7.302
12564WAT      O37933   1.773   4.416   2.952
12564WAT     H137934   1.843   4.487   2.957
12564WAT     H237935   1.730   4.417   2.862
12565WAT      O37936   4.969   5.264   7.902
12565WAT     H137937   4.969   5.335   7.832
12565WAT     H237938   5.062   5.228   7.913
12566WAT      O37939   8.794   8.549   7.068
12566WAT     H137940   8.698   8.528   7.090
12566WAT     H237941   8.798   8.613   6.991
12567WAT      O37942   4.819   1.825   1.307
12567WAT     H137943   4.753   1.877   1.252
12567WAT     H237944   4.843   1.877   1.389
12568WAT      O37945   1.990   9.738   8.397
12568WAT     H137946   1.906   9.760   8.447
12568WAT     H237947   2.041   9.822   8.378
12569WAT      O37948   8.026   1.031   7.105
12569WAT     H137949   7.969   1.111   7.124
12569WAT     H237950   8.021   0.967   7.181
12570WAT      O37951   2.023   4.271   6.956
12570WAT     H137952   2.079   4.353   6.945
12570WAT     H237953   1.968   4.280   7.039
12571WAT      O37954   9.699   9.229   2.732
12571WAT     H137955   9.706   9.171   2.813
12571WAT     H237956   9.790   9.259   2.703
12572WAT      O37957   5.668   2.567   6.111
12572WAT     H137958   5.750   2.582   6.167
12572WAT     H237959   5.695   2.526   6.024
12573WAT      O37960   5.040   8.774   0.594
12573WAT     H137961   5.041   8.676   0.574
12573WAT     H237962   5.114   8.797   0.657
12574WAT      O37963   4.813   4.144   6.754
12574WAT     H137964   4.740   4.170   6.818
12574WAT     H237965   4.790   4.055   6.712
12575WAT      O37966   4.119   6.096   5.828
12575WAT     H137967   4.172   6.127   5.906
12575WAT     H237968   4.051   6.166   5.804
12576WAT      O37969   5.528   2.908   2.173
12576WAT     H137970   5.428   2.914   2.168
12576WAT     H237971   5.555   2.812   2.174
12577WAT      O37972   0.266   6.842   9.034
12577WAT     H137973   0.183   6.837   9.090
12577WAT     H237974   0.346   6.851   9.093
12578WAT      O37975   6.607   0.693   3.500
12578WAT     H137976   6.583   0.672   3.595
12578WAT     H237977   6.608   0.609   3.446
12579WAT      O37978   0.734   3.429   1.777
12579WAT     H137979   0.658   3.377   1.738
12579WAT     H237980   0.782   3.477   1.704
12580WAT      O37981   2.162   3.781   8.621
12580WAT     H137982   2.097   3.738   8.559
12580WAT     H237983   2.128   3.871   8.647
12581WAT      O37984   6.525   0.542   8.623
12581WAT     H137985   6.453   0.483   8.588
12581WAT     H237986   6.570   0.590   8.548
12582WAT      O37987   0.170   4.275   3.558
12582WAT     H137988   0.161   4.183   3.523
12582WAT     H237989   0.088   4.299   3.611
12583WAT      O37990   6.376   5.853   3.757
12583WAT     H137991   6.360   5.940   3.711
12583WAT     H237992   6.470   5.823   3.740
12584WAT      O37993   5.798   0.648   3.773
12584WAT     H137994   5.897   0.662   3.771
12584WAT     H237995   5.752   0.737   3.766
12585WAT      O37996   6.921   9.245   3.237
12585WAT     H137997   6.845   9.307   3.256
12585WAT     H237998   6.993   9.294   3.189
12586WAT      O37999   7.636   9.622   1.877
12586WAT     H138000   7.691   9.655   1.953
12586WAT     H238001   7.604   9.529   1.896
12587WAT      O38002   3.013   5.705   9.203
12587WAT     H138003   3.013   5.736   9.108
12587WAT     H238004   2.975   5.613   9.208
12588WAT      O38005   1.531   0.252   8.909
12588WAT     H138006   1.451   0.220   8.858
12588WAT     H238007   1.602   0.182   8.905
12589WAT      O38008   1.025   4.722   2.140
12589WAT     H138009   1.017   4.760   2.048
12589WAT     H238010   1.022   4.796   2.207
12590WAT      O38011   0.127   2.413   3.449
12590WAT     H138012   0.151   2.414   3.352
12590WAT     H238013   0.200   2.456   3.502
12591WAT      O38014   2.630   5.611   8.826
12591WAT     H138015   2.567   5.650   8.893
12591WAT     H238016   2.581   5.546   8.768
12592WAT      O38017   2.363   6.359   8.952
12592WAT     H138018   2.344   6.388   8.858
12592WAT     H238019   2.289   6.388   9.012
12593WAT      O38020   4.808   6.919   2.062
12593WAT     H138021   4.799   6.903   1.963
12593WAT     H238022   4.905   6.930   2.085
12594WAT      O38023   5.556   9.801   9.338
12594WAT     H138024   5.466   9.807   9.382
12594WAT     H238025   5.596   9.711   9.354
12595WAT      O38026   3.015   9.132   4.343
12595WAT     H138027   3.010   9.227   4.372
12595WAT     H238028   3.014   9.073   4.424
12596WAT      O38029   8.818   8.620   3.508
12596WAT     H138030   8.815   8.716   3.480
12596WAT     H238031   8.912   8.586   3.502
12597WAT      O38032   9.407   4.052   5.274
12597WAT     H138033   9.433   4.031   5.179
12597WAT     H238034   9.318   4.098   5.275
12598WAT      O38035   4.174   4.626   6.806
12598WAT     H138036   4.111   4.616   6.728
12598WAT     H238037   4.122   4.617   6.891
12599WAT      O38038   7.193   1.584   5.129
12599WAT     H138039   7.155   1.503   5.084
12599WAT     H238040   7.221   1.651   5.060
12600WAT      O38041   5.293   5.063   8.564
12600WAT     H138042   5.207   5.037   8.608
12600WAT     H238043   5.298   5.163   8.555
12601WAT      O38044   0.216   0.889   6.111
12601WAT     H138045   0.211   0.934   6.022
12601WAT     H238046   0.162   0.805   6.109
12602WAT      O38047   1.598   8.018   1.233
12602WAT     H138048   1.668   7.951   1.210
12602WAT     H238049   1.633   8.079   1.305
12603WAT      O38050   7.778   1.578   5.282
12603WAT     H138051   7.695   1.535   5.316
12603WAT     H238052   7.852   1.512   5.280
12604WAT      O38053   3.736   9.350   9.327
12604WAT     H138054   3.828   9.386   9.346
12604WAT     H238055   3.727   9.335   9.228
12605WAT      O38056   7.457   1.955   1.403
12605WAT     H138057   7.502   2.037   1.436
12605WAT     H238058   7.397   1.918   1.474
12606WAT      O38059   5.511   3.451   0.070
12606WAT     H138060   5.484   3.546   0.082
12606WAT     H238061   5.603   3.446   0.033
12607WAT      O38062   1.728   5.877   2.014
12607WAT     H138063   1.804   5.880   1.949
12607WAT     H238064   1.643   5.898   1.967
12608WAT      O38065   5.870   3.647   1.459
12608WAT     H138066   5.888   3.637   1.361
12608WAT     H238067   5.870   3.557   1.502
12609WAT      O38068   3.062   7.005   0.598
12609WAT     H138069   2.978   7.055   0.617
12609WAT     H238070   3.050   6.950   0.515
12610WAT      O38071   7.492   8.624   1.464
12610WAT     H138072   7.487   8.524   1.461
12610WAT     H238073   7.400   8.662   1.455
12611WAT      O38074   8.530   4.724   4.205
12611WAT     H138075   8.510   4.793   4.135
12611WAT     H238076   8.613   4.749   4.254
12612WAT      O38077   6.532   8.854   4.312
12612WAT     H138078   6.571   8.947   4.306
12612WAT     H238079   6.461   8.844   4.242
12613WAT      O38080   2.649   8.961   2.207
12613WAT     H138081   2.676   8.993   2.298
12613WAT     H238082   2.625   8.864   2.211
12614WAT      O38083   3.464   9.240   9.679
12614WAT     H138084   3.380   9.261   9.728
12614WAT     H238085   3.541   9.243   9.743
12615WAT      O38086   7.800   5.121   0.994
12615WAT     H138087   7.841   5.089   1.079
12615WAT     H238088   7.709   5.158   1.013
12616WAT      O38089   5.411   2.580   7.453
12616WAT     H138090   5.475   2.593   7.528
12616WAT     H238091   5.417   2.486   7.419
12617WAT      O38092   9.085   8.578   4.766
12617WAT     H138093   9.074   8.677   4.768
12617WAT     H238094   9.083   8.546   4.671
12618WAT      O38095   1.871   3.792   2.946
12618WAT     H138096   1.911   3.856   3.012
12618WAT     H238097   1.805   3.733   2.992
12619WAT      O38098   2.471   8.588   4.411
12619WAT     H138099   2.559   8.542   4.396
12619WAT     H238100   2.399   8.539   4.362
12620WAT      O38101   3.491   1.655   8.392
12620WAT     H138102   3.507   1.571   8.340
12620WAT     H238103   3.570   1.674   8.450
12621WAT      O38104   7.285   3.620   8.290
12621WAT     H138105   7.218   3.606   8.363
12621WAT     H238106   7.368   3.659   8.329
12622WAT      O38107   9.225   4.992   3.965
12622WAT     H138108   9.274   5.021   4.048
12622WAT     H238109   9.195   5.072   3.914
12623WAT      O38110   5.089   3.280   8.255
12623WAT     H138111   5.032   3.258   8.334
12623WAT     H238112   5.169   3.219   8.253
12624WAT      O38113   5.573   7.612   2.349
12624WAT     H138114   5.526   7.625   2.261
12624WAT     H238115   5.669   7.637   2.339
12625WAT      O38116   2.971   1.021   7.466
12625WAT     H138117   2.961   0.924   7.449
12625WAT     H238118   3.057   1.038   7.515
12626WAT      O38119   0.210   2.454   6.193
12626WAT     H138120   0.178   2.369   6.151
12626WAT     H238121   0.309   2.461   6.184
12627WAT      O38122   0.603   1.516   2.854
12627WAT     H138123   0.562   1.589   2.800
12627WAT     H238124   0.660   1.555   2.926
12628WAT      O38125   9.207   2.770   2.870
12628WAT     H138126   9.287   2.709   2.873
12628WAT     H238127   9.227   2.853   2.922
12629WAT      O38128   9.079   1.024   5.136
12629WAT     H138129   9.037   0.938   5.164
12629WAT     H238130   9.057   1.095   5.202
12630WAT      O38131   1.708   8.215   2.204
12630WAT     H138132   1.779   8.278   2.174
12630WAT     H238133   1.622   8.238   2.158
12631WAT      O38134   3.459   5.470   5.185
12631WAT     H138135   3.415   5.380   5.183
12631WAT     H238136   3.541   5.465   5.241
12632WAT      O38137   8.104   9.105   7.293
12632WAT     H138138   8.055   9.061   7.217
12632WAT     H238139   8.076   9.063   7.379
12633WAT      O38140   4.645   4.201   3.420
12633WAT     H138141   4.660   4.292   3.383
12633WAT     H238142   4.550   4.174   3.403
12634WAT      O38143   7.181   3.427   3.283
12634WAT     H138144   7.259   3.457   3.339
12634WAT     H238145   7.119   3.373   3.339
12635WAT      O38146   3.163   8.901   5.385
12635WAT     H138147   3.174   8.991   5.343
12635WAT     H238148   3.077   8.860   5.354
12636WAT      O38149   6.005   1.761   2.058
12636WAT     H138150   6.073   1.723   2.120
12636WAT     H238151   6.035   1.747   1.963
12637WAT      O38152   9.322   6.680   8.463
12637WAT     H138153   9.339   6.586   8.492
12637WAT     H238154   9.257   6.723   8.525
12638WAT      O38155   3.641   5.198   2.105
12638WAT     H138156   3.714   5.262   2.131
12638WAT     H238157   3.604   5.226   2.016
12639WAT      O38158   1.916   5.040   2.677
12639WAT     H138159   1.931   5.136   2.698
12639WAT     H238160   1.819   5.024   2.662
12640WAT      O38161   6.275   2.259   6.419
12640WAT     H138162   6.188   2.211   6.421
12640WAT     H238163   6.300   2.278   6.324
12641WAT      O38164   4.411   5.401   5.670
12641WAT     H138165   4.472   5.347   5.728
12641WAT     H238166   4.381   5.482   5.720
12642WAT      O38167   0.682   9.006   5.105
12642WAT     H138168   0.738   9.073   5.152
12642WAT     H238169   0.607   8.976   5.165
12643WAT      O38170   8.271   8.180   2.724
12643WAT     H138171   8.355   8.180   2.670
12643WAT     H238172   8.193   8.164   2.664
12644WAT      O38173   8.163   9.023   4.665
12644WAT     H138174   8.263   9.026   4.661
12644WAT     H238175   8.134   8.979   4.750
12645WAT      O38176   9.178   8.138   1.866
12645WAT     H138177   9.203   8.201   1.940
12645WAT     H238178   9.259   8.119   1.810
12646WAT      O38179   5.651   9.648   4.255
12646WAT     H138180   5.625   9.565   4.304
12646WAT     H238181   5.658   9.724   4.319
12647WAT      O38182   0.389   4.162   4.537
12647WAT     H138183   0.362   4.161   4.441
12647WAT     H238184   0.384   4.069   4.574
12648WAT      O38185   6.429   7.622   8.966
12648WAT     H138186   6.514   7.611   8.914
12648WAT     H238187   6.376   7.699   8.929
12649WAT      O38188   8.024   3.534   9.688
12649WAT     H138189   8.099   3.502   9.746
12649WAT     H238190   8.060   3.561   9.599
12650WAT      O38191   6.187   7.417   7.175
12650WAT     H138192   6.155   7.478   7.102
12650WAT     H238193   6.131   7.334   7.175
12651WAT      O38194   8.963   8.300   0.239
12651WAT     H138195   8.896   8.273   0.169
12651WAT     H238196   8.941   8.253   0.324
12652WAT      O38197   2.825   8.752   7.115
12652WAT     H138198   2.760   8.683   7.084
12652WAT     H238199   2.909   8.707   7.146
12653WAT      O38200   6.206   9.372   3.586
12653WAT     H138201   6.300   9.346   3.604
12653WAT     H238202   6.163   9.305   3.525
12654WAT      O38203   7.091   1.256   5.628
12654WAT     H138204   7.042   1.262   5.715
12654WAT     H238205   7.060   1.329   5.567
12655WAT      O38206   8.956   0.443   6.570
12655WAT     H138207   9.053   0.419   6.577
12655WAT     H238208   8.911   0.377   6.509
12656WAT      O38209   5.706   6.355   6.892
12656WAT     H138210   5.687   6.336   6.988
12656WAT     H238211   5.626   6.399   6.850
12657WAT      O38212   9.015   2.717   8.765
12657WAT     H138213   9.028   2.813   8.740
12657WAT     H238214   9.003   2.663   8.682
12658WAT      O38215   3.068   0.181   4.762
12658WAT     H138216   2.978   0.145   4.739
12658WAT     H238217   3.059   0.247   4.837
12659WAT      O38218   3.290   8.561   7.905
12659WAT     H138219   3.315   8.623   7.831
12659WAT     H238220   3.370   8.543   7.962
12660WAT      O38221   8.392   2.138   9.216
12660WAT     H138222   8.473   2.118   9.161
12660WAT     H238223   8.347   2.220   9.181
12661WAT      O38224   5.544   8.957   1.682
12661WAT     H138225   5.456   8.997   1.656
12661WAT     H238226   5.587   8.917   1.601
12662WAT      O38227   5.172   4.955   3.447
12662WAT     H138228   5.250   5.018   3.441
12662WAT     H238229   5.108   4.974   3.373
12663WAT      O38230   5.920   0.327   3.125
12663WAT     H138231   5.986   0.379   3.180
12663WAT     H238232   5.845   0.297   3.183
12664WAT      O38233   3.198   1.707   2.286
12664WAT     H138234   3.129   1.779   2.298
12664WAT     H238235   3.288   1.745   2.306
12665WAT      O38236   2.814   3.428   5.620
12665WAT     H138237   2.797   3.522   5.648
12665WAT     H238238   2.907   3.420   5.583
12666WAT      O38239   4.083   7.802   7.007
12666WAT     H138240   4.023   7.725   6.989
12666WAT     H238241   4.129   7.790   7.095
12667WAT      O38242   9.461   3.791   8.805
12667WAT     H138243   9.556   3.783   8.775
12667WAT     H238244   9.456   3.773   8.903
12668WAT      O38245   6.033   3.777   8.114
12668WAT     H138246   6.047   3.743   8.207
12668WAT     H238247   5.949   3.738   8.076
12669WAT      O38248   7.686   0.079   4.678
12669WAT     H138249   7.636   0.052   4.760
12669WAT     H238250   7.781   0.098   4.702
12670WAT      O38251   7.350   0.598   7.597
12670WAT     H138252   7.407   0.547   7.663
12670WAT     H238253   7.334   0.691   7.633
12671WAT      O38254   2.358   9.086   8.688
12671WAT     H138255   2.368   9.175   8.732
12671WAT     H238256   2.264   9.054   8.699
12672WAT      O38257   7.407   0.941   8.960
12672WAT     H138258   7.447   0.854   8.989
12672WAT     H238259   7.311   0.928   8.935
12673WAT      O38260   6.751   5.994   6.563
12673WAT     H138261   6.817   5.982   6.489
12673WAT     H238262   6.749   6.090   6.590
12674WAT      O38263   2.572   5.876   3.929
12674WAT     H138264   2.582   5.941   3.854
12674WAT     H238265   2.637   5.898   4.001
12675WAT      O38266   5.502   9.346   7.803
12675WAT     H138267   5.404   9.336   7.786
12675WAT     H238268   5.518   9.349   7.902
12676WAT      O38269   3.722   1.120   7.803
12676WAT     H138270   3.769   1.209   7.800
12676WAT     H238271   3.692   1.095   7.710
12677WAT      O38272   7.395   0.860   1.136
12677WAT     H138273   7.442   0.772   1.134
12677WAT     H238274   7.395   0.895   1.230
12678WAT      O38275   8.008   1.881   6.048
12678WAT     H138276   7.955   1.951   6.001
12678WAT     H238277   8.039   1.915   6.136
12679WAT      O38278   0.969   1.426   8.452
12679WAT     H138279   1.041   1.456   8.515
12679WAT     H238280   1.001   1.437   8.358
12680WAT      O38281   8.384   4.541   9.356
12680WAT     H138282   8.479   4.541   9.324
12680WAT     H238283   8.378   4.596   9.440
12681WAT      O38284   5.099   7.261   9.034
12681WAT     H138285   5.018   7.299   9.080
12681WAT     H238286   5.179   7.272   9.093
12682WAT      O38287   6.736   9.402   9.434
12682WAT     H138288   6.716   9.470   9.505
12682WAT     H238289   6.726   9.310   9.473
12683WAT      O38290   3.736   9.170   7.310
12683WAT     H138291   3.739   9.222   7.395
12683WAT     H238292   3.662   9.204   7.252
12684WAT      O38293   4.180   1.228   6.222
12684WAT     H138294   4.202   1.289   6.146
12684WAT     H238295   4.161   1.136   6.188
12685WAT      O38296   8.084   1.732   4.817
12685WAT     H138297   8.041   1.687   4.895
12685WAT     H238298   8.176   1.760   4.841
12686WAT      O38299   4.392   9.819   9.720
12686WAT     H138300   4.474   9.793   9.669
12686WAT     H238301   4.412   9.898   9.778
12687WAT      O38302   7.762   4.484   1.430
12687WAT     H138303   7.776   4.580   1.453
12687WAT     H238304   7.704   4.441   1.499
12688WAT      O38305   1.563   9.480   3.395
12688WAT     H138306   1.656   9.469   3.360
12688WAT     H238307   1.535   9.576   3.387
12689WAT      O38308   0.806   8.926   2.746
12689WAT     H138309   0.881   8.862   2.729
12689WAT     H238310   0.743   8.927   2.668
12690WAT      O38311   1.832   8.438   9.498
12690WAT     H138312   1.859   8.359   9.554
12690WAT     H238313   1.899   8.450   9.425
12691WAT      O38314   5.647   2.050   1.291
12691WAT     H138315   5.593   2.003   1.361
12691WAT     H238316   5.663   2.145   1.320
12692WAT      O38317   8.886   6.496   3.330
12692WAT     H138318   8.802   6.443   3.319
12692WAT     H238319   8.954   6.442   3.380
12693WAT      O38320   5.303   3.864   1.788
12693WAT     H138321   5.359   3.871   1.705
12693WAT     H238322   5.300   3.769   1.818
12694WAT      O38323   9.141   7.338   6.773
12694WAT     H138324   9.104   7.431   6.772
12694WAT     H238325   9.124   7.296   6.862
12695WAT      O38326   0.667   9.338   9.866
12695WAT     H138327   0.725   9.419   9.876
12695WAT     H238328   0.576   9.366   9.836
12696WAT      O38329   2.921   6.973   3.294
12696WAT     H138330   2.957   6.881   3.278
12696WAT     H238331   2.909   7.020   3.206
12697WAT      O38332   4.366   7.080   4.608
12697WAT     H138333   4.272   7.062   4.578
12697WAT     H238334   4.430   7.047   4.538
12698WAT      O38335   8.000   6.594   5.138
12698WAT     H138336   7.942   6.642   5.203
12698WAT     H238337   7.943   6.551   5.068
12699WAT      O38338   8.823   5.013   5.773
12699WAT     H138339   8.896   5.000   5.840
12699WAT     H238340   8.859   5.059   5.692
12700WAT      O38341   3.762   3.982   0.037
12700WAT     H138342   3.786   3.961  -0.057
12700WAT     H238343   3.738   4.079   0.045
12701WAT      O38344   8.413   3.487   5.597
12701WAT     H138345   8.424   3.477   5.498
12701WAT     H238346   8.462   3.569   5.628
12702WAT      O38347   1.362   7.286   7.383
12702WAT     H138348   1.293   7.269   7.312
12702WAT     H238349   1.448   7.314   7.340
12703WAT      O38350   7.412   6.460   5.833
12703WAT     H138351   7.452   6.534   5.888
12703WAT     H238352   7.314   6.453   5.852
12704WAT      O38353   0.219   7.038   2.975
12704WAT     H138354   0.249   7.002   2.887
12704WAT     H238355   0.225   6.965   3.044
12705WAT      O38356   6.721   4.664   8.168
12705WAT     H138357   6.694   4.602   8.242
12705WAT     H238358   6.667   4.748   8.174
12706WAT      O38359   3.487   7.835   8.310
12706WAT     H138360   3.428   7.857   8.388
12706WAT     H238361   3.564   7.780   8.342
12707WAT      O38362   2.719   3.491   6.857
12707WAT     H138363   2.792   3.447   6.909
12707WAT     H238364   2.735   3.589   6.852
12708WAT      O38365   7.723   7.003   4.083
12708WAT     H138366   7.820   7.003   4.060
12708WAT     H238367   7.676   7.073   4.030
12709WAT      O38368   4.109   6.571   9.469
12709WAT     H138369   4.107   6.544   9.372
12709WAT     H238370   4.113   6.489   9.526
12710WAT      O38371   6.632   3.970   2.548
12710WAT     H138372   6.609   3.889   2.494
12710WAT     H238373   6.556   4.035   2.545
12711WAT      O38374   4.323   3.081   2.987
12711WAT     H138375   4.246   3.118   2.935
12711WAT     H238376   4.289   3.025   3.062
12712WAT      O38377   1.535   1.339   6.290
12712WAT     H138378   1.612   1.397   6.264
12712WAT     H238379   1.543   1.251   6.244
12713WAT      O38380   6.823   1.438   2.467
12713WAT     H138381   6.906   1.435   2.410
12713WAT     H238382   6.838   1.382   2.549
12714WAT      O38383   3.796   3.510   7.362
12714WAT     H138384   3.713   3.490   7.414
12714WAT     H238385   3.863   3.554   7.423
12715WAT      O38386   3.596   9.238   5.761
12715WAT     H138387   3.577   9.151   5.716
12715WAT     H238388   3.567   9.313   5.701
12716WAT      O38389   4.811   8.751   5.075
12716WAT     H138390   4.891   8.782   5.126
12716WAT     H238391   4.839   8.680   5.010
12717WAT      O38392   3.522   4.457   2.841
12717WAT     H138393   3.551   4.402   2.920
12717WAT     H238394   3.423   4.471   2.845
12718WAT      O38395   0.812   9.064   0.251
12718WAT     H138396   0.810   9.158   0.284
12718WAT     H238397   0.802   9.064   0.151
12719WAT      O38398   9.444   4.630   7.160
12719WAT     H138399   9.457   4.689   7.239
12719WAT     H238400   9.468   4.536   7.184
12720WAT      O38401   9.652   9.406   9.341
12720WAT     H138402   9.644   9.457   9.427
12720WAT     H238403   9.739   9.428   9.297
12721WAT      O38404   1.755   0.653   2.857
12721WAT     H138405   1.721   0.721   2.792
12721WAT     H238406   1.692   0.646   2.934
12722WAT      O38407   0.879   6.572   1.672
12722WAT     H138408   0.955   6.561   1.609
12722WAT     H238409   0.904   6.640   1.741
12723WAT      O38410   2.691   4.829   1.144
12723WAT     H138411   2.652   4.917   1.115
12723WAT     H238412   2.632   4.755   1.112
12724WAT      O38413   6.377   0.808   3.349
12724WAT     H138414   6.318   0.727   3.345
12724WAT     H238415   6.464   0.785   3.392
12725WAT      O38416   8.722   1.074   4.713
12725WAT     H138417   8.809   1.123   4.705
12725WAT     H238418   8.652   1.136   4.747
12726WAT      O38419   1.689   2.508   4.387
12726WAT     H138420   1.750   2.512   4.308
12726WAT     H238421   1.607   2.457   4.363
12727WAT      O38422   1.020   1.654   3.386
12727WAT     H138423   1.004   1.555   3.381
12727WAT     H238424   1.005   1.694   3.295
12728WAT      O38425   7.203   5.559   4.681
12728WAT     H138426   7.206   5.654   4.713
12728WAT     H238427   7.247   5.500   4.748
12729WAT      O38428   4.634   5.961   9.614
12729WAT     H138429   4.599   6.030   9.550
12729WAT     H238430   4.560   5.898   9.639
12730WAT      O38431   2.556   0.705   3.407
12730WAT     H138432   2.549   0.692   3.506
12730WAT     H238433   2.596   0.794   3.388
12731WAT      O38434   3.134   1.396   1.221
12731WAT     H138435   3.161   1.489   1.196
12731WAT     H238436   3.182   1.330   1.164
12732WAT      O38437   9.783   2.058   2.037
12732WAT     H138438   9.881   2.039   2.044
12732WAT     H238439   9.752   2.035   1.945
12733WAT      O38440   6.018   3.143   5.748
12733WAT     H138441   6.098   3.202   5.752
12733WAT     H238442   6.026   3.071   5.818
12734WAT      O38443   3.229   1.530   7.194
12734WAT     H138444   3.134   1.513   7.221
12734WAT     H238445   3.290   1.512   7.271
12735WAT      O38446   2.129   6.830   9.555
12735WAT     H138447   2.199   6.897   9.583
12735WAT     H238448   2.038   6.870   9.569
12736WAT      O38449   8.198   2.181   0.912
12736WAT     H138450   8.198   2.084   0.888
12736WAT     H238451   8.135   2.231   0.852
12737WAT      O38452   0.867   5.229   2.942
12737WAT     H138453   0.950   5.278   2.969
12737WAT     H238454   0.824   5.189   3.023
12738WAT      O38455   3.343   7.371   0.667
12738WAT     H138456   3.333   7.448   0.604
12738WAT     H238457   3.317   7.286   0.621
12739WAT      O38458   6.053   3.539   3.064
12739WAT     H138459   6.057   3.577   3.156
12739WAT     H238460   6.099   3.600   3.000
12740WAT      O38461   7.431   6.508   8.355
12740WAT     H138462   7.421   6.409   8.348
12740WAT     H238463   7.452   6.533   8.449
12741WAT      O38464   7.888   5.996   0.653
12741WAT     H138465   7.917   5.966   0.744
12741WAT     H238466   7.827   5.927   0.614
12742WAT      O38467   9.773   1.661   4.907
12742WAT     H138468   9.786   1.754   4.942
12742WAT     H238469   9.857   1.608   4.920
12743WAT      O38470   9.808   4.373   2.948
12743WAT     H138471   9.884   4.329   2.902
12743WAT     H238472   9.811   4.472   2.932
12744WAT      O38473   5.001   6.791   8.487
12744WAT     H138474   4.907   6.814   8.459
12744WAT     H238475   5.029   6.852   8.562
12745WAT      O38476   7.368   0.929   7.005
12745WAT     H138477   7.317   0.872   6.941
12745WAT     H238478   7.466   0.918   6.990
12746WAT      O38479   6.718   0.622   6.161
12746WAT     H138480   6.652   0.577   6.222
12746WAT     H238481   6.694   0.719   6.152
12747WAT      O38482   3.047   9.379   6.067
12747WAT     H138483   3.123   9.444   6.063
12747WAT     H238484   2.976   9.414   6.128
12748WAT      O38485   3.983   2.446   3.113
12748WAT     H138486   3.921   2.385   3.162
12748WAT     H238487   4.071   2.451   3.162
12749WAT      O38488   7.544   3.780   5.414
12749WAT     H138489   7.547   3.709   5.484
12749WAT     H238490   7.449   3.795   5.385
12750WAT      O38491   2.259   3.611   4.252
12750WAT     H138492   2.326   3.545   4.288
12750WAT     H238493   2.238   3.588   4.157
12751WAT      O38494   2.298   7.782   6.896
12751WAT     H138495   2.357   7.850   6.853
12751WAT     H238496   2.299   7.697   6.842
12752WAT      O38497   3.548   8.915   9.301
12752WAT     H138498   3.475   8.982   9.313
12752WAT     H238499   3.584   8.921   9.208
12753WAT      O38500   3.439   8.969   1.597
12753WAT     H138501   3.524   8.999   1.553
12753WAT     H238502   3.429   8.870   1.585
12754WAT      O38503   5.179   0.878   6.939
12754WAT     H138504   5.124   0.843   7.014
12754WAT     H238505   5.119   0.920   6.871
12755WAT      O38506   6.864   7.038   7.114
12755WAT     H138507   6.812   7.099   7.174
12755WAT     H238508   6.858   6.945   7.149
12756WAT      O38509   8.581   5.152   0.209
12756WAT     H138510   8.641   5.092   0.155
12756WAT     H238511   8.528   5.210   0.147
12757WAT      O38512   1.850   0.283   7.096
12757WAT     H138513   1.893   0.198   7.064
12757WAT     H238514   1.755   0.264   7.120
12758WAT      O38515   2.902   1.059   1.343
12758WAT     H138516   2.971   1.040   1.272
12758WAT     H238517   2.915   1.152   1.378
12759WAT      O38518   1.491   1.794   5.273
12759WAT     H138519   1.516   1.701   5.245
12759WAT     H238520   1.568   1.855   5.258
12760WAT      O38521   2.331   4.236   6.711
12760WAT     H138522   2.297   4.321   6.671
12760WAT     H238523   2.319   4.161   6.646
12761WAT      O38524   3.030   1.973   0.118
12761WAT     H138525   2.941   1.931   0.100
12761WAT     H238526   3.051   1.965   0.215
12762WAT      O38527   3.758   7.817   1.414
12762WAT     H138528   3.843   7.821   1.360
12762WAT     H238529   3.728   7.722   1.422
12763WAT      O38530   8.295   1.114   1.013
12763WAT     H138531   8.237   1.033   1.002
12763WAT     H238532   8.258   1.189   0.959
12764WAT      O38533   1.468   1.533   3.394
12764WAT     H138534   1.489   1.439   3.370
12764WAT     H238535   1.548   1.590   3.378
12765WAT      O38536   8.779   2.818   4.044
12765WAT     H138537   8.762   2.724   4.011
12765WAT     H238538   8.776   2.881   3.966
12766WAT      O38539   7.582   2.106   1.810
12766WAT     H138540   7.632   2.025   1.781
12766WAT     H238541   7.485   2.084   1.823
12767WAT      O38542   1.394   9.370   3.570
12767WAT     H138543   1.461   9.409   3.507
12767WAT     H238544   1.393   9.422   3.655
12768WAT      O38545   9.454   6.839   5.585
12768WAT     H138546   9.546   6.843   5.623
12768WAT     H238547   9.387   6.839   5.660
12769WAT      O38548   5.984   5.599   7.960
12769WAT     H138549   6.034   5.550   8.031
12769WAT     H238550   5.960   5.690   7.993
12770WAT      O38551   5.795   7.614   7.343
12770WAT     H138552   5.767   7.606   7.438
12770WAT     H238553   5.732   7.562   7.285
12771WAT      O38554   2.989   6.130   6.465
12771WAT     H138555   2.940   6.103   6.548
12771WAT     H238556   3.041   6.214   6.484
12772WAT      O38557   4.625   0.882   8.910
12772WAT     H138558   4.552   0.813   8.908
12772WAT     H238559   4.689   0.861   8.983
12773WAT      O38560   8.141   5.305   6.996
12773WAT     H138561   8.115   5.284   7.090
12773WAT     H238562   8.167   5.402   6.990
12774WAT      O38563   8.559   6.276   8.117
12774WAT     H138564   8.602   6.349   8.065
12774WAT     H238565   8.593   6.188   8.085
12775WAT      O38566   2.087   6.974   4.651
12775WAT     H138567   2.173   7.023   4.667
12775WAT     H238568   2.102   6.901   4.584
12776WAT      O38569   4.030   0.656   3.006
12776WAT     H138570   4.041   0.745   3.051
12776WAT     H238571   3.942   0.616   3.031
12777WAT      O38572   3.744   1.090   3.101
12777WAT     H138573   3.740   1.099   3.200
12777WAT     H238574   3.801   1.164   3.063
12778WAT      O38575   5.265   2.712   0.533
12778WAT     H138576   5.321   2.753   0.605
12778WAT     H238577   5.283   2.614   0.528
12779WAT      O38578   1.269   5.682   8.607
12779WAT     H138579   1.306   5.687   8.700
12779WAT     H238580   1.182   5.635   8.609
12780WAT      O38581   7.812   0.436   6.964
12780WAT     H138582   7.738   0.397   6.909
12780WAT     H238583   7.784   0.443   7.059
12781WAT      O38584   8.628   2.537   2.684
12781WAT     H138585   8.535   2.555   2.650
12781WAT     H238586   8.694   2.567   2.615
12782WAT      O38587   4.452   8.526   5.905
12782WAT     H138588   4.440   8.623   5.930
12782WAT     H238589   4.530   8.488   5.955
12783WAT      O38590   0.259   8.847   2.520
12783WAT     H138591   0.217   8.925   2.566
12783WAT     H238592   0.325   8.879   2.452
12784WAT      O38593   2.669   5.332   8.474
12784WAT     H138594   2.689   5.403   8.407
12784WAT     H238595   2.682   5.242   8.431
12785WAT      O38596   1.030   0.316   5.585
12785WAT     H138597   1.034   0.365   5.498
12785WAT     H238598   1.099   0.353   5.647
12786WAT      O38599   6.612   1.900   4.992
12786WAT     H138600   6.607   1.969   5.064
12786WAT     H238601   6.691   1.920   4.934
12787WAT      O38602   6.026   6.134   1.241
12787WAT     H138603   5.946   6.133   1.301
12787WAT     H238604   6.107   6.108   1.293
12788WAT      O38605   9.021   3.714   9.383
12788WAT     H138606   9.044   3.750   9.474
12788WAT     H238607   9.089   3.646   9.356
12789WAT      O38608   8.151   2.936   3.390
12789WAT     H138609   8.176   3.031   3.370
12789WAT     H238610   8.054   2.931   3.413
12790WAT      O38611   4.476   3.277   2.266
12790WAT     H138612   4.464   3.368   2.225
12790WAT     H238613   4.388   3.230   2.270
12791WAT      O38614   7.009   3.769   2.316
12791WAT     H138615   7.005   3.669   2.309
12791WAT     H238616   6.975   3.798   2.405
12792WAT      O38617   4.754   4.054   3.854
12792WAT     H138618   4.688   4.028   3.783
12792WAT     H238619   4.803   4.137   3.824
12793WAT      O38620   3.707   9.099   0.994
12793WAT     H138621   3.770   9.057   1.059
12793WAT     H238622   3.739   9.192   0.973
12794WAT      O38623   8.836   7.913   4.970
12794WAT     H138624   8.921   7.963   4.983
12794WAT     H238625   8.771   7.970   4.921
12795WAT      O38626   1.127   6.187   8.252
12795WAT     H138627   1.031   6.176   8.225
12795WAT     H238628   1.169   6.260   8.197
12796WAT      O38629   5.835   6.990   8.747
12796WAT     H138630   5.746   7.035   8.737
12796WAT     H238631   5.823   6.892   8.755
12797WAT      O38632   7.032   0.465   8.803
12797WAT     H138633   7.080   0.399   8.744
12797WAT     H238634   6.934   0.450   8.796
12798WAT      O38635   3.010   6.292   5.101
12798WAT     H138636   3.052   6.249   5.021
12798WAT     H238637   3.080   6.341   5.153
12799WAT      O38638   1.598   4.740   7.521
12799WAT     H138639   1.669   4.795   7.566
12799WAT     H238640   1.508   4.771   7.550
12800WAT      O38641   6.321   9.308   0.915
12800WAT     H138642   6.323   9.213   0.885
12800WAT     H238643   6.303   9.368   0.837
12801WAT      O38644   7.819   1.993   8.393
12801WAT     H138645   7.748   1.932   8.430
12801WAT     H238646   7.790   2.088   8.403
12802WAT      O38647   3.371   3.122   8.333
12802WAT     H138648   3.438   3.137   8.260
12802WAT     H238649   3.416   3.077   8.411
12803WAT      O38650   4.562   1.310   0.073
12803WAT     H138651   4.563   1.356   0.162
12803WAT     H238652   4.642   1.336   0.020
12804WAT      O38653   6.893   6.913   4.501
12804WAT     H138654   6.815   6.900   4.562
12804WAT     H238655   6.912   6.827   4.453
12805WAT      O38656   1.443   6.249   2.951
12805WAT     H138657   1.359   6.262   2.899
12805WAT     H238658   1.515   6.308   2.915
12806WAT      O38659   5.547   3.479   9.360
12806WAT     H138660   5.516   3.557   9.414
12806WAT     H238661   5.582   3.511   9.272
12807WAT      O38662   4.380   6.849   6.001
12807WAT     H138663   4.398   6.751   6.002
12807WAT     H238664   4.296   6.868   6.050
12808WAT      O38665   6.837   4.344   7.132
12808WAT     H138666   6.855   4.280   7.207
12808WAT     H238667   6.862   4.437   7.160
12809WAT      O38668   0.240   1.782  -0.001
12809WAT     H138669   0.263   1.711  -0.067
12809WAT     H238670   0.275   1.757   0.089
12810WAT      O38671   2.855   0.197   3.624
12810WAT     H138672   2.904   0.272   3.668
12810WAT     H238673   2.756   0.213   3.629
12811WAT      O38674   1.399   2.732   5.112
12811WAT     H138675   1.409   2.727   5.012
12811WAT     H238676   1.344   2.812   5.136
12812WAT      O38677   2.587   8.152   8.940
12812WAT     H138678   2.643   8.234   8.928
12812WAT     H238679   2.536   8.135   8.857
12813WAT      O38680   0.077   0.894   6.565
12813WAT     H138681   0.095   0.949   6.484
12813WAT     H238682   0.102   0.945   6.647
12814WAT      O38683   5.077   8.778   2.126
12814WAT     H138684   5.156   8.807   2.179
12814WAT     H238685   5.039   8.856   2.076
12815WAT      O38686   8.724   6.943   7.711
12815WAT     H138687   8.741   6.898   7.799
12815WAT     H238688   8.685   7.034   7.727
12816WAT      O38689   7.292   3.882   3.176
12816WAT     H138690   7.284   3.980   3.159
12816WAT     H238691   7.271   3.862   3.272
12817WAT      O38692   6.496   3.881   6.643
12817WAT     H138693   6.430   3.817   6.683
12817WAT     H238694   6.446   3.958   6.601
12818WAT      O38695   2.555   3.484   5.368
12818WAT     H138696   2.649   3.515   5.386
12818WAT     H238697   2.534   3.494   5.271
12819WAT      O38698   4.780   3.368   4.580
12819WAT     H138699   4.682   3.350   4.586
12819WAT     H238700   4.797   3.443   4.516
12820WAT      O38701   5.128   6.084   4.316
12820WAT     H138702   5.215   6.127   4.292
12820WAT     H238703   5.139   6.029   4.399
12821WAT      O38704   9.231   7.206   6.394
12821WAT     H138705   9.211   7.285   6.336
12821WAT     H238706   9.286   7.235   6.472
12822WAT      O38707   0.469   4.837   0.638
12822WAT     H138708   0.522   4.811   0.558
12822WAT     H238709   0.378   4.870   0.610
12823WAT      O38710   4.705   3.836   8.943
12823WAT     H138711   4.754   3.794   9.020
12823WAT     H238712   4.609   3.811   8.948
12824WAT      O38713   1.915   8.633   0.385
12824WAT     H138714   1.890   8.634   0.288
12824WAT     H238715   1.878   8.551   0.429
12825WAT      O38716   2.559   4.058   6.205
12825WAT     H138717   2.543   3.959   6.202
12825WAT     H238718   2.611   4.085   6.124
12826WAT      O38719   0.047   5.700   9.108
12826WAT     H138720   0.069   5.729   9.015
12826WAT     H238721   0.094   5.760   9.173
12827WAT      O38722   4.849   4.667   6.993
12827WAT     H138723   4.789   4.610   6.937
12827WAT     H238724   4.881   4.615   7.072
12828WAT      O38725   6.002   5.512   0.181
12828WAT     H138726   6.038   5.605   0.179
12828WAT     H238727   6.011   5.470   0.091
12829WAT      O38728   1.067   4.887   4.718
12829WAT     H138729   1.002   4.904   4.644
12829WAT     H238730   1.145   4.949   4.708
12830WAT      O38731   2.051   4.853   2.909
12830WAT     H138732   2.123   4.921   2.918
12830WAT     H238733   2.018   4.852   2.815
12831WAT      O38734   0.474   5.375   8.286
12831WAT     H138735   0.436   5.284   8.305
12831WAT     H238736   0.551   5.366   8.223
12832WAT      O38737   2.885   2.641   2.844
12832WAT     H138738   2.884   2.583   2.926
12832WAT     H238739   2.917   2.587   2.766
12833WAT      O38740   3.902   4.049   4.081
12833WAT     H138741   3.906   4.131   4.139
12833WAT     H238742   3.991   4.003   4.083
12834WAT      O38743   3.360   3.647   3.858
12834WAT     H138744   3.391   3.616   3.948
12834WAT     H238745   3.379   3.576   3.790
12835WAT      O38746   1.061   9.218   0.323
12835WAT     H138747   1.039   9.120   0.318
12835WAT     H238748   1.089   9.241   0.416
12836WAT      O38749   7.726   0.454   1.440
12836WAT     H138750   7.666   0.533   1.429
12836WAT     H238751   7.717   0.393   1.361
12837WAT      O38752   3.710   6.920   3.687
12837WAT     H138753   3.807   6.934   3.667
12837WAT     H238754   3.691   6.947   3.781
12838WAT      O38755   2.639   1.108   0.225
12838WAT     H138756   2.687   1.192   0.251
12838WAT     H238757   2.626   1.050   0.305
12839WAT      O38758   5.245   5.427   1.484
12839WAT     H138759   5.321   5.475   1.439
12839WAT     H238760   5.187   5.493   1.531
12840WAT      O38761   7.481   3.727   8.441
12840WAT     H138762   7.523   3.653   8.388
12840WAT     H238763   7.527   3.813   8.420
12841WAT      O38764   5.119   2.669   8.993
12841WAT     H138765   5.122   2.586   8.937
12841WAT     H238766   5.024   2.695   9.010
12842WAT      O38767   3.348   7.635   0.493
12842WAT     H138768   3.295   7.596   0.418
12842WAT     H238769   3.289   7.646   0.573
12843WAT      O38770   5.130   0.071   3.658
12843WAT     H138771   5.126   0.058   3.559
12843WAT     H238772   5.219   0.108   3.684
12844WAT      O38773   5.738   9.607   3.505
12844WAT     H138774   5.748   9.599   3.604
12844WAT     H238775   5.828   9.605   3.462
12845WAT      O38776   0.584   4.138   3.838
12845WAT     H138777   0.514   4.170   3.775
12845WAT     H238778   0.620   4.050   3.808
12846WAT      O38779   4.426   4.003   6.374
12846WAT     H138780   4.399   4.001   6.278
12846WAT     H238781   4.526   4.012   6.380
12847WAT      O38782   4.151   7.401   8.001
12847WAT     H138783   4.229   7.392   7.940
12847WAT     H238784   4.183   7.432   8.091
12848WAT      O38785   3.863   9.191   8.695
12848WAT     H138786   3.894   9.102   8.728
12848WAT     H238787   3.942   9.246   8.667
12849WAT      O38788   9.222   1.260   1.456
12849WAT     H138789   9.172   1.258   1.543
12849WAT     H238790   9.171   1.208   1.387
12850WAT      O38791   9.792   5.622   9.681
12850WAT     H138792   9.761   5.628   9.586
12850WAT     H238793   9.864   5.690   9.697
12851WAT      O38794   0.534   5.170   6.843
12851WAT     H138795   0.514   5.253   6.895
12851WAT     H238796   0.624   5.179   6.799
12852WAT      O38797   4.988   8.198   7.734
12852WAT     H138798   5.076   8.172   7.693
12852WAT     H238799   5.000   8.213   7.832
12853WAT      O38800   1.383   6.534   1.954
12853WAT     H138801   1.357   6.501   1.863
12853WAT     H238802   1.344   6.474   2.024
12854WAT      O38803   0.365   1.292   7.689
12854WAT     H138804   0.284   1.347   7.711
12854WAT     H238805   0.363   1.268   7.592
12855WAT      O38806   6.602   3.234   1.182
12855WAT     H138807   6.598   3.134   1.186
12855WAT     H238808   6.622   3.270   1.273
12856WAT      O38809   0.195   4.625   4.771
12856WAT     H138810   0.206   4.543   4.827
12856WAT     H238811   0.217   4.604   4.676
12857WAT      O38812   1.192   3.726   2.615
12857WAT     H138813   1.238   3.758   2.698
12857WAT     H238814   1.096   3.706   2.636
12858WAT      O38815   5.233   0.738   8.102
12858WAT     H138816   5.230   0.809   8.173
12858WAT     H238817   5.268   0.778   8.017
12859WAT      O38818   1.426   2.793   3.486
12859WAT     H138819   1.397   2.875   3.535
12859WAT     H238820   1.464   2.728   3.551
12860WAT      O38821   2.206   0.853   0.376
12860WAT     H138822   2.243   0.824   0.464
12860WAT     H238823   2.227   0.784   0.307
12861WAT      O38824   1.507   4.106   7.558
12861WAT     H138825   1.590   4.078   7.606
12861WAT     H238826   1.485   4.039   7.487
12862WAT      O38827   4.392   8.950   7.377
12862WAT     H138828   4.392   8.981   7.282
12862WAT     H238829   4.404   8.851   7.380
12863WAT      O38830   8.504   9.757   2.156
12863WAT     H138831   8.589   9.809   2.147
12863WAT     H238832   8.428   9.811   2.121
12864WAT      O38833   7.046   7.272   9.485
12864WAT     H138834   6.949   7.292   9.467
12864WAT     H238835   7.054   7.230   9.575
12865WAT      O38836   6.091   1.581   1.046
12865WAT     H138837   6.182   1.621   1.034
12865WAT     H238838   6.091   1.487   1.012
12866WAT      O38839   8.474   8.334   1.552
12866WAT     H138840   8.437   8.422   1.522
12866WAT     H238841   8.563   8.349   1.594
12867WAT      O38842   4.505   7.581   0.461
12867WAT     H138843   4.409   7.603   0.449
12867WAT     H238844   4.544   7.639   0.532
12868WAT      O38845   2.127   4.585   0.832
12868WAT     H138846   2.064   4.632   0.894
12868WAT     H238847   2.220   4.620   0.845
12869WAT      O38848   8.542   3.498   2.605
12869WAT     H138849   8.580   3.559   2.536
12869WAT     H238850   8.494   3.422   2.561
12870WAT      O38851   8.850   3.908   5.261
12870WAT     H138852   8.926   3.843   5.261
12870WAT     H238853   8.832   3.937   5.167
12871WAT      O38854   9.711   3.007   7.193
12871WAT     H138855   9.747   3.015   7.100
12871WAT     H238856   9.787   3.006   7.258
12872WAT      O38857   2.484   7.009   0.150
12872WAT     H138858   2.454   6.914   0.137
12872WAT     H238859   2.544   7.014   0.230
12873WAT      O38860   5.969   8.310   1.684
12873WAT     H138861   6.015   8.387   1.639
12873WAT     H238862   6.016   8.290   1.770
12874WAT      O38863   8.147   2.373   4.917
12874WAT     H138864   8.151   2.378   4.817
12874WAT     H238865   8.143   2.278   4.946
12875WAT      O38866   1.605   0.992   4.699
12875WAT     H138867   1.700   0.984   4.727
12875WAT     H238868   1.600   1.047   4.616
12876WAT      O38869   7.056   4.787   4.310
12876WAT     H138870   6.970   4.738   4.326
12876WAT     H238871   7.070   4.798   4.211
12877WAT      O38872   8.182   1.152   7.479
12877WAT     H138873   8.187   1.144   7.578
12877WAT     H238874   8.269   1.186   7.443
12878WAT      O38875   8.584   4.348   8.075
12878WAT     H138876   8.513   4.316   8.011
12878WAT     H238877   8.606   4.274   8.139
12879WAT      O38878   1.820   1.179   1.152
12879WAT     H138879   1.824   1.107   1.221
12879WAT     H238880   1.875   1.152   1.073
12880WAT      O38881   2.016   4.481   9.136
12880WAT     H138882   1.959   4.441   9.207
12880WAT     H238883   2.057   4.408   9.081
12881WAT      O38884   9.042   6.202   0.831
12881WAT     H138885   9.004   6.267   0.765
12881WAT     H238886   9.138   6.225   0.848
12882WAT      O38887   0.379   3.761   9.770
12882WAT     H138888   0.427   3.797   9.690
12882WAT     H238889   0.407   3.666   9.786
12883WAT      O38890   9.856   2.604   1.498
12883WAT     H138891   9.902   2.667   1.435
12883WAT     H238892   9.826   2.523   1.447
12884WAT      O38893   6.717   3.299   1.439
12884WAT     H138894   6.751   3.393   1.440
12884WAT     H238895   6.794   3.236   1.432
12885WAT      O38896   5.578   1.481   6.664
12885WAT     H138897   5.587   1.571   6.706
12885WAT     H238898   5.595   1.488   6.565
12886WAT      O38899   1.413   9.476   0.725
12886WAT     H138900   1.431   9.574   0.715
12886WAT     H238901   1.426   9.449   0.820
12887WAT      O38902   9.125   4.081   6.253
12887WAT     H138903   9.189   4.017   6.210
12887WAT     H238904   9.122   4.064   6.351
12888WAT      O38905   4.933   0.835   5.139
12888WAT     H138906   4.975   0.747   5.164
12888WAT     H238907   4.999   0.909   5.155
12889WAT      O38908   9.350   7.405   7.699
12889WAT     H138909   9.342   7.334   7.769
12889WAT     H238910   9.261   7.416   7.653
12890WAT      O38911   8.529   3.155   4.996
12890WAT     H138912   8.510   3.167   4.899
12890WAT     H238913   8.472   3.082   5.033
12891WAT      O38914   1.591   3.486   7.790
12891WAT     H138915   1.536   3.516   7.712
12891WAT     H238916   1.564   3.537   7.871
12892WAT      O38917   0.845   3.579   5.372
12892WAT     H138918   0.908   3.652   5.343
12892WAT     H238919   0.755   3.619   5.389
12893WAT      O38920   1.789   9.616   1.729
12893WAT     H138921   1.794   9.517   1.720
12893WAT     H238922   1.694   9.645   1.721
12894WAT      O38923   3.175   5.184   2.655
12894WAT     H138924   3.087   5.179   2.609
12894WAT     H238925   3.165   5.236   2.740
12895WAT      O38926   1.397   8.288   3.163
12895WAT     H138927   1.395   8.219   3.090
12895WAT     H238928   1.387   8.379   3.123
12896WAT      O38929   8.218   6.684   4.151
12896WAT     H138930   8.185   6.695   4.058
12896WAT     H238931   8.269   6.598   4.159
12897WAT      O38932   6.274   7.437   6.853
12897WAT     H138933   6.325   7.365   6.900
12897WAT     H238934   6.184   7.403   6.828
12898WAT      O38935   8.586   5.585   1.089
12898WAT     H138936   8.571   5.561   1.185
12898WAT     H238937   8.522   5.657   1.062
12899WAT      O38938   9.858   3.461   4.126
12899WAT     H138939   9.929   3.460   4.055
12899WAT     H238940   9.781   3.516   4.095
12900WAT      O38941   6.222   4.050   5.306
12900WAT     H138942   6.199   4.143   5.333
12900WAT     H238943   6.284   4.010   5.373
12901WAT      O38944   4.520   5.852   1.088
12901WAT     H138945   4.617   5.834   1.105
12901WAT     H238946   4.511   5.936   1.035
12902WAT      O38947   2.320   7.161   5.419
12902WAT     H138948   2.271   7.248   5.408
12902WAT     H238949   2.257   7.085   5.400
12903WAT      O38950   1.724   6.957   8.759
12903WAT     H138951   1.666   6.877   8.744
12903WAT     H238952   1.817   6.927   8.782
12904WAT      O38953   8.855   3.884   7.434
12904WAT     H138954   8.762   3.883   7.471
12904WAT     H238955   8.851   3.879   7.334
12905WAT      O38956   8.207   7.640   4.848
12905WAT     H138957   8.295   7.636   4.896
12905WAT     H238958   8.166   7.730   4.861
12906WAT      O38959   3.804   5.429   0.414
12906WAT     H138960   3.718   5.377   0.404
12906WAT     H238961   3.854   5.395   0.494
12907WAT      O38962   3.781   7.336   2.890
12907WAT     H138963   3.715   7.264   2.909
12907WAT     H238964   3.734   7.414   2.849
12908WAT      O38965   0.926   1.517   3.687
12908WAT     H138966   0.944   1.482   3.595
12908WAT     H238967   1.012   1.536   3.733
12909WAT      O38968   0.664   9.436   1.879
12909WAT     H138969   0.638   9.382   1.959
12909WAT     H238970   0.597   9.423   1.807
12910WAT      O38971   4.083   0.953   7.672
12910WAT     H138972   4.178   0.936   7.646
12910WAT     H238973   4.023   0.929   7.596
12911WAT      O38974   9.810   7.615   6.223
12911WAT     H138975   9.891   7.602   6.167
12911WAT     H238976   9.743   7.543   6.202
12912WAT      O38977   4.870   1.464   8.597
12912WAT     H138978   4.913   1.426   8.516
12912WAT     H238979   4.857   1.391   8.665
12913WAT      O38980   8.195   4.416   8.560
12913WAT     H138981   8.176   4.459   8.648
12913WAT     H238982   8.149   4.466   8.487
12914WAT      O38983   1.391   0.126   9.457
12914WAT     H138984   1.343   0.173   9.384
12914WAT     H238985   1.329   0.111   9.534
12915WAT      O38986   5.029   1.061   6.224
12915WAT     H138987   5.068   1.153   6.226
12915WAT     H238988   4.976   1.045   6.308
12916WAT      O38989   4.116   8.215   0.642
12916WAT     H138990   4.039   8.200   0.703
12916WAT     H238991   4.090   8.281   0.571
12917WAT      O38992   6.193   6.317   0.926
12917WAT     H138993   6.182   6.365   1.012
12917WAT     H238994   6.272   6.255   0.932
12918WAT      O38995   0.309   9.206   2.518
12918WAT     H138996   0.236   9.152   2.559
12918WAT     H238997   0.372   9.237   2.590
12919WAT      O38998   0.815   6.710   4.542
12919WAT     H138999   0.768   6.622   4.538
12919WAT     H239000   0.755   6.782   4.507
12920WAT      O39001   3.793   9.657   2.474
12920WAT     H139002   3.745   9.574   2.503
12920WAT     H239003   3.740   9.703   2.403
12921WAT      O39004   4.881   6.931   4.497
12921WAT     H139005   4.885   7.010   4.437
12921WAT     H239006   4.974   6.898   4.515
12922WAT      O39007   4.870   5.873   0.379
12922WAT     H139008   4.857   5.796   0.317
12922WAT     H239009   4.849   5.958   0.331
12923WAT      O39010   0.388   5.537   7.932
12923WAT     H139011   0.481   5.520   7.898
12923WAT     H239012   0.393   5.585   8.020
12924WAT      O39013   4.858   7.759   1.880
12924WAT     H139014   4.833   7.848   1.917
12924WAT     H239015   4.833   7.755   1.783
12925WAT      O39016   4.240   9.453   1.184
12925WAT     H139017   4.182   9.393   1.129
12925WAT     H239018   4.186   9.497   1.255
12926WAT      O39019   8.959   1.739   6.382
12926WAT     H139020   9.021   1.661   6.373
12926WAT     H239021   8.969   1.798   6.301
12927WAT      O39022   1.175   7.321   2.465
12927WAT     H139023   1.180   7.353   2.370
12927WAT     H239024   1.163   7.398   2.527
12928WAT      O39025   4.628   5.566   1.599
12928WAT     H139026   4.628   5.471   1.630
12928WAT     H239027   4.587   5.572   1.508
12929WAT      O39028   3.745   5.910   9.153
12929WAT     H139029   3.803   5.828   9.160
12929WAT     H239030   3.654   5.884   9.122
12930WAT      O39031   8.493   0.402   8.966
12930WAT     H139032   8.443   0.489   8.962
12930WAT     H239033   8.449   0.342   9.032
12931WAT      O39034   9.343   2.944   4.300
12931WAT     H139035   9.299   3.007   4.365
12931WAT     H239036   9.442   2.950   4.311
12932WAT      O39037   5.477   7.471   3.216
12932WAT     H139038   5.534   7.505   3.291
12932WAT     H239039   5.432   7.548   3.172
12933WAT      O39040   8.796   1.812   7.697
12933WAT     H139041   8.700   1.840   7.699
12933WAT     H239042   8.854   1.893   7.700
12934WAT      O39043   4.109   8.723   6.420
12934WAT     H139044   4.046   8.656   6.380
12934WAT     H239045   4.195   8.678   6.443
12935WAT      O39046   7.542   1.569   7.319
12935WAT     H139047   7.635   1.535   7.311
12935WAT     H239048   7.492   1.515   7.387
12936WAT      O39049   3.586   2.137   2.209
12936WAT     H139050   3.486   2.138   2.217
12936WAT     H239051   3.625   2.093   2.290
12937WAT      O39052   1.410   5.468   3.441
12937WAT     H139053   1.453   5.451   3.529
12937WAT     H239054   1.467   5.431   3.368
12938WAT      O39055   4.998   8.539   5.166
12938WAT     H139056   4.995   8.439   5.163
12938WAT     H239057   4.930   8.573   5.231
12939WAT      O39058   0.687   1.236   2.768
12939WAT     H139059   0.708   1.183   2.850
12939WAT     H239060   0.694   1.333   2.788
12940WAT      O39061   9.662   9.114   9.099
12940WAT     H139062   9.602   9.190   9.122
12940WAT     H239063   9.756   9.135   9.127
12941WAT      O39064   8.952   2.914   7.468
12941WAT     H139065   9.005   2.960   7.540
12941WAT     H239066   9.008   2.907   7.386
12942WAT      O39067   1.901   7.783   2.825
12942WAT     H139068   1.893   7.702   2.767
12942WAT     H239069   1.810   7.811   2.856
12943WAT      O39070   3.784   6.683   2.478
12943WAT     H139071   3.861   6.627   2.508
12943WAT     H239072   3.818   6.767   2.436
12944WAT      O39073   1.083   7.210   7.257
12944WAT     H139074   1.090   7.113   7.281
12944WAT     H239075   1.106   7.222   7.160
12945WAT      O39076   3.107   7.865   6.438
12945WAT     H139077   3.042   7.855   6.362
12945WAT     H239078   3.185   7.805   6.423
12946WAT      O39079   5.103   6.388   5.094
12946WAT     H139080   5.087   6.473   5.044
12946WAT     H239081   5.128   6.316   5.029
12947WAT      O39082   1.641   2.942   8.296
12947WAT     H139083   1.685   2.989   8.220
12947WAT     H239084   1.580   2.871   8.260
12948WAT      O39085   1.813   9.417   3.338
12948WAT     H139086   1.908   9.448   3.338
12948WAT     H239087   1.802   9.342   3.274
12949WAT      O39088   3.411   5.178   0.056
12949WAT     H139089   3.354   5.108   0.013
12949WAT     H239090   3.466   5.137   0.128
12950WAT      O39091   7.485   5.296   9.048
12950WAT     H139092   7.387   5.302   9.063
12950WAT     H239093   7.520   5.210   9.084
12951WAT      O39094   6.519   2.150   0.655
12951WAT     H139095   6.509   2.243   0.690
12951WAT     H239096   6.428   2.111   0.638
12952WAT      O39097   2.840   8.185   6.136
12952WAT     H139098   2.858   8.283   6.134
12952WAT     H239099   2.774   8.165   6.208
12953WAT      O39100   1.706   4.407   9.811
12953WAT     H139101   1.739   4.403   9.905
12953WAT     H239102   1.778   4.377   9.748
12954WAT      O39103   9.253   1.449   3.246
12954WAT     H139104   9.266   1.353   3.267
12954WAT     H239105   9.277   1.505   3.326
12955WAT      O39106   3.325   0.713   9.518
12955WAT     H139107   3.423   0.695   9.509
12955WAT     H239108   3.274   0.631   9.492
12956WAT      O39109   9.257   3.311   6.398
12956WAT     H139110   9.223   3.267   6.480
12956WAT     H239111   9.353   3.337   6.411
12957WAT      O39112   6.375   1.930   9.467
12957WAT     H139113   6.428   2.015   9.475
12957WAT     H239114   6.427   1.854   9.505
12958WAT      O39115   8.537   8.705   9.355
12958WAT     H139116   8.563   8.689   9.259
12958WAT     H239117   8.614   8.747   9.404
12959WAT      O39118   9.410   3.745   3.485
12959WAT     H139119   9.405   3.688   3.567
12959WAT     H239120   9.321   3.747   3.440
12960WAT      O39121   3.101   3.747   3.332
12960WAT     H139122   3.073   3.656   3.363
12960WAT     H239123   3.143   3.796   3.408
12961WAT      O39124   3.415   1.674   8.737
12961WAT     H139125   3.384   1.764   8.706
12961WAT     H239126   3.352   1.604   8.705
12962WAT      O39127   5.817   6.109   8.710
12962WAT     H139128   5.787   6.030   8.763
12962WAT     H239129   5.892   6.154   8.757
12963WAT      O39130   5.202   6.864   1.070
12963WAT     H139131   5.241   6.884   1.160
12963WAT     H239132   5.189   6.950   1.020
12964WAT      O39133   9.305   1.688   1.903
12964WAT     H139134   9.279   1.777   1.941
12964WAT     H239135   9.404   1.675   1.915
12965WAT      O39136   7.311   0.994   4.466
12965WAT     H139137   7.300   1.045   4.381
12965WAT     H239138   7.295   1.055   4.544
12966WAT      O39139   3.686   4.559   9.356
12966WAT     H139140   3.684   4.583   9.259
12966WAT     H239141   3.596   4.527   9.385
12967WAT      O39142   7.940   0.278   5.658
12967WAT     H139143   7.968   0.342   5.587
12967WAT     H239144   8.020   0.253   5.714
12968WAT      O39145   1.758   8.515   6.461
12968WAT     H139146   1.702   8.444   6.419
12968WAT     H239147   1.810   8.475   6.537
12969WAT      O39148   1.181   8.918   3.204
12969WAT     H139149   1.237   8.996   3.176
12969WAT     H239150   1.224   8.874   3.284
12970WAT      O39151   9.315   8.882   8.143
12970WAT     H139152   9.258   8.916   8.218
12970WAT     H239153   9.408   8.865   8.176
12971WAT      O39154   3.301   3.375   9.762
12971WAT     H139155   3.381   3.341   9.812
12971WAT     H239156   3.264   3.454   9.810
12972WAT      O39157   2.922   0.669   2.171
12972WAT     H139158   2.965   0.611   2.102
12972WAT     H239159   2.991   0.696   2.239
12973WAT      O39160   5.133   2.576   7.552
12973WAT     H139161   5.213   2.567   7.493
12973WAT     H239162   5.083   2.659   7.529
12974WAT      O39163   4.634   4.444   5.912
12974WAT     H139164   4.615   4.347   5.929
12974WAT     H239165   4.699   4.478   5.980
12975WAT      O39166   2.820   8.506   4.499
12975WAT     H139167   2.799   8.512   4.401
12975WAT     H239168   2.855   8.594   4.531
12976WAT      O39169   1.093   3.874   3.915
12976WAT     H139170   1.055   3.790   3.876
12976WAT     H239171   1.116   3.937   3.840
12977WAT      O39172   9.384   1.662   5.701
12977WAT     H139173   9.339   1.726   5.763
12977WAT     H239174   9.479   1.690   5.688
12978WAT      O39175   1.340   2.485   3.117
12978WAT     H139176   1.434   2.457   3.102
12978WAT     H239177   1.339   2.576   3.160
12979WAT      O39178   4.318   0.371   3.928
12979WAT     H139179   4.347   0.449   3.872
12979WAT     H239180   4.374   0.368   4.011
12980WAT      O39181   7.474   1.257   5.735
12980WAT     H139182   7.470   1.159   5.717
12980WAT     H239183   7.541   1.300   5.675
12981WAT      O39184   4.631   0.257   6.210
12981WAT     H139185   4.566   0.272   6.285
12981WAT     H239186   4.581   0.242   6.125
12982WAT      O39187   5.790   3.323   2.239
12982WAT     H139188   5.856   3.266   2.287
12982WAT     H239189   5.714   3.266   2.206
12983WAT      O39190   2.637   8.234   1.479
12983WAT     H139191   2.572   8.310   1.482
12983WAT     H239192   2.618   8.177   1.399
12984WAT      O39193   5.295   1.213   4.289
12984WAT     H139194   5.317   1.126   4.334
12984WAT     H239195   5.198   1.233   4.302
12985WAT      O39196   2.751   1.595   5.689
12985WAT     H139197   2.779   1.504   5.718
12985WAT     H239198   2.732   1.652   5.769
12986WAT      O39199   5.710   1.222   5.824
12986WAT     H139200   5.712   1.315   5.861
12986WAT     H239201   5.636   1.170   5.868
12987WAT      O39202   6.211   7.136   5.021
12987WAT     H139203   6.197   7.229   5.053
12987WAT     H239204   6.270   7.087   5.085
12988WAT      O39205   2.079   5.387   5.983
12988WAT     H139206   2.040   5.379   5.891
12988WAT     H239207   2.049   5.310   6.039
12989WAT      O39208   4.363   5.102   7.475
12989WAT     H139209   4.369   5.019   7.531
12989WAT     H239210   4.395   5.180   7.528
12990WAT      O39211   5.173   8.576   4.897
12990WAT     H139212   5.075   8.597   4.891
12990WAT     H239213   5.184   8.479   4.920
12991WAT      O39214   0.095   5.450   6.232
12991WAT     H139215   0.182   5.497   6.241
12991WAT     H239216   0.029   5.511   6.187
12992WAT      O39217   7.557   5.573   5.128
12992WAT     H139218   7.585   5.592   5.223
12992WAT     H239219   7.637   5.576   5.069
12993WAT      O39220   4.547   0.187   1.516
12993WAT     H139221   4.583   0.179   1.609
12993WAT     H239222   4.548   0.097   1.472
12994WAT      O39223   8.961   3.128   4.971
12994WAT     H139224   8.920   3.051   4.921
12994WAT     H239225   9.043   3.097   5.018
12995WAT      O39226   4.228   0.956   1.834
12995WAT     H139227   4.290   0.889   1.795
12995WAT     H239228   4.206   0.930   1.928
12996WAT      O39229   7.509   9.188   3.121
12996WAT     H139230   7.468   9.196   3.212
12996WAT     H239231   7.438   9.170   3.054
12997WAT      O39232   6.810   2.737   1.144
12997WAT     H139233   6.884   2.688   1.098
12997WAT     H239234   6.789   2.693   1.231
12998WAT      O39235   2.693   7.656   0.777
12998WAT     H139236   2.639   7.699   0.705
12998WAT     H239237   2.724   7.725   0.842
12999WAT      O39238   4.530   6.328   6.377
12999WAT     H139239   4.629   6.321   6.390
12999WAT     H239240   4.506   6.293   6.286
13000WAT      O39241   3.865   4.546   9.582
13000WAT     H139242   3.913   4.624   9.620
13000WAT     H239243   3.812   4.575   9.502
13001WAT      O39244   7.074   1.443   2.959
13001WAT     H139245   7.025   1.363   2.924
13001WAT     H239246   7.130   1.415   3.038
13002WAT      O39247   6.274   2.518   4.164
13002WAT     H139248   6.192   2.466   4.189
13002WAT     H239249   6.336   2.460   4.112
13003WAT      O39250   4.542   0.608   0.589
13003WAT     H139251   4.503   0.648   0.672
13003WAT     H239252   4.468   0.588   0.524
13004WAT      O39253   3.549   3.072   1.935
13004WAT     H139254   3.510   3.164   1.924
13004WAT     H239255   3.598   3.047   1.851
13005WAT      O39256   5.768   1.995   9.708
13005WAT     H139257   5.736   1.914   9.757
13005WAT     H239258   5.823   1.967   9.629
13006WAT      O39259   6.153   0.585   2.148
13006WAT     H139260   6.169   0.585   2.049
13006WAT     H239261   6.178   0.496   2.186
13007WAT      O39262   1.580   9.757   3.355
13007WAT     H139263   1.573   9.796   3.447
13007WAT     H239264   1.650   9.805   3.303
13008WAT      O39265   7.847   6.976   6.773
13008WAT     H139266   7.805   7.016   6.855
13008WAT     H239267   7.859   6.878   6.786
13009WAT      O39268   6.142   2.056   3.373
13009WAT     H139269   6.097   1.969   3.398
13009WAT     H239270   6.154   2.111   3.456
13010WAT      O39271   1.926   1.805   8.344
13010WAT     H139272   2.013   1.779   8.301
13010WAT     H239273   1.945   1.846   8.433
13011WAT      O39274   5.771   2.005   4.290
13011WAT     H139275   5.772   2.074   4.218
13011WAT     H239276   5.678   1.990   4.322
13012WAT      O39277   3.935   4.201   6.261
13012WAT     H139278   3.993   4.245   6.193
13012WAT     H239279   3.846   4.246   6.264
13013WAT      O39280   0.924   7.084   2.172
13013WAT     H139281   0.915   7.001   2.228
13013WAT     H239282   0.972   7.062   2.087
13014WAT      O39283   2.547   1.124   4.201
13014WAT     H139284   2.505   1.112   4.111
13014WAT     H239285   2.543   1.038   4.252
13015WAT      O39286   4.010   7.324   1.861
13015WAT     H139287   4.007   7.371   1.773
13015WAT     H239288   4.009   7.391   1.935
13016WAT      O39289   9.887   9.765   2.733
13016WAT     H139290   9.807   9.818   2.706
13016WAT     H239291   9.950   9.758   2.656
13017WAT      O39292   7.777   4.420   7.230
13017WAT     H139293   7.755   4.518   7.228
13017WAT     H239294   7.715   4.371   7.168
13018WAT      O39295   5.972   7.250   8.044
13018WAT     H139296   5.911   7.228   7.968
13018WAT     H239297   6.044   7.180   8.049
13019WAT      O39298   9.352   6.675   6.650
13019WAT     H139299   9.328   6.772   6.654
13019WAT     H239300   9.409   6.658   6.570
13020WAT      O39301   7.418   9.768   2.169
13020WAT     H139302   7.497   9.829   2.176
13020WAT     H239303   7.338   9.821   2.140
13021WAT      O39304   3.651   0.709   8.969
13021WAT     H139305   3.741   0.746   8.988
13021WAT     H239306   3.660   0.617   8.931
13022WAT      O39307   7.552   1.610   2.418
13022WAT     H139308   7.592   1.601   2.327
13022WAT     H239309   7.624   1.599   2.487
13023WAT      O39310   4.856   4.396   1.679
13023WAT     H139311   4.811   4.370   1.594
13023WAT     H239312   4.791   4.441   1.739
13024WAT      O39313   4.177   0.853   2.117
13024WAT     H139314   4.115   0.931   2.108
13024WAT     H239315   4.269   0.885   2.137
13025WAT      O39316   7.821   7.086   9.608
13025WAT     H139317   7.732   7.049   9.632
13025WAT     H239318   7.864   7.029   9.537
13026WAT      O39319   1.167   6.092   3.128
13026WAT     H139320   1.216   6.131   3.206
13026WAT     H239321   1.096   6.155   3.098
13027WAT      O39322   8.487   2.940   0.332
13027WAT     H139323   8.439   3.010   0.385
13027WAT     H239324   8.487   2.854   0.382
13028WAT      O39325   2.262   0.087   7.774
13028WAT     H139326   2.240   0.178   7.740
13028WAT     H239327   2.312   0.094   7.860
13029WAT      O39328   1.495   7.381   4.805
13029WAT     H139329   1.486   7.461   4.864
13029WAT     H239330   1.542   7.407   4.721
13030WAT      O39331   6.345   0.661   6.178
13030WAT     H139332   6.380   0.740   6.129
13030WAT     H239333   6.291   0.605   6.116
13031WAT      O39334   9.673   3.495   2.190
13031WAT     H139335   9.722   3.411   2.215
13031WAT     H239336   9.609   3.475   2.115
13032WAT      O39337   0.336   2.691   5.134
13032WAT     H139338   0.316   2.782   5.098
13032WAT     H239339   0.262   2.628   5.107
13033WAT      O39340   8.652   7.401   1.778
13033WAT     H139341   8.749   7.392   1.754
13033WAT     H239342   8.614   7.311   1.798
13034WAT      O39343   0.639   5.879   0.220
13034WAT     H139344   0.635   5.842   0.127
13034WAT     H239345   0.616   5.976   0.218
13035WAT      O39346   6.053   1.187   2.171
13035WAT     H139347   6.118   1.238   2.228
13035WAT     H239348   6.101   1.145   2.094
13036WAT      O39349   4.758   6.721   4.619
13036WAT     H139350   4.706   6.668   4.552
13036WAT     H239351   4.767   6.815   4.588
13037WAT      O39352   1.626   7.795   8.968
13037WAT     H139353   1.651   7.704   9.002
13037WAT     H239354   1.594   7.788   8.874
13038WAT      O39355   1.968   0.304   3.001
13038WAT     H139356   1.932   0.360   3.075
13038WAT     H239357   2.065   0.284   3.018
13039WAT      O39358   2.676   6.977   0.327
13039WAT     H139359   2.756   7.037   0.331
13039WAT     H239360   2.672   6.922   0.410
13040WAT      O39361   7.186   9.578   0.571
13040WAT     H139362   7.163   9.603   0.665
13040WAT     H239363   7.113   9.522   0.532
13041WAT      O39364   0.384   8.256   3.072
13041WAT     H139365   0.292   8.260   3.033
13041WAT     H239366   0.417   8.162   3.071
13042WAT      O39367   3.456   0.559   6.521
13042WAT     H139368   3.453   0.513   6.432
13042WAT     H239369   3.398   0.510   6.586
13043WAT      O39370   6.676   9.190   2.326
13043WAT     H139371   6.651   9.119   2.392
13043WAT     H239372   6.657   9.280   2.366
13044WAT      O39373   9.180   8.501   6.973
13044WAT     H139374   9.272   8.462   6.969
13044WAT     H239375   9.187   8.601   6.977
13045WAT      O39376   9.328   3.982   3.046
13045WAT     H139377   9.425   3.958   3.046
13045WAT     H239378   9.305   4.026   2.959
13046WAT      O39379   5.775   8.354   4.883
13046WAT     H139380   5.842   8.279   4.879
13046WAT     H239381   5.816   8.437   4.846
13047WAT      O39382   4.978   0.551   9.267
13047WAT     H139383   5.046   0.497   9.316
13047WAT     H239384   4.928   0.609   9.331
13048WAT      O39385   2.514   1.356   0.955
13048WAT     H139386   2.418   1.345   0.979
13048WAT     H239387   2.531   1.452   0.930
13049WAT      O39388   0.585   7.146   2.287
13049WAT     H139389   0.634   7.232   2.270
13049WAT     H239390   0.609   7.079   2.217
13050WAT      O39391   8.478   5.111   6.401
13050WAT     H139392   8.523   5.148   6.320
13050WAT     H239393   8.530   5.034   6.437
13051WAT      O39394   3.063   3.431   5.481
13051WAT     H139395   3.135   3.390   5.537
13051WAT     H239396   3.040   3.369   5.406
13052WAT      O39397   3.808   2.040   3.507
13052WAT     H139398   3.747   2.033   3.586
13052WAT     H239399   3.761   2.006   3.425
13053WAT      O39400   8.953   6.147   4.947
13053WAT     H139401   8.959   6.240   4.984
13053WAT     H239402   9.046   6.112   4.933
13054WAT      O39403   0.953   0.980   2.117
13054WAT     H139404   0.879   1.047   2.118
13054WAT     H239405   1.021   1.006   2.049
13055WAT      O39406   1.984   3.886   0.728
13055WAT     H139407   1.909   3.868   0.792
13055WAT     H239408   1.973   3.977   0.688
13056WAT      O39409   9.798   0.450   6.293
13056WAT     H139410   9.817   0.358   6.330
13056WAT     H239411   9.705   0.451   6.255
13057WAT      O39412   5.734   3.528   0.319
13057WAT     H139413   5.812   3.541   0.380
13057WAT     H239414   5.765   3.480   0.236
13058WAT      O39415   4.860   7.308   9.145
13058WAT     H139416   4.911   7.309   9.232
13058WAT     H239417   4.781   7.369   9.152
13059WAT      O39418   2.639   0.269   9.161
13059WAT     H139419   2.601   0.212   9.089
13059WAT     H239420   2.660   0.360   9.125
13060WAT      O39421   3.029   6.274   2.601
13060WAT     H139422   3.041   6.180   2.631
13060WAT     H239423   3.010   6.332   2.681
13061WAT      O39424   5.668   2.365   9.168
13061WAT     H139425   5.592   2.311   9.134
13061WAT     H239426   5.654   2.384   9.266
13062WAT      O39427   7.309   1.322   7.261
13062WAT     H139428   7.268   1.240   7.221
13062WAT     H239429   7.276   1.402   7.211
13063WAT      O39430   7.252   7.078   6.124
13063WAT     H139431   7.167   7.030   6.105
13063WAT     H239432   7.306   7.025   6.191
13064WAT      O39433   5.767   1.270   4.169
13064WAT     H139434   5.748   1.278   4.071
13064WAT     H239435   5.852   1.218   4.182
13065WAT      O39436   6.172   2.821   3.006
13065WAT     H139437   6.201   2.845   2.913
13065WAT     H239438   6.133   2.728   3.005
13066WAT      O39439   9.162   0.822   0.402
13066WAT     H139440   9.151   0.735   0.354
13066WAT     H239441   9.084   0.881   0.384
13067WAT      O39442   2.550   1.320   7.782
13067WAT     H139443   2.509   1.410   7.767
13067WAT     H239444   2.615   1.301   7.707
13068WAT      O39445   6.624   7.585   7.514
13068WAT     H139446   6.551   7.544   7.460
13068WAT     H239447   6.688   7.632   7.453
13069WAT      O39448   3.549   5.107   3.796
13069WAT     H139449   3.640   5.149   3.804
13069WAT     H239450   3.479   5.172   3.825
13070WAT      O39451   3.835   5.919   0.227
13070WAT     H139452   3.775   5.964   0.294
13070WAT     H239453   3.784   5.846   0.182
13071WAT      O39454   6.851   7.583   9.445
13071WAT     H139455   6.814   7.509   9.388
13071WAT     H239456   6.800   7.667   9.428
13072WAT      O39457   8.991   8.022   9.175
13072WAT     H139458   8.960   7.936   9.217
13072WAT     H239459   9.045   8.074   9.241
13073WAT      O39460   5.148   9.537   7.661
13073WAT     H139461   5.232   9.563   7.613
13073WAT     H239462   5.097   9.619   7.687
13074WAT      O39463   7.913   2.023   2.959
13074WAT     H139464   7.848   2.009   3.034
13074WAT     H239465   7.906   1.946   2.895
13075WAT      O39466   9.032   5.155   3.565
13075WAT     H139467   9.112   5.125   3.514
13075WAT     H239468   9.026   5.255   3.562
13076WAT      O39469   4.544   0.649   9.193
13076WAT     H139470   4.565   0.635   9.289
13076WAT     H239471   4.624   0.687   9.146
13077WAT      O39472   5.991   0.089   5.980
13077WAT     H139473   5.915   0.099   6.043
13077WAT     H239474   5.956   0.082   5.886
13078WAT      O39475   2.042   9.464   0.894
13078WAT     H139476   1.944   9.473   0.911
13078WAT     H239477   2.060   9.475   0.796
13079WAT      O39478   7.114   7.623   6.116
13079WAT     H139479   7.018   7.607   6.141
13079WAT     H239480   7.138   7.565   6.039
13080WAT      O39481   8.051   2.554   2.984
13080WAT     H139482   8.103   2.564   3.068
13080WAT     H239483   7.968   2.500   3.002
13081WAT      O39484   6.486   0.502   5.554
13081WAT     H139485   6.500   0.416   5.603
13081WAT     H239486   6.565   0.561   5.567
13082WAT      O39487   4.553   5.674   6.882
13082WAT     H139488   4.602   5.761   6.883
13082WAT     H239489   4.614   5.601   6.914
13083WAT      O39490   4.381   4.673   9.259
13083WAT     H139491   4.356   4.591   9.310
13083WAT     H239492   4.480   4.682   9.255
13084WAT      O39493   8.747   0.036   5.891
13084WAT     H139494   8.837   0.073   5.914
13084WAT     H239495   8.711  -0.013   5.970
13085WAT      O39496   1.454   3.049   5.595
13085WAT     H139497   1.369   3.091   5.629
13085WAT     H239498   1.513   3.026   5.672
13086WAT      O39499   5.035   6.674   3.364
13086WAT     H139500   5.000   6.584   3.386
13086WAT     H239501   5.061   6.722   3.448
13087WAT      O39502   9.450   1.227   1.897
13087WAT     H139503   9.522   1.265   1.956
13087WAT     H239504   9.403   1.302   1.850
13088WAT      O39505   6.668   9.525   8.690
13088WAT     H139506   6.629   9.455   8.750
13088WAT     H239507   6.755   9.556   8.727
13089WAT      O39508   5.954   2.623   0.370
13089WAT     H139509   5.883   2.627   0.440
13089WAT     H239510   6.037   2.667   0.404
13090WAT      O39511   9.130   2.197   2.203
13090WAT     H139512   9.051   2.174   2.260
13090WAT     H239513   9.214   2.188   2.258
13091WAT      O39514   8.780   3.917   1.496
13091WAT     H139515   8.829   3.856   1.558
13091WAT     H239516   8.682   3.899   1.503
13092WAT      O39517   2.366   6.060   4.918
13092WAT     H139518   2.353   6.082   5.015
13092WAT     H239519   2.458   6.024   4.904
13093WAT      O39520   4.944   4.690   8.478
13093WAT     H139521   4.936   4.687   8.578
13093WAT     H239522   4.855   4.675   8.437
13094WAT      O39523   7.208   3.752   3.425
13094WAT     H139524   7.272   3.675   3.416
13094WAT     H239525   7.156   3.742   3.510
13095WAT      O39526   0.462   2.895   8.800
13095WAT     H139527   0.500   2.928   8.886
13095WAT     H239528   0.377   2.845   8.818
13096WAT      O39529   3.944   1.280   3.906
13096WAT     H139530   3.959   1.379   3.900
13096WAT     H239531   3.846   1.262   3.914
13097WAT      O39532   1.517   0.744   4.827
13097WAT     H139533   1.419   0.729   4.839
13097WAT     H239534   1.533   0.838   4.797
13098WAT      O39535   0.746   0.749   9.530
13098WAT     H139536   0.766   0.804   9.611
13098WAT     H239537   0.750   0.652   9.553
13099WAT      O39538   4.653   0.322   2.702
13099WAT     H139539   4.681   0.385   2.775
13099WAT     H239540   4.614   0.374   2.626
13100WAT      O39541   8.892   9.803   3.595
13100WAT     H139542   8.885   9.794   3.695
13100WAT     H239543   8.914   9.714   3.556
13101WAT      O39544   1.824   0.603   0.356
13101WAT     H139545   1.738   0.597   0.406
13101WAT     H239546   1.897   0.563   0.411
13102WAT      O39547   2.971   0.066   3.994
13102WAT     H139548   2.986   0.025   3.905
13102WAT     H239549   2.907   0.142   3.986
13103WAT      O39550   2.563   5.330   7.565
13103WAT     H139551   2.643   5.327   7.506
13103WAT     H239552   2.591   5.330   7.660
13104WAT      O39553   2.120   5.019   3.740
13104WAT     H139554   2.071   5.089   3.688
13104WAT     H239555   2.172   5.062   3.813
13105WAT      O39556   5.230   8.083   8.334
13105WAT     H139557   5.138   8.061   8.370
13105WAT     H239558   5.296   8.076   8.409
13106WAT      O39559   5.057   2.669   5.358
13106WAT     H139560   4.960   2.690   5.346
13106WAT     H239561   5.111   2.753   5.353
13107WAT      O39562   3.183   4.309   7.177
13107WAT     H139563   3.134   4.237   7.126
13107WAT     H239564   3.153   4.308   7.272
13108WAT      O39565   5.481   6.581   5.222
13108WAT     H139566   5.473   6.530   5.137
13108WAT     H239567   5.575   6.616   5.231
13109WAT      O39568   9.144   7.491   4.266
13109WAT     H139569   9.153   7.393   4.284
13109WAT     H239570   9.177   7.542   4.346
13110WAT      O39571   0.782   4.471   8.505
13110WAT     H139572   0.797   4.422   8.420
13110WAT     H239573   0.711   4.541   8.492
13111WAT      O39574   7.332   6.600   6.967
13111WAT     H139575   7.421   6.628   6.929
13111WAT     H239576   7.259   6.651   6.921
13112WAT      O39577   3.983   8.493   1.841
13112WAT     H139578   3.889   8.462   1.855
13112WAT     H239579   4.027   8.506   1.929
13113WAT      O39580   6.768   6.174   1.054
13113WAT     H139581   6.836   6.236   1.016
13113WAT     H239582   6.804   6.080   1.052
13114WAT      O39583   9.098   2.120   6.856
13114WAT     H139584   9.119   2.089   6.949
13114WAT     H239585   9.182   2.154   6.812
13115WAT      O39586   4.311   5.170   3.726
13115WAT     H139587   4.246   5.128   3.790
13115WAT     H239588   4.402   5.173   3.768
13116WAT      O39589   0.637   2.987   5.534
13116WAT     H139590   0.705   3.044   5.487
13116WAT     H239591   0.664   2.891   5.526
13117WAT      O39592   5.570   6.064   3.889
13117WAT     H139593   5.487   6.082   3.942
13117WAT     H239594   5.617   5.984   3.925
13118WAT      O39595   8.530   0.052   7.659
13118WAT     H139596   8.452  -0.005   7.686
13118WAT     H239597   8.561   0.024   7.569
13119WAT      O39598   0.456   3.509  -0.000
13119WAT     H139599   0.549   3.521  -0.036
13119WAT     H239600   0.461   3.468   0.091
13120WAT      O39601   5.691   7.640   7.600
13120WAT     H139602   5.690   7.737   7.575
13120WAT     H239603   5.679   7.631   7.699
13121WAT      O39604   0.348   6.708   7.633
13121WAT     H139605   0.439   6.694   7.593
13121WAT     H239606   0.336   6.646   7.710
13122WAT      O39607   2.000   5.771   5.764
13122WAT     H139608   1.952   5.688   5.790
13122WAT     H239609   1.988   5.786   5.666
13123WAT      O39610   2.230   7.553   3.573
13123WAT     H139611   2.219   7.465   3.620
13123WAT     H239612   2.327   7.577   3.571
13124WAT      O39613   1.396   1.729   9.251
13124WAT     H139614   1.323   1.781   9.295
13124WAT     H239615   1.358   1.674   9.177
13125WAT      O39616   9.604   0.199   7.923
13125WAT     H139617   9.558   0.212   7.835
13125WAT     H239618   9.576   0.272   7.986
13126WAT      O39619   1.422   7.599   4.421
13126WAT     H139620   1.426   7.635   4.328
13126WAT     H239621   1.350   7.530   4.427
13127WAT      O39622   1.360   7.931   2.235
13127WAT     H139623   1.440   7.947   2.292
13127WAT     H239624   1.277   7.941   2.291
13128WAT      O39625   4.491   1.713   9.491
13128WAT     H139626   4.496   1.678   9.397
13128WAT     H239627   4.440   1.799   9.492
13129WAT      O39628   7.006   0.475   8.016
13129WAT     H139629   7.023   0.472   7.917
13129WAT     H239630   6.958   0.560   8.038
13130WAT      O39631   7.243   9.365   6.209
13130WAT     H139632   7.279   9.394   6.297
13130WAT     H239633   7.318   9.344   6.147
13131WAT      O39634   1.214   8.290   2.731
13131WAT     H139635   1.126   8.246   2.751
13131WAT     H239636   1.214   8.321   2.635
13132WAT      O39637   9.595   3.007   2.621
13132WAT     H139638   9.666   3.074   2.640
13132WAT     H239639   9.509   3.054   2.603
13133WAT      O39640   7.641   3.963   4.055
13133WAT     H139641   7.723   3.923   4.014
13133WAT     H239642   7.580   3.996   3.983
13134WAT      O39643   3.705   9.814   4.793
13134WAT     H139644   3.762   9.897   4.800
13134WAT     H239645   3.651   9.819   4.709
13135WAT      O39646   0.056   3.273   8.360
13135WAT     H139647   0.108   3.354   8.389
13135WAT     H239648   0.068   3.200   8.426
13136WAT      O39649   0.715   9.071   7.176
13136WAT     H139650   0.709   9.147   7.111
13136WAT     H239651   0.658   9.092   7.256
13137WAT      O39652   2.837   1.584   9.711
13137WAT     H139653   2.862   1.504   9.767
13137WAT     H239654   2.795   1.653   9.769
13138WAT      O39655   0.037   2.653   6.163
13138WAT     H139656  -0.004   2.657   6.072
13138WAT     H239657   0.079   2.564   6.177
13139WAT      O39658   6.864   6.634   7.815
13139WAT     H139659   6.769   6.607   7.799
13139WAT     H239660   6.867   6.710   7.880
13140WAT      O39661   8.255   6.002   1.923
13140WAT     H139662   8.317   6.081   1.918
13140WAT     H239663   8.183   6.012   1.855
13141WAT      O39664   7.240   3.194   9.153
13141WAT     H139665   7.229   3.242   9.066
13141WAT     H239666   7.333   3.209   9.187
13142WAT      O39667   7.011   9.139   5.596
13142WAT     H139668   6.930   9.083   5.577
13142WAT     H239669   7.045   9.119   5.687
13143WAT      O39670   2.681   1.622   4.677
13143WAT     H139671   2.687   1.689   4.602
13143WAT     H239672   2.750   1.645   4.747
13144WAT      O39673   7.440   7.546   3.009
13144WAT     H139674   7.427   7.447   3.012
13144WAT     H239675   7.485   7.576   3.093
13145WAT      O39676   9.258   1.617   7.903
13145WAT     H139677   9.201   1.635   7.822
13145WAT     H239678   9.267   1.518   7.916
13146WAT      O39679   5.398   2.188   0.364
13146WAT     H139680   5.420   2.224   0.273
13146WAT     H239681   5.475   2.136   0.399
13147WAT      O39682   6.462   8.795   5.528
13147WAT     H139683   6.397   8.720   5.517
13147WAT     H239684   6.479   8.811   5.625
13148WAT      O39685   1.050   9.453   7.688
13148WAT     H139686   0.965   9.461   7.739
13148WAT     H239687   1.031   9.428   7.593
13149WAT      O39688   5.042   3.662   5.852
13149WAT     H139689   5.089   3.750   5.851
13149WAT     H239690   5.057   3.617   5.940
13150WAT      O39691   0.459   8.019   5.679
13150WAT     H139692   0.427   8.079   5.606
13150WAT     H239693   0.558   8.010   5.673
13151WAT      O39694   7.657   0.962   7.032
13151WAT     H139695   7.634   0.931   7.124
13151WAT     H239696   7.757   0.960   7.020
13152WAT      O39697   9.293   1.705   6.174
13152WAT     H139698   9.212   1.693   6.232
13152WAT     H239699   9.342   1.618   6.167
13153WAT      O39700   7.566   1.014   7.760
13153WAT     H139701   7.644   1.068   7.728
13153WAT     H239702   7.590   0.969   7.846
13154WAT      O39703   3.557   2.626   7.899
13154WAT     H139704   3.644   2.670   7.921
13154WAT     H239705   3.487   2.696   7.884
13155WAT      O39706   6.680   8.135   4.204
13155WAT     H139707   6.637   8.074   4.271
13155WAT     H239708   6.636   8.122   4.115
13156WAT      O39709   1.926   8.632   4.954
13156WAT     H139710   1.833   8.663   4.969
13156WAT     H239711   1.989   8.709   4.960
13157WAT      O39712   2.244   7.507   2.670
13157WAT     H139713   2.291   7.552   2.746
13157WAT     H239714   2.195   7.427   2.704
13158WAT      O39715   8.575   0.245   5.489
13158WAT     H139716   8.497   0.292   5.448
13158WAT     H239717   8.613   0.180   5.424
13159WAT      O39718   8.839   4.060   8.472
13159WAT     H139719   8.853   3.988   8.540
13159WAT     H239720   8.911   4.128   8.480
13160WAT      O39721   5.392   5.501   8.867
13160WAT     H139722   5.385   5.435   8.792
13160WAT     H239723   5.368   5.457   8.953
13161WAT      O39724   5.895   1.904   5.198
13161WAT     H139725   5.950   1.947   5.127
13161WAT     H239726   5.809   1.954   5.208
13162WAT      O39727   0.738   7.689   1.206
13162WAT     H139728   0.712   7.678   1.302
13162WAT     H239729   0.832   7.659   1.194
13163WAT      O39730   7.111   8.887   8.355
13163WAT     H139731   7.030   8.884   8.297
13163WAT     H239732   7.176   8.817   8.326
13164WAT      O39733   0.723   6.418   3.915
13164WAT     H139734   0.739   6.502   3.863
13164WAT     H239735   0.638   6.427   3.967
13165WAT      O39736   6.300   2.854   3.795
13165WAT     H139737   6.319   2.918   3.720
13165WAT     H239738   6.295   2.905   3.881
13166WAT      O39739   1.699   8.436   5.369
13166WAT     H139740   1.618   8.490   5.392
13166WAT     H239741   1.780   8.484   5.402
13167WAT      O39742   7.618   8.532   0.042
13167WAT     H139743   7.628   8.489  -0.048
13167WAT     H239744   7.630   8.463   0.114
13168WAT      O39745   2.556   4.451   2.494
13168WAT     H139746   2.575   4.417   2.587
13168WAT     H239747   2.482   4.517   2.497
13169WAT      O39748   2.816   3.718   2.330
13169WAT     H139749   2.720   3.710   2.357
13169WAT     H239750   2.822   3.712   2.230
13170WAT      O39751   8.926   4.463   9.716
13170WAT     H139752   8.847   4.402   9.717
13170WAT     H239753   9.010   4.408   9.713
13171WAT      O39754   3.631   3.248   6.991
13171WAT     H139755   3.543   3.238   6.943
13171WAT     H239756   3.683   3.323   6.951
13172WAT      O39757   0.248   2.750   3.360
13172WAT     H139758   0.324   2.735   3.296
13172WAT     H239759   0.283   2.745   3.454
13173WAT      O39760   9.504   3.688   5.997
13173WAT     H139761   9.434   3.711   5.929
13173WAT     H239762   9.566   3.765   6.009
13174WAT      O39763   4.462   6.194   5.459
13174WAT     H139764   4.446   6.207   5.557
13174WAT     H239765   4.471   6.096   5.440
13175WAT      O39766   7.484   9.838   1.782
13175WAT     H139767   7.535   9.763   1.823
13175WAT     H239768   7.532   9.872   1.701
13176WAT      O39769   3.455   6.861   1.258
13176WAT     H139770   3.444   6.845   1.160
13176WAT     H239771   3.452   6.774   1.307
13177WAT      O39772   4.414   5.887   7.371
13177WAT     H139773   4.432   5.897   7.273
13177WAT     H239774   4.430   5.793   7.399
13178WAT      O39775   7.009   7.342   5.843
13178WAT     H139776   6.993   7.301   5.933
13178WAT     H239777   7.098   7.388   5.843
13179WAT      O39778   1.243   1.908   9.401
13179WAT     H139779   1.278   1.996   9.369
13179WAT     H239780   1.304   1.872   9.472
13180WAT      O39781   0.217   5.177   0.213
13180WAT     H139782   0.310   5.145   0.229
13180WAT     H239783   0.158   5.150   0.289
13181WAT      O39784   9.817   3.014   5.311
13181WAT     H139785   9.727   3.039   5.346
13181WAT     H239786   9.879   3.092   5.319
13182WAT      O39787   6.272   5.394   1.217
13182WAT     H139788   6.333   5.333   1.268
13182WAT     H239789   6.310   5.408   1.125
13183WAT      O39790   5.799   0.453   1.699
13183WAT     H139791   5.765   0.510   1.625
13183WAT     H239792   5.777   0.495   1.787
13184WAT      O39793   2.527   4.259   2.951
13184WAT     H139794   2.606   4.278   3.009
13184WAT     H239795   2.492   4.167   2.971
13185WAT      O39796   6.305   9.287   5.739
13185WAT     H139797   6.329   9.196   5.704
13185WAT     H239798   6.363   9.355   5.696
13186WAT      O39799   0.658   6.448   6.888
13186WAT     H139800   0.626   6.430   6.795
13186WAT     H239801   0.730   6.383   6.912
13187WAT      O39802   6.154   2.133   7.864
13187WAT     H139803   6.211   2.209   7.834
13187WAT     H239804   6.205   2.048   7.855
13188WAT      O39805   6.750   4.404   3.412
13188WAT     H139806   6.785   4.322   3.459
13188WAT     H239807   6.652   4.414   3.430
13189WAT      O39808   2.914   4.294   6.673
13189WAT     H139809   3.013   4.304   6.664
13189WAT     H239810   2.878   4.245   6.594
13190WAT      O39811   9.765   6.873   6.285
13190WAT     H139812   9.821   6.866   6.367
13190WAT     H239813   9.812   6.828   6.208
13191WAT      O39814   2.045   2.703   1.528
13191WAT     H139815   2.105   2.640   1.479
13191WAT     H239816   2.076   2.797   1.513
13192WAT      O39817   8.818   6.442   9.132
13192WAT     H139818   8.906   6.461   9.089
13192WAT     H239819   8.755   6.404   9.064
13193WAT      O39820   7.254   4.053   8.477
13193WAT     H139821   7.202   3.968   8.492
13193WAT     H239822   7.260   4.071   8.379
13194WAT      O39823   7.139   5.240   8.329
13194WAT     H139824   7.145   5.283   8.239
13194WAT     H239825   7.220   5.262   8.383
13195WAT      O39826   8.708   0.412   5.978
13195WAT     H139827   8.751   0.437   6.065
13195WAT     H239828   8.643   0.483   5.951
13196WAT      O39829   4.197   0.563   5.705
13196WAT     H139830   4.212   0.480   5.652
13196WAT     H239831   4.128   0.546   5.775
13197WAT      O39832   9.387   4.737   5.020
13197WAT     H139833   9.302   4.725   5.070
13197WAT     H239834   9.385   4.682   4.936
13198WAT      O39835   6.381   8.156   4.256
13198WAT     H139836   6.376   8.222   4.331
13198WAT     H239837   6.427   8.074   4.287
13199WAT      O39838   9.259   5.909   8.140
13199WAT     H139839   9.162   5.931   8.150
13199WAT     H239840   9.314   5.988   8.169
13200WAT      O39841   7.877   5.250   1.411
13200WAT     H139842   7.913   5.162   1.442
13200WAT     H239843   7.918   5.273   1.323
13201WAT      O39844   1.596   9.046   7.126
13201WAT     H139845   1.624   9.045   7.030
13201WAT     H239846   1.503   9.083   7.133
13202WAT      O39847   2.602   1.599   2.587
13202WAT     H139848   2.562   1.573   2.499
13202WAT     H239849   2.531   1.598   2.657
13203WAT      O39850   7.260   3.667   5.838
13203WAT     H139851   7.343   3.702   5.794
13203WAT     H239852   7.282   3.584   5.889
13204WAT      O39853   4.137   0.955   0.525
13204WAT     H139854   4.233   0.979   0.512
13204WAT     H239855   4.104   0.994   0.612
13205WAT      O39856   4.579   0.553   8.482
13205WAT     H139857   4.593   0.600   8.395
13205WAT     H239858   4.626   0.602   8.555
13206WAT      O39859   0.556   1.715   6.929
13206WAT     H139860   0.478   1.660   6.961
13206WAT     H239861   0.628   1.654   6.897
13207WAT      O39862   9.709   1.075   3.112
13207WAT     H139863   9.664   1.158   3.077
13207WAT     H239864   9.680   1.060   3.207
13208WAT      O39865   4.855   2.607   4.155
13208WAT     H139866   4.782   2.541   4.136
13208WAT     H239867   4.935   2.585   4.100
13209WAT      O39868   5.294   6.862   9.629
13209WAT     H139869   5.389   6.893   9.636
13209WAT     H239870   5.263   6.829   9.717
13210WAT      O39871   9.054   7.142   9.716
13210WAT     H139872   9.063   7.164   9.813
13210WAT     H239873   9.135   7.174   9.666
13211WAT      O39874   5.734   6.508   7.259
13211WAT     H139875   5.734   6.464   7.349
13211WAT     H239876   5.827   6.507   7.222
13212WAT      O39877   6.630   5.215   7.657
13212WAT     H139878   6.718   5.171   7.678
13212WAT     H239879   6.567   5.201   7.733
13213WAT      O39880   5.963   7.477   5.037
13213WAT     H139881   5.985   7.558   5.091
13213WAT     H239882   5.987   7.493   4.941
13214WAT      O39883   8.982   9.791   0.651
13214WAT     H139884   8.897   9.845   0.650
13214WAT     H239885   9.018   9.788   0.745
13215WAT      O39886   2.742   3.533   4.860
13215WAT     H139887   2.668   3.468   4.876
13215WAT     H239888   2.818   3.487   4.815
13216WAT      O39889   6.641   9.379   4.930
13216WAT     H139890   6.614   9.339   4.843
13216WAT     H239891   6.698   9.459   4.915
13217WAT      O39892   3.006   3.986   6.814
13217WAT     H139893   2.932   4.034   6.766
13217WAT     H239894   3.088   3.986   6.757
13218WAT      O39895   1.799   8.519   3.256
13218WAT     H139896   1.802   8.438   3.314
13218WAT     H239897   1.746   8.499   3.174
13219WAT      O39898   2.426   6.653   5.258
13219WAT     H139899   2.401   6.561   5.291
13219WAT     H239900   2.344   6.701   5.229
13220WAT      O39901   0.257   0.844   7.889
13220WAT     H139902   0.234   0.767   7.830
13220WAT     H239903   0.311   0.911   7.837
13221WAT      O39904   1.547   3.519   0.334
13221WAT     H139905   1.604   3.480   0.407
13221WAT     H239906   1.529   3.615   0.354
13222WAT      O39907   1.399   1.421   8.178
13222WAT     H139908   1.496   1.406   8.164
13222WAT     H239909   1.373   1.390   8.270
13223WAT      O39910   7.260   0.462   5.186
13223WAT     H139911   7.337   0.417   5.231
13223WAT     H239912   7.292   0.513   5.106
13224WAT      O39913   0.264   3.896   1.060
13224WAT     H139914   0.252   3.837   0.980
13224WAT     H239915   0.204   3.975   1.052
13225WAT      O39916   1.960   6.890   7.139
13225WAT     H139917   2.007   6.927   7.219
13225WAT     H239918   1.890   6.955   7.109
13226WAT      O39919   1.448   2.632   8.421
13226WAT     H139920   1.348   2.628   8.431
13226WAT     H239921   1.472   2.709   8.362
13227WAT      O39922   5.683   9.280   4.340
13227WAT     H139923   5.687   9.208   4.410
13227WAT     H239924   5.685   9.238   4.249
13228WAT      O39925   9.673   1.670   9.672
13228WAT     H139926   9.718   1.593   9.716
13228WAT     H239927   9.742   1.738   9.645
13229WAT      O39928   6.404   0.655   0.591
13229WAT     H139929   6.468   0.706   0.649
13229WAT     H239930   6.406   0.558   0.618
13230WAT      O39931   3.440   1.758   0.709
13230WAT     H139932   3.437   1.672   0.658
13230WAT     H239933   3.493   1.825   0.659
13231WAT      O39934   4.117   2.967   7.670
13231WAT     H139935   4.208   3.009   7.668
13231WAT     H239936   4.097   2.927   7.580
13232WAT      O39937   7.192   5.134   2.996
13232WAT     H139938   7.198   5.089   3.085
13232WAT     H239939   7.284   5.139   2.955
13233WAT      O39940   2.345   7.871   3.379
13233WAT     H139941   2.272   7.924   3.337
13233WAT     H239942   2.369   7.911   3.468
13234WAT      O39943   7.629   4.774   9.707
13234WAT     H139944   7.564   4.703   9.680
13234WAT     H239945   7.652   4.763   9.804
13235WAT      O39946   9.428   8.974   7.609
13235WAT     H139947   9.418   8.972   7.510
13235WAT     H239948   9.460   9.064   7.638
13236WAT      O39949   4.654   9.776   9.653
13236WAT     H139950   4.706   9.861   9.645
13236WAT     H239951   4.657   9.744   9.748
13237WAT      O39952   0.208   8.672   7.429
13237WAT     H139953   0.115   8.645   7.405
13237WAT     H239954   0.211   8.771   7.445
13238WAT      O39955   1.409   2.726   4.833
13238WAT     H139956   1.310   2.720   4.840
13238WAT     H239957   1.436   2.715   4.737
13239WAT      O39958   8.379   9.838   0.834
13239WAT     H139959   8.388   9.841   0.934
13239WAT     H239960   8.440   9.768   0.797
13240WAT      O39961   6.647   4.772   3.178
13240WAT     H139962   6.666   4.854   3.124
13240WAT     H239963   6.667   4.790   3.275
13241WAT      O39964   5.314   5.133   1.970
13241WAT     H139965   5.406   5.099   1.989
13241WAT     H239966   5.318   5.203   1.898
13242WAT      O39967   3.156   9.370   3.437
13242WAT     H139968   3.203   9.437   3.494
13242WAT     H239969   3.091   9.318   3.493
13243WAT      O39970   1.405   1.782   2.880
13243WAT     H139971   1.461   1.830   2.813
13243WAT     H239972   1.451   1.784   2.969
13244WAT      O39973   6.165   6.643   2.525
13244WAT     H139974   6.072   6.629   2.492
13244WAT     H239975   6.172   6.611   2.620
13245WAT      O39976   7.717   3.428   0.475
13245WAT     H139977   7.655   3.406   0.400
13245WAT     H239978   7.803   3.379   0.463
13246WAT      O39979   1.864   1.433   9.210
13246WAT     H139980   1.947   1.427   9.155
13246WAT     H239981   1.885   1.410   9.305
13247WAT      O39982   6.790   3.564   1.831
13247WAT     H139983   6.758   3.639   1.889
13247WAT     H239984   6.714   3.527   1.778
13248WAT      O39985   2.400   9.353   5.129
13248WAT     H139986   2.457   9.274   5.151
13248WAT     H239987   2.450   9.414   5.069
13249WAT      O39988   2.396   8.421   0.164
13249WAT     H139989   2.316   8.476   0.187
13249WAT     H239990   2.473   8.449   0.221
13250WAT      O39991   3.392   2.063   2.926
13250WAT     H139992   3.306   2.055   2.876
13250WAT     H239993   3.384   2.016   3.014
13251WAT      O39994   5.164   3.150   3.008
13251WAT     H139995   5.129   3.062   3.041
13251WAT     H239996   5.144   3.221   3.075
13252WAT      O39997   8.075   2.144   4.502
13252WAT     H139998   8.162   2.164   4.457
13252WAT     H239999   8.090   2.081   4.578
13253WAT      O40000   1.118   9.249   4.311
13253WAT     H140001   1.210   9.237   4.347
13253WAT     H240002   1.123   9.289   4.220
13254WAT      O40003   3.181   3.633   8.055
13254WAT     H140004   3.124   3.715   8.050
13254WAT     H240005   3.225   3.628   8.144
13255WAT      O40006   0.173   7.348   5.723
13255WAT     H140007   0.265   7.335   5.759
13255WAT     H240008   0.168   7.311   5.630
13256WAT      O40009   7.452   2.495   4.747
13256WAT     H140010   7.411   2.408   4.775
13256WAT     H240011   7.379   2.561   4.729
13257WAT      O40012   3.985   0.213   6.114
13257WAT     H140013   3.990   0.162   6.200
13257WAT     H240014   4.064   0.273   6.106
13258WAT      O40015   7.699   2.312   4.941
13258WAT     H140016   7.623   2.351   4.993
13258WAT     H240017   7.706   2.358   4.852
13259WAT      O40018   4.293   0.156   2.451
13259WAT     H140019   4.345   0.144   2.536
13259WAT     H240020   4.273   0.066   2.411
13260WAT      O40021   8.310   5.417   1.836
13260WAT     H140022   8.358   5.482   1.895
13260WAT     H240023   8.374   5.380   1.768
13261WAT      O40024   3.961   2.130   0.745
13261WAT     H140025   3.961   2.153   0.648
13261WAT     H240026   4.017   2.196   0.796
13262WAT      O40027   9.004   5.456   4.725
13262WAT     H140028   9.040   5.516   4.796
13262WAT     H240029   8.909   5.432   4.745
13263WAT      O40030   5.670   1.835   7.538
13263WAT     H140031   5.611   1.756   7.556
13263WAT     H240032   5.727   1.853   7.618
13264WAT      O40033   9.013   8.061   4.444
13264WAT     H140034   9.022   7.965   4.472
13264WAT     H240035   8.923   8.095   4.472
13265WAT      O40036   6.509   6.334   3.099
13265WAT     H140037   6.582   6.373   3.041
13265WAT     H240038   6.479   6.247   3.061
13266WAT      O40039   9.330   1.534   3.700
13266WAT     H140040   9.350   1.540   3.602
13266WAT     H240041   9.316   1.626   3.736
13267WAT      O40042   9.622   7.872   3.889
13267WAT     H140043   9.523   7.862   3.876
13267WAT     H240044   9.648   7.837   3.979
13268WAT      O40045   9.438   4.014   0.021
13268WAT     H140046   9.522   3.990  -0.028
13268WAT     H240047   9.461   4.059   0.107
13269WAT      O40048   1.358   9.080   4.045
13269WAT     H140049   1.436   9.130   4.008
13269WAT     H240050   1.294   9.059   3.971
13270WAT      O40051   6.525   2.222   6.042
13270WAT     H140052   6.593   2.281   6.000
13270WAT     H240053   6.570   2.154   6.100
13271WAT      O40054   0.945   5.248   4.821
13271WAT     H140055   0.868   5.261   4.760
13271WAT     H240056   0.939   5.158   4.865
13272WAT      O40057   5.952   4.449   8.508
13272WAT     H140058   5.894   4.381   8.554
13272WAT     H240059   6.040   4.407   8.485
13273WAT      O40060   0.936   6.247   3.191
13273WAT     H140061   0.897   6.266   3.101
13273WAT     H240062   0.899   6.160   3.226
13274WAT      O40063   6.515   6.036   9.447
13274WAT     H140064   6.478   6.098   9.517
13274WAT     H240065   6.443   6.015   9.380
13275WAT      O40066   7.207   2.735   1.404
13275WAT     H140067   7.148   2.799   1.354
13275WAT     H240068   7.282   2.786   1.446
13276WAT      O40069   0.845   1.578   6.840
13276WAT     H140070   0.915   1.603   6.773
13276WAT     H240071   0.871   1.493   6.886
13277WAT      O40072   6.873   3.282   6.516
13277WAT     H140073   6.969   3.256   6.507
13277WAT     H240074   6.865   3.365   6.571
13278WAT      O40075   4.521   9.320   5.762
13278WAT     H140076   4.429   9.302   5.727
13278WAT     H240077   4.521   9.308   5.862
13279WAT      O40078   2.438   6.499   2.437
13279WAT     H140079   2.491   6.485   2.353
13279WAT     H240080   2.400   6.413   2.468
13280WAT      O40081   6.214   2.768   9.248
13280WAT     H140082   6.209   2.860   9.209
13280WAT     H240083   6.124   2.725   9.246
13281WAT      O40084   4.113   3.588   0.856
13281WAT     H140085   4.031   3.533   0.842
13281WAT     H240086   4.132   3.642   0.774
13282WAT      O40087   4.464   4.387   8.526
13282WAT     H140088   4.364   4.395   8.526
13282WAT     H240089   4.491   4.302   8.570
13283WAT      O40090   5.911   7.017   1.558
13283WAT     H140091   5.877   7.111   1.553
13283WAT     H240092   5.855   6.958   1.500
13284WAT      O40093   2.462   4.141   3.503
13284WAT     H140094   2.374   4.133   3.548
13284WAT     H240095   2.527   4.076   3.544
13285WAT      O40096   6.719   7.987   6.658
13285WAT     H140097   6.735   7.888   6.663
13285WAT     H240098   6.799   8.035   6.691
13286WAT      O40099   0.167   6.132   9.116
13286WAT     H140100   0.069   6.132   9.136
13286WAT     H240101   0.205   6.222   9.136
13287WAT      O40102   0.586   2.094   3.287
13287WAT     H140103   0.499   2.122   3.327
13287WAT     H240104   0.596   1.995   3.293
13288WAT      O40105   8.502   9.548   6.974
13288WAT     H140106   8.545   9.499   6.898
13288WAT     H240107   8.478   9.641   6.945
13289WAT      O40108   1.655   7.099   0.709
13289WAT     H140109   1.618   7.010   0.683
13289WAT     H240110   1.595   7.142   0.776
13290WAT      O40111   1.336   4.046   5.168
13290WAT     H140112   1.311   3.992   5.247
13290WAT     H240113   1.260   4.105   5.142
13291WAT      O40114   7.731   6.351   2.262
13291WAT     H140115   7.710   6.392   2.351
13291WAT     H240116   7.646   6.328   2.215
13292WAT      O40117   0.283   2.130   3.888
13292WAT     H140118   0.365   2.098   3.842
13292WAT     H240119   0.279   2.092   3.980
13293WAT      O40120   2.777   5.028   5.736
13293WAT     H140121   2.801   5.114   5.691
13293WAT     H240122   2.828   4.952   5.695
13294WAT      O40123   7.485   5.508   2.585
13294WAT     H140124   7.506   5.505   2.487
13294WAT     H240125   7.441   5.595   2.608
13295WAT      O40126   4.292   5.123   4.870
13295WAT     H140127   4.229   5.185   4.917
13295WAT     H240128   4.386   5.151   4.887
13296WAT      O40129   8.584   5.466   6.668
13296WAT     H140130   8.675   5.435   6.695
13296WAT     H240131   8.521   5.388   6.664
13297WAT      O40132   7.621   8.305   1.819
13297WAT     H140133   7.544   8.251   1.785
13297WAT     H240134   7.617   8.398   1.782
13298WAT      O40135   0.247   0.577   9.161
13298WAT     H140136   0.276   0.619   9.247
13298WAT     H240137   0.326   0.564   9.102
13299WAT      O40138   1.428   5.036   3.075
13299WAT     H140139   1.395   4.995   3.160
13299WAT     H240140   1.398   4.981   2.997
13300WAT      O40141   5.137   8.507   6.897
13300WAT     H140142   5.213   8.488   6.959
13300WAT     H240143   5.120   8.605   6.894
13301WAT      O40144   9.204   9.049   3.513
13301WAT     H140145   9.184   8.988   3.436
13301WAT     H240146   9.229   9.139   3.478
13302WAT      O40147   9.106   2.471   3.447
13302WAT     H140148   9.133   2.376   3.431
13302WAT     H240149   9.075   2.512   3.361
13303WAT      O40150   8.667   4.361   3.170
13303WAT     H140151   8.767   4.361   3.176
13303WAT     H240152   8.638   4.289   3.107
13304WAT      O40153   1.214   0.734   1.128
13304WAT     H140154   1.196   0.640   1.100
13304WAT     H240155   1.130   0.788   1.120
13305WAT      O40156   1.900   2.114   5.559
13305WAT     H140157   1.987   2.067   5.548
13305WAT     H240158   1.911   2.210   5.537
13306WAT      O40159   6.516   7.762   9.536
13306WAT     H140160   6.552   7.711   9.458
13306WAT     H240161   6.432   7.720   9.568
13307WAT      O40162   3.325   9.634   6.330
13307WAT     H140163   3.294   9.680   6.414
13307WAT     H240164   3.347   9.703   6.261
13308WAT      O40165   0.132   6.710   1.072
13308WAT     H140166   0.149   6.614   1.094
13308WAT     H240167   0.102   6.718   0.977
13309WAT      O40168   0.343   6.733   3.675
13309WAT     H140169   0.273   6.798   3.644
13309WAT     H240170   0.392   6.697   3.596
13310WAT      O40171   1.631   3.802   7.211
13310WAT     H140172   1.563   3.808   7.138
13310WAT     H240173   1.590   3.832   7.297
13311WAT      O40174   4.265   1.692   4.847
13311WAT     H140175   4.228   1.644   4.926
13311WAT     H240176   4.364   1.679   4.842
13312WAT      O40177   2.909   7.031   5.245
13312WAT     H140178   2.957   7.091   5.309
13312WAT     H240179   2.974   6.967   5.205
13313WAT      O40180   0.042   3.070   6.636
13313WAT     H140181  -0.051   3.078   6.669
13313WAT     H240182   0.084   2.987   6.672
13314WAT      O40183   0.988   7.904   1.049
13314WAT     H140184   1.023   7.959   1.125
13314WAT     H240185   0.890   7.922   1.038
13315WAT      O40186   0.951   2.112   4.357
13315WAT     H140187   0.878   2.107   4.425
13315WAT     H240188   0.922   2.066   4.273
13316WAT      O40189   7.273   5.840   3.975
13316WAT     H140190   7.291   5.928   3.931
13316WAT     H240191   7.185   5.845   4.023
13317WAT      O40192   4.539   8.815   0.763
13317WAT     H140193   4.556   8.820   0.862
13317WAT     H240194   4.520   8.907   0.728
13318WAT      O40195   1.583   5.191   8.615
13318WAT     H140196   1.514   5.228   8.553
13318WAT     H240197   1.646   5.132   8.565
13319WAT      O40198   4.541   0.759   6.834
13319WAT     H140199   4.515   0.703   6.755
13319WAT     H240200   4.458   0.791   6.881
13320WAT      O40201   9.179   3.857   3.761
13320WAT     H140202   9.267   3.883   3.802
13320WAT     H240203   9.108   3.857   3.831
13321WAT      O40204   9.154   8.129   2.635
13321WAT     H140205   9.168   8.040   2.678
13321WAT     H240206   9.098   8.118   2.553
13322WAT      O40207   0.274   3.728   0.854
13322WAT     H140208   0.242   3.641   0.817
13322WAT     H240209   0.337   3.771   0.789
13323WAT      O40210   0.815   4.908   9.007
13323WAT     H140211   0.872   4.953   9.075
13323WAT     H240212   0.800   4.970   8.929
13324WAT      O40213   4.803   2.168   2.046
13324WAT     H140214   4.837   2.196   1.957
13324WAT     H240215   4.735   2.095   2.035
13325WAT      O40216   0.809   9.102   3.569
13325WAT     H140217   0.759   9.019   3.595
13325WAT     H240218   0.818   9.162   3.648
13326WAT      O40219   4.550   9.792   8.817
13326WAT     H140220   4.597   9.737   8.886
13326WAT     H240221   4.464   9.826   8.854
13327WAT      O40222   2.236   1.868   4.419
13327WAT     H140223   2.187   1.909   4.342
13327WAT     H240224   2.277   1.782   4.390
13328WAT      O40225   6.604   1.570   7.855
13328WAT     H140226   6.615   1.669   7.860
13328WAT     H240227   6.628   1.538   7.763
13329WAT      O40228   8.006   1.523   3.442
13329WAT     H140229   7.999   1.496   3.345
13329WAT     H240230   7.976   1.618   3.452
13330WAT      O40231   8.908   6.174   9.200
13330WAT     H140232   8.872   6.137   9.114
13330WAT     H240233   8.907   6.274   9.196
13331WAT      O40234   9.539   1.192   4.287
13331WAT     H140235   9.608   1.250   4.244
13331WAT     H240236   9.572   1.098   4.290
13332WAT      O40237   6.838   9.228   0.422
13332WAT     H140238   6.822   9.154   0.356
13332WAT     H240239   6.753   9.247   0.472
13333WAT      O40240   4.074   7.820   5.741
13333WAT     H140241   4.041   7.834   5.834
13333WAT     H240242   4.158   7.766   5.743
13334WAT      O40243   1.623   9.353   5.500
13334WAT     H140244   1.672   9.365   5.413
13334WAT     H240245   1.645   9.264   5.540
13335WAT      O40246   1.546   0.078   6.838
13335WAT     H140247   1.589   0.168   6.828
13335WAT     H240248   1.457   0.089   6.882
13336WAT      O40249   0.537   7.111   4.023
13336WAT     H140250   0.528   7.037   3.957
13336WAT     H240251   0.566   7.194   3.976
13337WAT      O40252   5.889   2.632   2.033
13337WAT     H140253   5.849   2.711   1.987
13337WAT     H240254   5.868   2.636   2.131
13338WAT      O40255   1.661   0.587   3.328
13338WAT     H140256   1.712   0.584   3.414
13338WAT     H240257   1.566   0.611   3.347
13339WAT      O40258   8.189   2.577   7.998
13339WAT     H140259   8.276   2.592   7.951
13339WAT     H240260   8.148   2.492   7.965
13340WAT      O40261   1.063   2.678   1.699
13340WAT     H140262   1.113   2.592   1.704
13340WAT     H240263   1.033   2.704   1.791
13341WAT      O40264   3.038   6.783   0.417
13341WAT     H140265   2.983   6.732   0.351
13341WAT     H240266   3.094   6.720   0.470
13342WAT      O40267   1.282   8.579   7.655
13342WAT     H140268   1.196   8.630   7.662
13342WAT     H240269   1.269   8.499   7.596
13343WAT      O40270   7.884   1.760   3.732
13343WAT     H140271   7.835   1.841   3.764
13343WAT     H240272   7.925   1.778   3.643
13344WAT      O40273   6.385   3.964   1.743
13344WAT     H140274   6.449   3.891   1.765
13344WAT     H240275   6.435   4.051   1.734
13345WAT      O40276   0.920   3.446   8.859
13345WAT     H140277   0.997   3.476   8.915
13345WAT     H240278   0.933   3.478   8.765
13346WAT      O40279   0.389   4.020   0.305
13346WAT     H140280   0.422   3.969   0.226
13346WAT     H240281   0.343   4.103   0.274
13347WAT      O40282   4.890   5.762   2.658
13347WAT     H140283   4.917   5.723   2.746
13347WAT     H240284   4.886   5.690   2.589
13348WAT      O40285   8.134   1.399   2.567
13348WAT     H140286   8.171   1.492   2.558
13348WAT     H240287   8.175   1.340   2.497
13349WAT      O40288   5.688   7.305   2.030
13349WAT     H140289   5.742   7.334   1.951
13349WAT     H240290   5.724   7.219   2.065
13350WAT      O40291   6.520   3.891   5.935
13350WAT     H140292   6.517   3.828   6.012
13350WAT     H240293   6.598   3.868   5.876
13351WAT      O40294   5.676   9.152   7.581
13351WAT     H140295   5.612   9.089   7.625
13351WAT     H240296   5.642   9.246   7.590
13352WAT      O40297   2.630   8.925   2.934
13352WAT     H140298   2.537   8.897   2.910
13352WAT     H240299   2.652   8.894   3.026
13353WAT      O40300   9.642   8.631   7.888
13353WAT     H140301   9.678   8.552   7.837
13353WAT     H240302   9.650   8.713   7.832
13354WAT      O40303   9.479   8.948   2.351
13354WAT     H140304   9.507   9.011   2.279
13354WAT     H240305   9.503   8.854   2.324
13355WAT      O40306   0.647   5.052   3.605
13355WAT     H140307   0.723   5.100   3.562
13355WAT     H240308   0.680   5.000   3.684
13356WAT      O40309   9.462   2.318   2.457
13356WAT     H140310   9.415   2.404   2.474
13356WAT     H240311   9.561   2.330   2.471
13357WAT      O40312   0.549   1.882   3.983
13357WAT     H140313   0.450   1.897   3.985
13357WAT     H240314   0.568   1.788   3.955
13358WAT      O40315   3.384   2.276   7.584
13358WAT     H140316   3.432   2.339   7.523
13358WAT     H240317   3.400   2.303   7.679
13359WAT      O40318   7.438   0.252   4.929
13359WAT     H140319   7.342   0.278   4.917
13359WAT     H240320   7.483   0.320   4.987
13360WAT      O40321   4.876   2.962   9.707
13360WAT     H140322   4.844   2.873   9.739
13360WAT     H240323   4.938   3.001   9.775
13361WAT      O40324   2.402   1.589   2.834
13361WAT     H140325   2.332   1.637   2.888
13361WAT     H240326   2.365   1.567   2.744
13362WAT      O40327   3.218   1.924   3.843
13362WAT     H140328   3.318   1.926   3.841
13362WAT     H240329   3.188   1.867   3.919
13363WAT      O40330   6.471   8.639   7.620
13363WAT     H140331   6.473   8.591   7.708
13363WAT     H240332   6.564   8.663   7.592
13364WAT      O40333   8.288   1.432   4.632
13364WAT     H140334   8.372   1.470   4.594
13364WAT     H240335   8.212   1.453   4.571
13365WAT      O40336   5.044   0.521   4.400
13365WAT     H140337   5.017   0.431   4.434
13365WAT     H240338   5.144   0.528   4.399
13366WAT      O40339   6.842   5.432   8.437
13366WAT     H140340   6.873   5.468   8.350
13366WAT     H240341   6.777   5.358   8.421
13367WAT      O40342   3.657   5.891   2.992
13367WAT     H140343   3.663   5.892   2.892
13367WAT     H240344   3.647   5.985   3.025
13368WAT      O40345   7.654   5.337   2.153
13368WAT     H140346   7.590   5.388   2.210
13368WAT     H240347   7.627   5.241   2.150
13369WAT      O40348   8.849   3.439   7.679
13369WAT     H140349   8.860   3.529   7.636
13369WAT     H240350   8.913   3.431   7.755
13370WAT      O40351   3.243   1.438   9.055
13370WAT     H140352   3.201   1.514   9.104
13370WAT     H240353   3.172   1.386   9.008
13371WAT      O40354   4.021   3.860   2.252
13371WAT     H140355   4.004   3.766   2.280
13371WAT     H240356   3.945   3.918   2.279
13372WAT      O40357   6.635   9.722   5.372
13372WAT     H140358   6.604   9.802   5.424
13372WAT     H240359   6.700   9.670   5.427
13373WAT      O40360   4.689   2.150   4.880
13373WAT     H140361   4.632   2.131   4.800
13373WAT     H240362   4.635   2.200   4.948
13374WAT      O40363   1.053   8.304   7.763
13374WAT     H140364   1.080   8.239   7.692
13374WAT     H240365   1.096   8.277   7.850
13375WAT      O40366   8.016   3.352   1.967
13375WAT     H140367   8.109   3.350   2.004
13375WAT     H240368   8.011   3.291   1.888
13376WAT      O40369   0.054   9.252   6.778
13376WAT     H140370   0.082   9.169   6.729
13376WAT     H240371  -0.042   9.272   6.757
13377WAT      O40372   1.073   1.161   0.167
13377WAT     H140373   1.114   1.093   0.107
13377WAT     H240374   1.144   1.219   0.206
13378WAT      O40375   9.073   5.613   7.907
13378WAT     H140376   9.151   5.653   7.955
13378WAT     H240377   9.104   5.568   7.824
13379WAT      O40378   2.568   7.732   6.574
13379WAT     H140379   2.540   7.784   6.655
13379WAT     H240380   2.666   7.745   6.558
13380WAT      O40381   5.669   1.078   6.601
13380WAT     H140382   5.645   1.150   6.537
13380WAT     H240383   5.587   1.026   6.625
13381WAT      O40384   1.984   5.284   5.726
13381WAT     H140385   1.943   5.358   5.672
13381WAT     H240386   2.052   5.235   5.671
13382WAT      O40387   9.802   3.552   1.393
13382WAT     H140388   9.886   3.606   1.401
13382WAT     H240389   9.806   3.475   1.457
13383WAT      O40390   4.430   6.110   5.023
13383WAT     H140391   4.352   6.054   5.050
13383WAT     H240392   4.445   6.182   5.092
13384WAT      O40393   9.077   8.937   4.405
13384WAT     H140394   8.996   8.953   4.349
13384WAT     H240395   9.113   8.846   4.386
13385WAT      O40396   0.993   9.478   0.270
13385WAT     H140397   0.997   9.381   0.294
13385WAT     H240398   0.899   9.511   0.281
13386WAT      O40399   1.629   3.704   2.693
13386WAT     H140400   1.589   3.677   2.605
13386WAT     H240401   1.673   3.624   2.735
13387WAT      O40402   2.812   5.047   7.344
13387WAT     H140403   2.885   5.033   7.277
13387WAT     H240404   2.785   4.959   7.383
13388WAT      O40405   7.474   0.417   5.377
13388WAT     H140406   7.478   0.317   5.375
13388WAT     H240407   7.561   0.454   5.411
13389WAT      O40408   8.732   6.616   2.864
13389WAT     H140409   8.796   6.575   2.929
13389WAT     H240410   8.743   6.715   2.864
13390WAT      O40411   1.192   1.307   1.762
13390WAT     H140412   1.199   1.403   1.733
13390WAT     H240413   1.132   1.257   1.700
13391WAT      O40414   8.287   6.604   9.020
13391WAT     H140415   8.372   6.647   8.992
13391WAT     H240416   8.288   6.507   8.994
13392WAT      O40417   4.061   6.235   6.521
13392WAT     H140418   4.048   6.222   6.620
13392WAT     H240419   4.092   6.150   6.480
13393WAT      O40420   0.592   1.069   6.308
13393WAT     H140421   0.565   1.085   6.213
13393WAT     H240422   0.629   0.977   6.318
13394WAT      O40423   2.360   3.786   7.670
13394WAT     H140424   2.429   3.829   7.729
13394WAT     H240425   2.344   3.692   7.701
13395WAT      O40426   7.699   5.389   0.492
13395WAT     H140427   7.687   5.369   0.590
13395WAT     H240428   7.709   5.303   0.442
13396WAT      O40429   4.963   8.822   5.725
13396WAT     H140430   4.948   8.741   5.782
13396WAT     H240431   5.059   8.849   5.732
13397WAT      O40432   8.637   8.841   8.478
13397WAT     H140433   8.661   8.909   8.548
13397WAT     H240434   8.541   8.855   8.451
13398WAT      O40435   1.052   7.985   7.660
13398WAT     H140436   0.974   8.047   7.673
13398WAT     H240437   1.024   7.910   7.599
13399WAT      O40438   7.764   9.288   5.232
13399WAT     H140439   7.788   9.292   5.135
13399WAT     H240440   7.667   9.307   5.243
13400WAT      O40441   4.392   9.130   3.162
13400WAT     H140442   4.463   9.064   3.187
13400WAT     H240443   4.302   9.091   3.185
13401WAT      O40444   0.869   6.283   0.840
13401WAT     H140445   0.816   6.231   0.907
13401WAT     H240446   0.855   6.381   0.854
13402WAT      O40447   7.583   7.134   2.341
13402WAT     H140448   7.552   7.220   2.381
13402WAT     H240449   7.591   7.143   2.242
13403WAT      O40450   9.517   8.589   0.007
13403WAT     H140451   9.459   8.669   0.020
13403WAT     H240452   9.611   8.610   0.036
13404WAT      O40453   9.549   6.276   6.122
13404WAT     H140454   9.548   6.201   6.188
13404WAT     H240455   9.468   6.270   6.063
13405WAT      O40456   1.220   4.439   5.941
13405WAT     H140457   1.302   4.491   5.968
13405WAT     H240458   1.140   4.497   5.948
13406WAT      O40459   1.982   4.796   3.790
13406WAT     H140460   1.907   4.809   3.855
13406WAT     H240461   2.011   4.885   3.754
13407WAT      O40462   1.282   7.162   2.151
13407WAT     H140463   1.250   7.252   2.179
13407WAT     H240464   1.316   7.112   2.231
13408WAT      O40465   1.542   3.964   3.849
13408WAT     H140466   1.576   3.917   3.768
13408WAT     H240467   1.458   4.014   3.826
13409WAT      O40468   6.988   3.946   3.629
13409WAT     H140469   7.031   3.970   3.716
13409WAT     H240470   6.991   3.847   3.617
13410WAT      O40471   3.312   7.955   1.725
13410WAT     H140472   3.228   8.002   1.750
13410WAT     H240473   3.356   8.004   1.649
13411WAT      O40474   4.588   8.341   1.504
13411WAT     H140475   4.489   8.325   1.505
13411WAT     H240476   4.609   8.417   1.443
13412WAT      O40477   5.163   3.949   4.269
13412WAT     H140478   5.108   3.869   4.295
13412WAT     H240479   5.259   3.922   4.263
13413WAT      O40480   2.179   2.695   3.079
13413WAT     H140481   2.172   2.762   3.153
13413WAT     H240482   2.254   2.720   3.018
13414WAT      O40483   4.055   7.363   4.838
13414WAT     H140484   4.022   7.440   4.783
13414WAT     H240485   4.151   7.346   4.817
13415WAT      O40486   1.105   0.407   2.793
13415WAT     H140487   1.198   0.385   2.823
13415WAT     H240488   1.048   0.425   2.873
13416WAT      O40489   3.541   3.662   9.499
13416WAT     H140490   3.518   3.758   9.510
13416WAT     H240491   3.637   3.647   9.523
13417WAT      O40492   4.117   4.579   7.929
13417WAT     H140493   4.146   4.500   7.875
13417WAT     H240494   4.119   4.661   7.873
13418WAT      O40495   7.112   9.780   2.212
13418WAT     H140496   7.017   9.758   2.234
13418WAT     H240497   7.166   9.781   2.295
13419WAT      O40498   1.895   7.468   3.018
13419WAT     H140499   1.894   7.470   2.918
13419WAT     H240500   1.905   7.374   3.049
13420WAT      O40501   8.721   2.972   3.773
13420WAT     H140502   8.740   3.049   3.833
13420WAT     H240503   8.803   2.952   3.718
13421WAT      O40504   2.489   9.738   2.155
13421WAT     H140505   2.489   9.823   2.208
13421WAT     H240506   2.559   9.744   2.083
13422WAT      O40507   7.272   5.766   6.669
13422WAT     H140508   7.188   5.817   6.652
13422WAT     H240509   7.351   5.823   6.647
13423WAT      O40510   8.351   6.724   0.701
13423WAT     H140511   8.334   6.809   0.650
13423WAT     H240512   8.265   6.674   0.711
13424WAT      O40513   3.401   8.978   4.334
13424WAT     H140514   3.324   8.984   4.271
13424WAT     H240515   3.390   8.896   4.392
13425WAT      O40516   4.804   3.019   0.246
13425WAT     H140517   4.857   2.973   0.317
13425WAT     H240518   4.741   2.953   0.205
13426WAT      O40519   8.893   2.174   4.736
13426WAT     H140520   8.846   2.128   4.661
13426WAT     H240521   8.915   2.268   4.709
13427WAT      O40522   1.822   4.763   2.405
13427WAT     H140523   1.762   4.692   2.369
13427WAT     H240524   1.793   4.852   2.370
13428WAT      O40525   6.778   3.829   4.027
13428WAT     H140526   6.687   3.834   3.986
13428WAT     H240527   6.784   3.747   4.084
13429WAT      O40528   7.775   3.117   8.201
13429WAT     H140529   7.787   3.212   8.231
13429WAT     H240530   7.854   3.063   8.231
13430WAT      O40531   2.408   9.051   6.216
13430WAT     H140532   2.449   9.101   6.140
13430WAT     H240533   2.310   9.071   6.219
13431WAT      O40534   4.550   7.278   1.491
13431WAT     H140535   4.490   7.228   1.553
13431WAT     H240536   4.497   7.345   1.439
13432WAT      O40537   2.129   5.370   3.825
13432WAT     H140538   2.171   5.451   3.867
13432WAT     H240539   2.182   5.289   3.848
13433WAT      O40540   7.799   9.211   2.551
13433WAT     H140541   7.791   9.299   2.505
13433WAT     H240542   7.795   9.138   2.483
13434WAT      O40543   5.969   2.057   4.464
13434WAT     H140544   6.065   2.076   4.443
13434WAT     H240545   5.920   2.039   4.379
13435WAT      O40546   8.158   0.703   8.075
13435WAT     H140547   8.069   0.659   8.083
13435WAT     H240548   8.230   0.634   8.071
13436WAT      O40549   2.760   3.719   9.258
13436WAT     H140550   2.823   3.652   9.220
13436WAT     H240551   2.766   3.717   9.358
13437WAT      O40552   1.705   0.397   5.223
13437WAT     H140553   1.717   0.489   5.259
13437WAT     H240554   1.642   0.399   5.146
13438WAT      O40555   1.035   5.069   1.776
13438WAT     H140556   0.967   5.142   1.772
13438WAT     H240557   1.032   5.016   1.691
13439WAT      O40558   3.265   8.444   7.428
13439WAT     H140559   3.349   8.483   7.391
13439WAT     H240560   3.238   8.493   7.511
13440WAT      O40561   0.775   0.529   7.960
13440WAT     H140562   0.766   0.449   8.019
13440WAT     H240563   0.871   0.540   7.933
13441WAT      O40564   7.473   7.774   9.441
13441WAT     H140565   7.448   7.856   9.493
13441WAT     H240566   7.460   7.694   9.499
13442WAT      O40567   9.005   1.737   8.800
13442WAT     H140568   8.923   1.739   8.858
13442WAT     H240569   9.021   1.829   8.762
13443WAT      O40570   7.723   4.726   8.559
13443WAT     H140571   7.669   4.747   8.640
13443WAT     H240572   7.811   4.774   8.564
13444WAT      O40573   4.391   9.744   6.616
13444WAT     H140574   4.454   9.667   6.605
13444WAT     H240575   4.385   9.770   6.712
13445WAT      O40576   7.216   6.435   8.015
13445WAT     H140577   7.140   6.391   7.966
13445WAT     H240578   7.252   6.372   8.084
13446WAT      O40579   2.908   7.188   5.010
13446WAT     H140580   2.899   7.145   5.100
13446WAT     H240581   2.986   7.149   4.961
13447WAT      O40582   2.599   4.928   5.492
13447WAT     H140583   2.557   4.858   5.549
13447WAT     H240584   2.698   4.926   5.503
13448WAT      O40585   3.091   4.845   1.265
13448WAT     H140586   3.041   4.790   1.198
13448WAT     H240587   3.174   4.797   1.292
13449WAT      O40588   6.522   9.341   1.902
13449WAT     H140589   6.586   9.418   1.895
13449WAT     H240590   6.526   9.287   1.818
13450WAT      O40591   0.016   2.427   2.139
13450WAT     H140592   0.116   2.417   2.142
13450WAT     H240593  -0.008   2.524   2.148
13451WAT      O40594   0.778   3.410   2.154
13451WAT     H140595   0.850   3.476   2.131
13451WAT     H240596   0.801   3.321   2.114
13452WAT      O40597   4.172   4.229   3.979
13452WAT     H140598   4.180   4.199   4.074
13452WAT     H240599   4.100   4.297   3.972
13453WAT      O40600   6.126   5.174   4.720
13453WAT     H140601   6.206   5.128   4.680
13453WAT     H240602   6.050   5.110   4.724
13454WAT      O40603   0.214   6.816   3.121
13454WAT     H140604   0.127   6.773   3.097
13454WAT     H240605   0.265   6.755   3.182
13455WAT      O40606   5.446   4.473   8.352
13455WAT     H140607   5.493   4.389   8.380
13455WAT     H240608   5.376   4.450   8.284
13456WAT      O40609   7.865   7.065   2.909
13456WAT     H140610   7.793   7.069   2.840
13456WAT     H240611   7.876   6.970   2.939
13457WAT      O40612   9.506   1.157   0.502
13457WAT     H140613   9.569   1.202   0.439
13457WAT     H240614   9.435   1.109   0.449
13458WAT      O40615   4.222   3.027   8.343
13458WAT     H140616   4.208   3.104   8.405
13458WAT     H240617   4.177   2.946   8.380
13459WAT      O40618   0.483   0.429   1.382
13459WAT     H140619   0.519   0.447   1.473
13459WAT     H240620   0.387   0.402   1.389
13460WAT      O40621   5.286   2.995   1.377
13460WAT     H140622   5.202   3.014   1.326
13460WAT     H240623   5.361   3.048   1.338
13461WAT      O40624   9.034   5.201   9.680
13461WAT     H140625   8.963   5.198   9.751
13461WAT     H240626   9.103   5.269   9.705
13462WAT      O40627   2.047   8.080   5.629
13462WAT     H140628   1.965   8.131   5.655
13462WAT     H240629   2.123   8.144   5.613
13463WAT      O40630   0.874   2.869   6.050
13463WAT     H140631   0.861   2.801   6.123
13463WAT     H240632   0.956   2.847   5.998
13464WAT      O40633   6.867   5.982   3.974
13464WAT     H140634   6.921   5.914   4.025
13464WAT     H240635   6.792   5.935   3.926
13465WAT      O40636   4.675   2.243   3.753
13465WAT     H140637   4.645   2.230   3.847
13465WAT     H240638   4.596   2.232   3.692
13466WAT      O40639   1.883   1.498   7.822
13466WAT     H140640   1.906   1.573   7.760
13466WAT     H240641   1.966   1.463   7.865
13467WAT      O40642   0.485   6.921   3.824
13467WAT     H140643   0.414   6.859   3.793
13467WAT     H240644   0.567   6.910   3.768
13468WAT      O40645   4.019   8.387   5.624
13468WAT     H140646   3.977   8.305   5.663
13468WAT     H240647   4.073   8.361   5.544
13469WAT      O40648   5.083   6.812   2.974
13469WAT     H140649   4.986   6.823   2.997
13469WAT     H240650   5.092   6.785   2.878
13470WAT      O40651   0.841   1.645   7.703
13470WAT     H140652   0.769   1.604   7.648
13470WAT     H240653   0.930   1.613   7.671
13471WAT      O40654   6.251   2.971   7.751
13471WAT     H140655   6.177   2.905   7.731
13471WAT     H240656   6.245   3.047   7.686
13472WAT      O40657   5.432   3.366   1.509
13472WAT     H140658   5.406   3.454   1.549
13472WAT     H240659   5.440   3.297   1.581
13473WAT      O40660   5.276   2.688   7.086
13473WAT     H140661   5.232   2.687   6.997
13473WAT     H240662   5.224   2.631   7.150
13474WAT      O40663   8.768   8.408   6.197
13474WAT     H140664   8.867   8.419   6.205
13474WAT     H240665   8.732   8.365   6.280
13475WAT      O40666   2.173   9.708   9.579
13475WAT     H140667   2.099   9.644   9.557
13475WAT     H240668   2.244   9.661   9.631
13476WAT      O40669   0.991   7.952   4.923
13476WAT     H140670   1.078   7.959   4.873
13476WAT     H240671   0.917   7.987   4.865
13477WAT      O40672   8.843   2.353   0.016
13477WAT     H140673   8.915   2.284   0.024
13477WAT     H240674   8.828   2.396   0.105
13478WAT      O40675   5.810   4.172   2.924
13478WAT     H140676   5.859   4.144   2.842
13478WAT     H240677   5.874   4.208   2.991
13479WAT      O40678   3.375   0.882   6.820
13479WAT     H140679   3.343   0.976   6.812
13479WAT     H240680   3.299   0.823   6.848
13480WAT      O40681   6.653   6.820   3.074
13480WAT     H140682   6.733   6.872   3.104
13480WAT     H240683   6.592   6.806   3.152
13481WAT      O40684   0.952   2.647   2.791
13481WAT     H140685   1.035   2.622   2.842
13481WAT     H240686   0.975   2.657   2.694
13482WAT      O40687   0.337   1.082   4.814
13482WAT     H140688   0.422   1.059   4.767
13482WAT     H240689   0.353   1.157   4.878
13483WAT      O40690   9.744   3.890   1.851
13483WAT     H140691   9.764   3.823   1.779
13483WAT     H240692   9.821   3.895   1.914
13484WAT      O40693   9.383   0.542   6.920
13484WAT     H140694   9.455   0.551   6.989
13484WAT     H240695   9.423   0.518   6.832
13485WAT      O40696   5.835   8.799   2.560
13485WAT     H140697   5.770   8.834   2.492
13485WAT     H240698   5.816   8.702   2.577
13486WAT      O40699   8.081   6.124   7.406
13486WAT     H140700   8.154   6.164   7.350
13486WAT     H240701   7.996   6.121   7.353
13487WAT      O40702   0.853   8.613   0.099
13487WAT     H140703   0.887   8.668   0.023
13487WAT     H240704   0.760   8.582   0.079
13488WAT      O40705   5.643   3.771   3.770
13488WAT     H140706   5.679   3.725   3.852
13488WAT     H240707   5.611   3.862   3.794
13489WAT      O40708   1.158   0.171   9.014
13489WAT     H140709   1.126   0.263   8.992
13489WAT     H240710   1.080   0.108   9.018
13490WAT      O40711   4.776   5.472   2.283
13490WAT     H140712   4.849   5.426   2.233
13490WAT     H240713   4.813   5.514   2.365
13491WAT      O40714   9.633   1.339   6.309
13491WAT     H140715   9.551   1.339   6.366
13491WAT     H240716   9.609   1.367   6.216
13492WAT      O40717   3.292   0.384   8.487
13492WAT     H140718   3.246   0.349   8.568
13492WAT     H240719   3.369   0.325   8.464
13493WAT      O40720   8.288   7.842   8.298
13493WAT     H140721   8.244   7.873   8.383
13493WAT     H240722   8.387   7.854   8.307
13494WAT      O40723   1.478   1.428   4.216
13494WAT     H140724   1.467   1.335   4.251
13494WAT     H240725   1.394   1.456   4.170
13495WAT      O40726   9.424   1.901   8.842
13495WAT     H140727   9.404   1.998   8.860
13495WAT     H240728   9.422   1.850   8.928
13496WAT      O40729   1.119   2.212   9.620
13496WAT     H140730   1.109   2.227   9.522
13496WAT     H240731   1.029   2.198   9.662
13497WAT      O40732   8.956   8.598   9.095
13497WAT     H140733   8.960   8.692   9.061
13497WAT     H240734   9.015   8.540   9.040
13498WAT      O40735   5.457   8.656   0.903
13498WAT     H140736   5.407   8.593   0.963
13498WAT     H240737   5.516   8.604   0.842
13499WAT      O40738   0.216   3.738   1.683
13499WAT     H140739   0.161   3.690   1.751
13499WAT     H240740   0.231   3.833   1.713
13500WAT      O40741   8.472   8.014   2.360
13500WAT     H140742   8.412   7.934   2.357
13500WAT     H240743   8.567   7.984   2.353
13501WAT      O40744   4.012   9.082   5.419
13501WAT     H140745   4.021   9.182   5.423
13501WAT     H240746   4.095   9.041   5.457
13502WAT      O40747   1.995   6.837   2.669
13502WAT     H140748   1.948   6.812   2.585
13502WAT     H240749   2.093   6.822   2.658
13503WAT      O40750   4.202   2.629   8.271
13503WAT     H140751   4.288   2.657   8.227
13503WAT     H240752   4.207   2.533   8.297
13504WAT      O40753   3.578   1.514   0.851
13504WAT     H140754   3.532   1.561   0.926
13504WAT     H240755   3.523   1.521   0.768
13505WAT      O40756   2.767   4.117   7.213
13505WAT     H140757   2.753   4.036   7.270
13505WAT     H240758   2.697   4.185   7.235
13506WAT      O40759   2.969   3.882   1.084
13506WAT     H140760   3.038   3.830   1.034
13506WAT     H240761   3.012   3.935   1.156
13507WAT      O40762   0.551   2.457   1.767
13507WAT     H140763   0.514   2.391   1.832
13507WAT     H240764   0.650   2.443   1.758
13508WAT      O40765   6.119   8.624   7.815
13508WAT     H140766   6.108   8.666   7.905
13508WAT     H240767   6.109   8.694   7.744
13509WAT      O40768   4.818   4.181   2.694
13509WAT     H140769   4.788   4.087   2.680
13509WAT     H240770   4.738   4.241   2.703
13510WAT      O40771   2.626   3.055   8.738
13510WAT     H140772   2.689   2.979   8.756
13510WAT     H240773   2.629   3.078   8.640
13511WAT      O40774   5.267   7.757   9.597
13511WAT     H140775   5.315   7.711   9.522
13511WAT     H240776   5.254   7.853   9.575
13512WAT      O40777   1.415   7.264   8.443
13512WAT     H140778   1.469   7.340   8.479
13512WAT     H240779   1.467   7.179   8.450
13513WAT      O40780   4.875   9.621   8.722
13513WAT     H140781   4.832   9.701   8.681
13513WAT     H240782   4.940   9.650   8.792
13514WAT      O40783   3.050   2.909   1.134
13514WAT     H140784   3.082   2.966   1.058
13514WAT     H240785   2.950   2.915   1.140
13515WAT      O40786   7.131   6.185   1.339
13515WAT     H140787   7.131   6.094   1.297
13515WAT     H240788   7.057   6.191   1.407
13516WAT      O40789   4.780   3.132   3.014
13516WAT     H140790   4.724   3.052   3.036
13516WAT     H240791   4.874   3.103   2.993
13517WAT      O40792   5.811   8.630   4.309
13517WAT     H140793   5.784   8.720   4.273
13517WAT     H240794   5.905   8.634   4.342
13518WAT      O40795   7.555   1.065   6.660
13518WAT     H140796   7.526   1.106   6.747
13518WAT     H240797   7.506   0.980   6.645
13519WAT      O40798   7.784   9.114   4.696
13519WAT     H140799   7.736   9.048   4.638
13519WAT     H240800   7.880   9.119   4.668
13520WAT      O40801   7.226   6.663   8.521
13520WAT     H140802   7.188   6.670   8.428
13520WAT     H240803   7.318   6.624   8.516
13521WAT      O40804   7.171   2.715   0.058
13521WAT     H140805   7.253   2.754   0.101
13521WAT     H240806   7.136   2.779  -0.010
13522WAT      O40807   3.255   1.796   9.612
13522WAT     H140808   3.184   1.863   9.632
13522WAT     H240809   3.257   1.727   9.684
13523WAT      O40810   8.879   7.095   1.901
13523WAT     H140811   8.885   7.083   1.802
13523WAT     H240812   8.786   7.121   1.926
13524WAT      O40813   4.490   4.494   7.715
13524WAT     H140814   4.408   4.473   7.661
13524WAT     H240815   4.493   4.592   7.734
13525WAT      O40816   5.455   0.793   8.805
13525WAT     H140817   5.427   0.889   8.802
13525WAT     H240818   5.432   0.748   8.719
13526WAT      O40819   3.764   8.299   6.492
13526WAT     H140820   3.775   8.362   6.569
13526WAT     H240821   3.854   8.281   6.451
13527WAT      O40822   6.113   5.132   3.768
13527WAT     H140823   6.138   5.223   3.734
13527WAT     H240824   6.092   5.072   3.691
13528WAT      O40825   4.645   3.743   5.446
13528WAT     H140826   4.610   3.666   5.498
13528WAT     H240827   4.576   3.773   5.380
13529WAT      O40828   5.913   9.763   5.433
13529WAT     H140829   5.910   9.682   5.374
13529WAT     H240830   5.923   9.734   5.528
13530WAT      O40831   7.197   8.075   2.412
13530WAT     H140832   7.154   8.075   2.503
13530WAT     H240833   7.290   8.040   2.419
13531WAT      O40834   6.770   5.989   7.578
13531WAT     H140835   6.798   5.894   7.591
13531WAT     H240836   6.674   5.992   7.550
13532WAT      O40837   1.261   5.786   2.899
13532WAT     H140838   1.221   5.874   2.874
13532WAT     H240839   1.232   5.761   2.992
13533WAT      O40840   2.212   6.328   6.390
13533WAT     H140841   2.258   6.286   6.469
13533WAT     H240842   2.280   6.360   6.325
13534WAT      O40843   9.099   5.727   2.096
13534WAT     H140844   9.134   5.812   2.136
13534WAT     H240845   9.000   5.732   2.088
13535WAT      O40846   4.762   5.361   8.787
13535WAT     H140847   4.854   5.369   8.825
13535WAT     H240848   4.699   5.420   8.839
13536WAT      O40849   5.064   2.844   0.393
13536WAT     H140850   5.101   2.845   0.300
13536WAT     H240851   5.130   2.803   0.455
13537WAT      O40852   1.600   9.617   4.269
13537WAT     H140853   1.546   9.533   4.278
13537WAT     H240854   1.672   9.602   4.202
13538WAT      O40855   5.971   9.601   1.676
13538WAT     H140856   5.936   9.666   1.608
13538WAT     H240857   5.921   9.613   1.762
13539WAT      O40858   0.381   9.173   7.132
13539WAT     H140859   0.298   9.123   7.111
13539WAT     H240860   0.384   9.258   7.079
13540WAT      O40861   2.573   1.503   1.295
13540WAT     H140862   2.653   1.471   1.346
13540WAT     H240863   2.599   1.519   1.199
13541WAT      O40864   0.307   1.468   0.731
13541WAT     H140865   0.295   1.477   0.830
13541WAT     H240866   0.336   1.374   0.710
13542WAT      O40867   7.791   7.470   5.929
13542WAT     H140868   7.732   7.473   5.849
13542WAT     H240869   7.800   7.375   5.961
13543WAT      O40870   8.054   9.084   9.151
13543WAT     H140871   8.068   9.114   9.056
13543WAT     H240872   8.029   9.163   9.207
13544WAT      O40873   7.879   1.766   5.776
13544WAT     H140874   7.939   1.713   5.836
13544WAT     H240875   7.851   1.850   5.824
13545WAT      O40876   5.518   9.443   0.277
13545WAT     H140877   5.513   9.377   0.352
13545WAT     H240878   5.475   9.403   0.196
13546WAT      O40879   9.459   6.844   1.574
13546WAT     H140880   9.457   6.940   1.604
13546WAT     H240881   9.414   6.787   1.642
13547WAT      O40882   9.619   0.570   0.828
13547WAT     H140883   9.553   0.614   0.766
13547WAT     H240884   9.653   0.486   0.786
13548WAT      O40885   1.232   2.686   6.357
13548WAT     H140886   1.181   2.758   6.406
13548WAT     H240887   1.168   2.617   6.325
13549WAT      O40888   0.432   6.389   1.926
13549WAT     H140889   0.393   6.439   2.003
13549WAT     H240890   0.515   6.341   1.956
13550WAT      O40891   6.419   8.419   6.633
13550WAT     H140892   6.455   8.410   6.725
13550WAT     H240893   6.328   8.461   6.636
13551WAT      O40894   8.052   4.384   7.334
13551WAT     H140895   8.090   4.355   7.246
13551WAT     H240896   7.952   4.385   7.328
13552WAT      O40897   7.596   0.684   0.421
13552WAT     H140898   7.597   0.599   0.474
13552WAT     H240899   7.506   0.727   0.427
13553WAT      O40900   2.374   4.217   7.968
13553WAT     H140901   2.452   4.214   8.030
13553WAT     H240902   2.292   4.246   8.019
13554WAT      O40903   7.645   4.394   3.317
13554WAT     H140904   7.669   4.457   3.391
13554WAT     H240905   7.684   4.427   3.231
13555WAT      O40906   7.208   0.225   0.687
13555WAT     H140907   7.245   0.313   0.719
13555WAT     H240908   7.167   0.237   0.597
13556WAT      O40909   3.531   7.077   6.336
13556WAT     H140910   3.490   6.986   6.341
13556WAT     H240911   3.487   7.130   6.264
13557WAT      O40912   7.449   0.453   0.468
13557WAT     H140913   7.388   0.449   0.389
13557WAT     H240914   7.397   0.482   0.549
13558WAT      O40915   9.191   6.967   3.044
13558WAT     H140916   9.136   7.008   3.117
13558WAT     H240917   9.287   6.971   3.068
13559WAT      O40918   9.538   7.796   4.695
13559WAT     H140919   9.441   7.818   4.697
13559WAT     H240920   9.567   7.777   4.602
13560WAT      O40921   5.624   1.422   2.089
13560WAT     H140922   5.596   1.358   2.161
13560WAT     H240923   5.706   1.387   2.044
13561WAT      O40924   7.861   8.371   5.721
13561WAT     H140925   7.833   8.346   5.628
13561WAT     H240926   7.960   8.364   5.729
13562WAT      O40927   3.015   0.104   6.482
13562WAT     H140928   3.008   0.149   6.393
13562WAT     H240929   2.939   0.133   6.540
13563WAT      O40930   1.764   5.031   5.583
13563WAT     H140931   1.847   5.027   5.638
13563WAT     H240932   1.697   4.965   5.619
13564WAT      O40933   4.757   8.351   0.460
13564WAT     H140934   4.838   8.294   0.446
13564WAT     H240935   4.731   8.348   0.556
13565WAT      O40936   6.640   9.385   4.562
13565WAT     H140937   6.581   9.466   4.569
13565WAT     H240938   6.595   9.307   4.605
13566WAT      O40939   9.498   2.607   7.177
13566WAT     H140940   9.545   2.689   7.143
13566WAT     H240941   9.482   2.544   7.101
13567WAT      O40942   4.295   8.282   3.947
13567WAT     H140943   4.303   8.309   4.043
13567WAT     H240944   4.386   8.265   3.910
13568WAT      O40945   0.781   5.463   2.612
13568WAT     H140946   0.756   5.369   2.589
13568WAT     H240947   0.768   5.479   2.710
13569WAT      O40948   6.251   2.563   7.894
13569WAT     H140949   6.301   2.639   7.853
13569WAT     H240950   6.229   2.496   7.824
13570WAT      O40951   4.126   6.446   2.769
13570WAT     H140952   4.082   6.458   2.858
13570WAT     H240953   4.172   6.358   2.766
13571WAT      O40954   7.562   9.424   3.015
13571WAT     H140955   7.535   9.489   3.086
13571WAT     H240956   7.563   9.332   3.053
13572WAT      O40957   4.229   1.554   5.086
13572WAT     H140958   4.206   1.457   5.088
13572WAT     H240959   4.237   1.588   5.180
13573WAT      O40960   5.784   3.013   1.337
13573WAT     H140961   5.728   3.096   1.338
13573WAT     H240962   5.877   3.035   1.367
13574WAT      O40963   0.220   8.906   3.266
13574WAT     H140964   0.287   8.831   3.268
13574WAT     H240965   0.222   8.955   3.352
13575WAT      O40966   8.904   3.133   8.893
13575WAT     H140967   8.823   3.081   8.865
13575WAT     H240968   8.884   3.182   8.977
13576WAT      O40969   2.346   6.542   9.377
13576WAT     H140970   2.263   6.516   9.327
13576WAT     H240971   2.397   6.610   9.323
13577WAT      O40972   8.614   1.910   6.877
13577WAT     H140973   8.654   1.828   6.836
13577WAT     H240974   8.634   1.989   6.819
13578WAT      O40975   4.518   6.337   4.352
13578WAT     H140976   4.538   6.293   4.264
13578WAT     H240977   4.461   6.276   4.407
13579WAT      O40978   7.155   8.728   5.208
13579WAT     H140979   7.086   8.660   5.233
13579WAT     H240980   7.109   8.809   5.171
13580WAT      O40981   1.138   8.818   2.952
13580WAT     H140982   1.149   8.821   3.051
13580WAT     H240983   1.225   8.838   2.907
13581WAT      O40984   3.036   8.801   3.974
13581WAT     H140985   2.976   8.754   4.038
13581WAT     H240986   2.999   8.891   3.953
13582WAT      O40987   5.891   8.866   1.684
13582WAT     H140988   5.948   8.929   1.737
13582WAT     H240989   5.924   8.772   1.697
13583WAT      O40990   0.709   5.850   4.149
13583WAT     H140991   0.664   5.927   4.102
13583WAT     H240992   0.667   5.764   4.119
13584WAT      O40993   6.368   0.474   8.991
13584WAT     H140994   6.310   0.499   8.913
13584WAT     H240995   6.335   0.520   9.073
13585WAT      O40996   9.249   0.077   8.595
13585WAT     H140997   9.168   0.044   8.642
13585WAT     H240998   9.222   0.123   8.510
13586WAT      O40999   8.959   2.110   1.604
13586WAT     H141000   9.035   2.100   1.539
13586WAT     H241001   8.949   2.206   1.630
13587WAT      O41002   6.104   1.226   8.748
13587WAT     H141003   6.150   1.303   8.792
13587WAT     H241004   6.031   1.192   8.807
13588WAT      O41005   6.476   4.365   4.766
13588WAT     H141006   6.533   4.412   4.832
13588WAT     H241007   6.408   4.308   4.814
13589WAT      O41008   0.887   8.156   3.851
13589WAT     H141009   0.980   8.123   3.871
13589WAT     H241010   0.839   8.171   3.938
13590WAT      O41011   8.037   3.135   3.627
13590WAT     H141012   8.129   3.139   3.666
13590WAT     H241013   7.986   3.216   3.653
13591WAT      O41014   6.376   6.814   7.455
13591WAT     H141015   6.324   6.750   7.512
13591WAT     H241016   6.451   6.766   7.410
13592WAT      O41017   3.035   7.590   4.646
13592WAT     H141018   3.030   7.500   4.601
13592WAT     H241019   2.986   7.586   4.733
13593WAT      O41020   9.213   3.742   2.625
13593WAT     H141021   9.184   3.689   2.705
13593WAT     H241022   9.144   3.736   2.553
13594WAT      O41023   1.640   5.677   8.630
13594WAT     H141024   1.715   5.741   8.612
13594WAT     H241025   1.628   5.617   8.551
13595WAT      O41026   9.241   7.234   4.087
13595WAT     H141027   9.201   7.221   4.178
13595WAT     H241028   9.168   7.252   4.021
13596WAT      O41029   3.100   9.667   5.981
13596WAT     H141030   3.192   9.636   5.955
13596WAT     H241031   3.102   9.708   6.072
13597WAT      O41032   9.022   9.298   6.151
13597WAT     H141033   8.966   9.220   6.180
13597WAT     H241034   8.963   9.378   6.137
13598WAT      O41035   7.326   3.018   5.500
13598WAT     H141036   7.310   2.925   5.469
13598WAT     H241037   7.400   3.059   5.446
13599WAT      O41038   6.629   3.343   3.729
13599WAT     H141039   6.704   3.402   3.759
13599WAT     H241040   6.638   3.325   3.631
13600WAT      O41041   9.433   8.063   9.283
13600WAT     H141042   9.525   8.090   9.313
13600WAT     H241043   9.379   8.145   9.263
13601WAT      O41044   7.269   7.009   9.474
13601WAT     H141045   7.259   6.910   9.484
13601WAT     H241046   7.249   7.053   9.562
13602WAT      O41047   5.072   6.330   2.948
13602WAT     H141048   5.021   6.414   2.931
13602WAT     H241049   5.097   6.287   2.861
13603WAT      O41050   9.688   4.937   7.241
13603WAT     H141051   9.690   4.930   7.142
13603WAT     H241052   9.613   4.881   7.277
13604WAT      O41053   7.654   7.511   0.013
13604WAT     H141054   7.570   7.522   0.066
13604WAT     H241055   7.650   7.425  -0.038
13605WAT      O41056   2.909   9.006   8.026
13605WAT     H141057   2.834   8.965   7.974
13605WAT     H241058   2.973   8.935   8.054
13606WAT      O41059   6.418   2.660   6.308
13606WAT     H141060   6.370   2.652   6.221
13606WAT     H241061   6.503   2.608   6.305
13607WAT      O41062   0.088   1.803   3.071
13607WAT     H141063   0.037   1.842   3.147
13607WAT     H241064   0.032   1.804   2.988
13608WAT      O41065   4.477   1.943   0.965
13608WAT     H141066   4.503   1.847   0.980
13608WAT     H241067   4.449   1.955   0.870
13609WAT      O41068   8.861   4.049   9.719
13609WAT     H141069   8.869   4.020   9.623
13609WAT     H241070   8.803   3.985   9.768
13610WAT      O41071   1.215   4.171   2.050
13610WAT     H141072   1.275   4.234   2.003
13610WAT     H241073   1.160   4.120   1.983
13611WAT      O41074   7.472   3.227   9.792
13611WAT     H141075   7.498   3.318   9.822
13611WAT     H241076   7.452   3.227   9.694
13612WAT      O41077   4.343   3.402   6.491
13612WAT     H141078   4.392   3.350   6.562
13612WAT     H241079   4.316   3.490   6.528
13613WAT      O41080   5.297   4.275   2.802
13613WAT     H141081   5.262   4.358   2.757
13613WAT     H241082   5.228   4.203   2.796
13614WAT      O41083   5.239   9.358   0.137
13614WAT     H141084   5.256   9.390   0.044
13614WAT     H241085   5.148   9.318   0.143
13615WAT      O41086   1.689   4.992   2.152
13615WAT     H141087   1.630   4.984   2.072
13615WAT     H241088   1.632   4.992   2.235
13616WAT      O41089   9.733   9.781   9.570
13616WAT     H141090   9.799   9.758   9.498
13616WAT     H241091   9.779   9.832   9.642
13617WAT      O41092   0.683   1.175   9.302
13617WAT     H141093   0.739   1.093   9.315
13617WAT     H241094   0.726   1.252   9.350
13618WAT      O41095   6.982   2.544   8.867
13618WAT     H141096   7.073   2.573   8.896
13618WAT     H241097   6.913   2.580   8.929
13619WAT      O41098   5.994   7.094   3.647
13619WAT     H141099   6.090   7.118   3.633
13619WAT     H241100   5.961   7.041   3.569
13620WAT      O41101   9.011   0.462   2.456
13620WAT     H141102   9.103   0.452   2.419
13620WAT     H241103   8.971   0.372   2.469
13621WAT      O41104   4.340   6.440   5.855
13621WAT     H141105   4.245   6.461   5.878
13621WAT     H241106   4.401   6.488   5.919
13622WAT      O41107   1.070   4.980   0.740
13622WAT     H141108   1.057   5.067   0.691
13622WAT     H241109   1.157   4.983   0.789
13623WAT      O41110   4.684   6.864   7.897
13623WAT     H141111   4.723   6.860   7.988
13623WAT     H241112   4.596   6.911   7.900
13624WAT      O41113   6.010   2.580   4.018
13624WAT     H141114   6.081   2.509   4.012
13624WAT     H241115   5.939   2.552   4.082
13625WAT      O41116   4.860   6.936   7.026
13625WAT     H141117   4.825   7.029   7.041
13625WAT     H241118   4.916   6.909   7.104
13626WAT      O41119   9.881   7.238   3.548
13626WAT     H141120   9.869   7.179   3.468
13626WAT     H241121   9.968   7.286   3.542
13627WAT      O41122   6.801   4.172   8.660
13627WAT     H141123   6.811   4.122   8.746
13627WAT     H241124   6.891   4.194   8.623
13628WAT      O41125   0.113   6.226   7.195
13628WAT     H141126   0.183   6.171   7.150
13628WAT     H241127   0.080   6.297   7.132
13629WAT      O41128   1.995   6.615   0.324
13629WAT     H141129   2.008   6.554   0.246
13629WAT     H241130   2.083   6.629   0.370
13630WAT      O41131   5.270   8.462   8.273
13630WAT     H141132   5.190   8.430   8.322
13630WAT     H241133   5.307   8.388   8.216
13631WAT      O41134   8.177   5.117   5.531
13631WAT     H141135   8.191   5.119   5.630
13631WAT     H241136   8.258   5.079   5.487
13632WAT      O41137   5.341   2.737   7.823
13632WAT     H141138   5.421   2.704   7.773
13632WAT     H241139   5.274   2.662   7.831
13633WAT      O41140   5.698   9.435   2.410
13633WAT     H141141   5.609   9.442   2.455
13633WAT     H241142   5.761   9.382   2.468
13634WAT      O41143   0.220   4.541   7.026
13634WAT     H141144   0.133   4.585   7.050
13634WAT     H241145   0.294   4.609   7.029
13635WAT      O41146   8.886   1.203   6.267
13635WAT     H141147   8.907   1.124   6.208
13635WAT     H241148   8.963   1.219   6.330
13636WAT      O41149   2.109   6.956   3.745
13636WAT     H141150   2.138   7.013   3.668
13636WAT     H241151   2.016   6.922   3.729
13637WAT      O41152   8.475   1.899   0.220
13637WAT     H141153   8.480   1.963   0.144
13637WAT     H241154   8.379   1.880   0.242
13638WAT      O41155   5.718   9.264   5.305
13638WAT     H141156   5.761   9.247   5.394
13638WAT     H241157   5.746   9.354   5.272
13639WAT      O41158   7.772   4.784   2.118
13639WAT     H141159   7.687   4.821   2.153
13639WAT     H241160   7.804   4.840   2.041
13640WAT      O41161   5.476   1.892   6.501
13640WAT     H141162   5.560   1.841   6.517
13640WAT     H241163   5.480   1.936   6.412
13641WAT      O41164   1.566   6.017   3.318
13641WAT     H141165   1.581   5.937   3.376
13641WAT     H241166   1.473   6.050   3.330
13642WAT      O41167   3.598   1.246   2.319
13642WAT     H141168   3.678   1.260   2.261
13642WAT     H241169   3.550   1.332   2.332
13643WAT      O41170   3.922   0.495   4.074
13643WAT     H141171   3.932   0.412   4.020
13643WAT     H241172   3.829   0.531   4.064
13644WAT      O41173   4.132   9.518   6.773
13644WAT     H141174   4.216   9.483   6.732
13644WAT     H241175   4.067   9.543   6.701
13645WAT      O41176   4.188   5.258   2.921
13645WAT     H141177   4.125   5.188   2.954
13645WAT     H241178   4.258   5.216   2.863
13646WAT      O41179   3.243   5.192   7.777
13646WAT     H141180   3.257   5.280   7.822
13646WAT     H241181   3.157   5.195   7.725
13647WAT      O41182   0.432   5.623   8.889
13647WAT     H141183   0.524   5.649   8.859
13647WAT     H241184   0.430   5.613   8.988
13648WAT      O41185   3.740   7.946   1.660
13648WAT     H141186   3.734   7.884   1.739
13648WAT     H241187   3.751   7.893   1.577
13649WAT      O41188   5.769   4.732   6.285
13649WAT     H141189   5.789   4.663   6.215
13649WAT     H241190   5.848   4.743   6.345
13650WAT      O41191   6.594   8.164   0.662
13650WAT     H141192   6.526   8.106   0.618
13650WAT     H241193   6.684   8.122   0.655
13651WAT      O41194   5.403   0.849   1.442
13651WAT     H141195   5.470   0.919   1.466
13651WAT     H241196   5.322   0.859   1.501
13652WAT      O41197   2.759   5.887   2.361
13652WAT     H141198   2.821   5.819   2.323
13652WAT     H241199   2.671   5.882   2.314
13653WAT      O41200   7.058   9.251   6.819
13653WAT     H141201   7.081   9.154   6.818
13653WAT     H241202   6.965   9.264   6.852
13654WAT      O41203   2.053   6.749   2.293
13654WAT     H141204   2.142   6.755   2.337
13654WAT     H241205   1.981   6.755   2.362
13655WAT      O41206   9.370   2.997   4.038
13655WAT     H141207   9.347   2.977   4.134
13655WAT     H241208   9.287   2.991   3.983
13656WAT      O41209   8.600   0.558   7.650
13656WAT     H141210   8.697   0.562   7.629
13656WAT     H241211   8.554   0.492   7.589
13657WAT      O41212   2.115   9.780   2.765
13657WAT     H141213   2.102   9.738   2.675
13657WAT     H241214   2.027   9.811   2.800
13658WAT      O41215   0.287   6.619   5.817
13658WAT     H141216   0.369   6.608   5.761
13658WAT     H241217   0.285   6.549   5.889
13659WAT      O41218   7.062   7.382   8.983
13659WAT     H141219   6.993   7.446   9.018
13659WAT     H241220   7.149   7.398   9.031
13660WAT      O41221   4.825   4.996   1.506
13660WAT     H141222   4.873   5.059   1.566
13660WAT     H241223   4.859   4.903   1.522
13661WAT      O41224   2.497   8.499   9.510
13661WAT     H141225   2.512   8.524   9.415
13661WAT     H241226   2.513   8.579   9.569
13662WAT      O41227   9.558   9.660   1.264
13662WAT     H141228   9.649   9.681   1.228
13662WAT     H241229   9.540   9.718   1.343
13663WAT      O41230   2.640   8.672   1.739
13663WAT     H141231   2.647   8.767   1.709
13663WAT     H241232   2.730   8.637   1.763
13664WAT      O41233   5.610   8.924   4.022
13664WAT     H141234   5.592   8.890   3.930
13664WAT     H241235   5.530   8.975   4.055
13665WAT      O41236   0.134   7.095   8.238
13665WAT     H141237   0.043   7.082   8.199
13665WAT     H241238   0.161   7.013   8.288
13666WAT      O41239   1.913   0.837   2.044
13666WAT     H141240   1.926   0.771   1.970
13666WAT     H241241   1.819   0.833   2.077
13667WAT      O41242   6.395   1.593   2.365
13667WAT     H141243   6.318   1.655   2.378
13667WAT     H241244   6.418   1.550   2.452
13668WAT      O41245   1.473   6.879   0.947
13668WAT     H141246   1.512   6.844   0.862
13668WAT     H241247   1.546   6.922   1.001
13669WAT      O41248   7.908   2.597   6.225
13669WAT     H141249   7.948   2.665   6.163
13669WAT     H241250   7.967   2.586   6.305
13670WAT      O41251   2.714   8.385   8.897
13670WAT     H141252   2.762   8.452   8.955
13670WAT     H241253   2.761   8.378   8.809
13671WAT      O41254   2.695   3.803   0.654
13671WAT     H141255   2.627   3.751   0.706
13671WAT     H241256   2.787   3.773   0.679
13672WAT      O41257   9.747   3.518   1.862
13672WAT     H141258   9.814   3.454   1.900
13672WAT     H241259   9.663   3.513   1.916
13673WAT      O41260   4.678   1.312   4.307
13673WAT     H141261   4.712   1.218   4.308
13673WAT     H241262   4.753   1.375   4.328
13674WAT      O41263   4.462   5.310   2.036
13674WAT     H141264   4.449   5.397   2.084
13674WAT     H241265   4.438   5.320   1.940
13675WAT      O41266   4.367   3.778   4.939
13675WAT     H141267   4.430   3.831   4.882
13675WAT     H241268   4.328   3.704   4.885
13676WAT      O41269   1.456   4.575   1.272
13676WAT     H141270   1.379   4.605   1.217
13676WAT     H241271   1.537   4.628   1.248
13677WAT      O41272   5.963   7.030   5.167
13677WAT     H141273   5.925   7.073   5.085
13677WAT     H241274   6.052   6.989   5.144
13678WAT      O41275   2.206   6.268   3.397
13678WAT     H141276   2.232   6.208   3.321
13678WAT     H241277   2.106   6.270   3.405
13679WAT      O41278   0.542   2.438   0.648
13679WAT     H141279   0.444   2.459   0.644
13679WAT     H241280   0.567   2.415   0.742
13680WAT      O41281   0.175   5.890   9.254
13680WAT     H141282   0.182   5.986   9.228
13680WAT     H241283   0.163   5.882   9.353
13681WAT      O41284   5.001   0.200   2.486
13681WAT     H141285   5.081   0.148   2.517
13681WAT     H241286   4.918   0.154   2.516
13682WAT      O41287   2.037   7.317   9.567
13682WAT     H141288   1.979   7.282   9.641
13682WAT     H241289   2.124   7.348   9.605
13683WAT      O41290   1.052   4.042   8.661
13683WAT     H141291   1.022   3.970   8.723
13683WAT     H241292   1.123   4.097   8.705
13684WAT      O41293   1.515   8.350   2.075
13684WAT     H141294   1.541   8.437   2.118
13684WAT     H241295   1.438   8.365   2.013
13685WAT      O41296   2.347   0.348   5.266
13685WAT     H141297   2.405   0.307   5.196
13685WAT     H241298   2.252   0.350   5.234
13686WAT      O41299   4.899   2.183   2.305
13686WAT     H141300   4.869   2.162   2.212
13686WAT     H241301   4.987   2.230   2.301
13687WAT      O41302   5.524   4.639   9.684
13687WAT     H141303   5.537   4.540   9.688
13687WAT     H241304   5.462   4.661   9.608
13688WAT      O41305   7.022   5.744   7.989
13688WAT     H141306   7.056   5.702   7.905
13688WAT     H241307   7.071   5.830   8.006
13689WAT      O41308   6.528   7.202   3.845
13689WAT     H141309   6.453   7.263   3.873
13689WAT     H241310   6.531   7.123   3.906
13690WAT      O41311   0.684   9.237   9.054
13690WAT     H141312   0.640   9.179   8.985
13690WAT     H241313   0.783   9.240   9.036
13691WAT      O41314   1.421   1.366   2.502
13691WAT     H141315   1.470   1.453   2.488
13691WAT     H241316   1.326   1.386   2.524
13692WAT      O41317   2.859   8.155   0.022
13692WAT     H141318   2.862   8.255   0.023
13692WAT     H241319   2.846   8.123  -0.072
13693WAT      O41320   1.679   5.708   5.662
13693WAT     H141321   1.579   5.710   5.662
13693WAT     H241322   1.712   5.690   5.755
13694WAT      O41323   6.686   1.591   2.276
13694WAT     H141324   6.589   1.599   2.299
13694WAT     H241325   6.734   1.542   2.349
13695WAT      O41326   2.559   6.441   4.459
13695WAT     H141327   2.483   6.505   4.468
13695WAT     H241328   2.620   6.471   4.386
13696WAT      O41329   6.585   3.152   7.864
13696WAT     H141330   6.517   3.142   7.937
13696WAT     H241331   6.550   3.111   7.780
13697WAT      O41332   4.380   6.117   9.239
13697WAT     H141333   4.451   6.094   9.172
13697WAT     H241334   4.369   6.216   9.243
13698WAT      O41335   9.504   0.028   8.963
13698WAT     H141336   9.457  -0.006   9.044
13698WAT     H241337   9.602   0.012   8.971
13699WAT      O41338   0.021   2.517   4.405
13699WAT     H141339  -0.017   2.481   4.320
13699WAT     H241340   0.109   2.474   4.423
13700WAT      O41341   1.611   1.101   1.950
13700WAT     H141342   1.604   1.199   1.930
13700WAT     H241343   1.668   1.057   1.881
13701WAT      O41344   7.682   7.360   0.421
13701WAT     H141345   7.590   7.393   0.400
13701WAT     H241346   7.676   7.277   0.475
13702WAT      O41347   2.017   1.123   0.947
13702WAT     H141348   2.038   1.030   0.977
13702WAT     H241349   2.041   1.134   0.851
13703WAT      O41350   5.938   8.854   9.871
13703WAT     H141351   6.015   8.857   9.935
13703WAT     H241352   5.971   8.823   9.782
13704WAT      O41353   3.479   4.343   9.635
13704WAT     H141354   3.482   4.365   9.538
13704WAT     H241355   3.433   4.416   9.685
13705WAT      O41356   4.859   4.991   0.489
13705WAT     H141357   4.787   5.049   0.526
13705WAT     H241358   4.857   4.902   0.534
13706WAT      O41359   9.856   0.665   5.896
13706WAT     H141360   9.773   0.617   5.868
13706WAT     H241361   9.861   0.753   5.849
13707WAT      O41362   4.535   2.987   5.801
13707WAT     H141363   4.560   2.891   5.793
13707WAT     H241364   4.585   3.028   5.879
13708WAT      O41365   6.953   8.076   4.080
13708WAT     H141366   7.027   8.084   4.146
13708WAT     H241367   6.866   8.095   4.125
13709WAT      O41368   5.114   2.054   2.779
13709WAT     H141369   5.091   2.077   2.684
13709WAT     H241370   5.033   2.068   2.836
13710WAT      O41371   4.539   4.304   3.091
13710WAT     H141372   4.591   4.219   3.089
13710WAT     H241373   4.583   4.368   3.153
13711WAT      O41374   4.171   3.128   8.879
13711WAT     H141375   4.175   3.055   8.812
13711WAT     H241376   4.075   3.152   8.896
13712WAT      O41377   8.759   7.422   0.450
13712WAT     H141378   8.680   7.477   0.421
13712WAT     H241379   8.740   7.382   0.540
13713WAT      O41380   2.640   7.670   7.028
13713WAT     H141381   2.596   7.747   7.075
13713WAT     H241382   2.573   7.598   7.010
13714WAT      O41383   7.665   2.852   9.052
13714WAT     H141384   7.648   2.796   9.132
13714WAT     H241385   7.736   2.809   8.995
13715WAT      O41386   6.857   0.527   7.154
13715WAT     H141387   6.767   0.533   7.198
13715WAT     H241388   6.926   0.566   7.215
13716WAT      O41389   9.408   5.753   4.878
13716WAT     H141390   9.464   5.688   4.929
13716WAT     H241391   9.358   5.704   4.806
13717WAT      O41392   0.857   8.465   7.622
13717WAT     H141393   0.934   8.432   7.676
13717WAT     H241394   0.772   8.452   7.673
13718WAT      O41395   6.477   5.578   6.434
13718WAT     H141396   6.445   5.509   6.368
13718WAT     H241397   6.435   5.561   6.523
13719WAT      O41398   3.453   5.781   1.064
13719WAT     H141399   3.537   5.781   1.117
13719WAT     H241400   3.405   5.693   1.077
13720WAT      O41401   1.611   5.779   3.200
13720WAT     H141402   1.660   5.789   3.113
13720WAT     H241403   1.595   5.869   3.240
13721WAT      O41404   1.502   8.922   3.275
13721WAT     H141405   1.457   8.999   3.320
13721WAT     H241406   1.535   8.857   3.345
13722WAT      O41407   4.710   2.033   1.101
13722WAT     H141408   4.629   1.992   1.058
13722WAT     H241409   4.748   2.102   1.040
13723WAT      O41410   9.322   5.248   1.176
13723WAT     H141411   9.360   5.174   1.120
13723WAT     H241412   9.336   5.226   1.273
13724WAT      O41413   9.254   6.187   2.678
13724WAT     H141414   9.332   6.195   2.741
13724WAT     H241415   9.206   6.274   2.674
13725WAT      O41416   0.011   8.043   5.580
13725WAT     H141417  -0.064   8.108   5.563
13725WAT     H241418   0.013   8.021   5.678
13726WAT      O41419   5.197   0.634   0.119
13726WAT     H141420   5.130   0.675   0.056
13726WAT     H241421   5.228   0.704   0.184
13727WAT      O41422   1.689   2.493   7.753
13727WAT     H141423   1.710   2.415   7.694
13727WAT     H241424   1.772   2.523   7.799
13728WAT      O41425   6.692   2.912   6.948
13728WAT     H141426   6.791   2.906   6.963
13728WAT     H241427   6.651   2.822   6.962
13729WAT      O41428   2.907   7.627   6.034
13729WAT     H141429   2.842   7.551   6.027
13729WAT     H241430   3.000   7.593   6.026
13730WAT      O41431   1.193   0.792   2.691
13730WAT     H141432   1.262   0.738   2.739
13730WAT     H241433   1.102   0.770   2.726
13731WAT      O41434   9.102   5.643   6.623
13731WAT     H141435   9.132   5.565   6.568
13731WAT     H241436   9.086   5.722   6.564
13732WAT      O41437   3.026   6.670   7.638
13732WAT     H141438   2.980   6.605   7.577
13732WAT     H241439   3.119   6.637   7.658
13733WAT      O41440   0.777   5.287   4.577
13733WAT     H141441   0.748   5.337   4.658
13733WAT     H241442   0.727   5.200   4.572
13734WAT      O41443   3.072   7.290   7.961
13734WAT     H141444   3.037   7.347   7.887
13734WAT     H241445   3.103   7.202   7.924
13735WAT      O41446   4.193   8.782   1.458
13735WAT     H141447   4.249   8.704   1.486
13735WAT     H241448   4.108   8.749   1.417
13736WAT      O41449   8.847   2.690   5.834
13736WAT     H141450   8.826   2.592   5.833
13736WAT     H241451   8.942   2.704   5.864
13737WAT      O41452   5.604   8.740   0.357
13737WAT     H141453   5.608   8.826   0.407
13737WAT     H241454   5.520   8.738   0.302
13738WAT      O41455   6.199   2.511   1.613
13738WAT     H141456   6.264   2.585   1.632
13738WAT     H241457   6.135   2.503   1.690
13739WAT      O41458   1.350   3.225   9.460
13739WAT     H141459   1.278   3.198   9.395
13739WAT     H241460   1.324   3.311   9.504
13740WAT      O41461   2.520   2.196   5.566
13740WAT     H141462   2.493   2.213   5.660
13740WAT     H241463   2.610   2.235   5.549
13741WAT      O41464   4.168   5.233   6.386
13741WAT     H141465   4.204   5.169   6.319
13741WAT     H241466   4.202   5.325   6.366
13742WAT      O41467   1.081   9.046   9.513
13742WAT     H141468   1.022   8.981   9.465
13742WAT     H241469   1.147   8.995   9.569
13743WAT      O41470   4.019   0.017   5.612
13743WAT     H141471   3.928   0.057   5.601
13743WAT     H241472   4.049   0.028   5.707
13744WAT      O41473   0.507   3.928   9.588
13744WAT     H141474   0.486   3.984   9.668
13744WAT     H241475   0.602   3.896   9.594
13745WAT      O41476   9.187   6.239   6.139
13745WAT     H141477   9.139   6.234   6.227
13745WAT     H241478   9.201   6.335   6.115
13746WAT      O41479   8.625   2.485   4.245
13746WAT     H141480   8.564   2.563   4.255
13746WAT     H241481   8.710   2.502   4.296
13747WAT      O41482   4.437   1.348   4.702
13747WAT     H141483   4.444   1.312   4.609
13747WAT     H241484   4.342   1.345   4.733
13748WAT      O41485   2.561   6.337   8.418
13748WAT     H141486   2.593   6.429   8.440
13748WAT     H241487   2.523   6.336   8.325
13749WAT      O41488   4.779   0.287   2.085
13749WAT     H141489   4.743   0.193   2.083
13749WAT     H241490   4.876   0.286   2.061
13750WAT      O41491   0.745   5.258   9.044
13750WAT     H141492   0.829   5.238   8.994
13750WAT     H241493   0.666   5.231   8.989
13751WAT      O41494   9.364   8.656   4.755
13751WAT     H141495   9.380   8.586   4.685
13751WAT     H241496   9.278   8.639   4.802
13752WAT      O41497   3.137   4.767   0.573
13752WAT     H141498   3.208   4.738   0.637
13752WAT     H241499   3.137   4.867   0.565
13753WAT      O41500   7.232   8.801   0.944
13753WAT     H141501   7.153   8.855   0.916
13753WAT     H241502   7.316   8.843   0.909
13754WAT      O41503   0.581   2.142   5.673
13754WAT     H141504   0.587   2.228   5.724
13754WAT     H241505   0.520   2.154   5.595
13755WAT      O41506   5.712   2.425   1.922
13755WAT     H141507   5.745   2.457   2.010
13755WAT     H241508   5.766   2.347   1.892
13756WAT      O41509   4.104   7.176   3.371
13756WAT     H141510   4.154   7.164   3.284
13756WAT     H241511   4.170   7.195   3.444
13757WAT      O41512   9.245   9.733   6.026
13757WAT     H141513   9.193   9.723   5.940
13757WAT     H241514   9.322   9.669   6.026
13758WAT      O41515   9.191   4.219   4.979
13758WAT     H141516   9.269   4.233   4.918
13758WAT     H241517   9.135   4.302   4.981
13759WAT      O41518   6.925   1.642   9.023
13759WAT     H141519   6.992   1.581   8.981
13759WAT     H241520   6.897   1.711   8.956
13760WAT      O41521   8.173   5.552   6.274
13760WAT     H141522   8.092   5.602   6.306
13760WAT     H241523   8.205   5.492   6.348
13761WAT      O41524   1.021   5.417   5.569
13761WAT     H141525   1.086   5.373   5.632
13761WAT     H241526   1.046   5.394   5.475
13762WAT      O41527   7.723   0.962   3.480
13762WAT     H141528   7.815   0.999   3.492
13762WAT     H241529   7.684   0.941   3.570
13763WAT      O41530   3.074   5.918   7.748
13763WAT     H141531   3.000   5.943   7.687
13763WAT     H241532   3.145   5.870   7.697
13764WAT      O41533   5.241   1.796   6.085
13764WAT     H141534   5.210   1.790   5.991
13764WAT     H241535   5.167   1.770   6.147
13765WAT      O41536   9.153   4.411   1.848
13765WAT     H141537   9.225   4.342   1.853
13765WAT     H241538   9.070   4.375   1.892
13766WAT      O41539   1.723   8.596   5.953
13766WAT     H141540   1.808   8.638   5.983
13766WAT     H241541   1.656   8.667   5.930
13767WAT      O41542   1.280   2.888   8.562
13767WAT     H141543   1.332   2.964   8.524
13767WAT     H241544   1.183   2.912   8.566
13768WAT      O41545   5.200   6.655   6.913
13768WAT     H141546   5.140   6.730   6.884
13768WAT     H241547   5.281   6.694   6.959
13769WAT      O41548   8.206   4.237   4.781
13769WAT     H141549   8.175   4.188   4.863
13769WAT     H241550   8.210   4.335   4.800
13770WAT      O41551   0.166   0.235   3.831
13770WAT     H141552   0.158   0.298   3.907
13770WAT     H241553   0.249   0.255   3.778
13771WAT      O41554   9.478   3.241   5.182
13771WAT     H141555   9.495   3.142   5.186
13771WAT     H241556   9.565   3.290   5.183
13772WAT      O41557   7.608   0.060   6.163
13772WAT     H141558   7.630   0.031   6.256
13772WAT     H241559   7.620   0.159   6.155
13773WAT      O41560   8.540   8.271   0.978
13773WAT     H141561   8.530   8.181   1.022
13773WAT     H241562   8.630   8.276   0.934
13774WAT      O41563   0.107   5.748   6.994
13774WAT     H141564   0.057   5.781   6.915
13774WAT     H241565   0.073   5.792   7.077
13775WAT      O41566   6.227   7.592   3.375
13775WAT     H141567   6.183   7.622   3.291
13775WAT     H241568   6.293   7.520   3.355
13776WAT      O41569   8.767   7.342   6.621
13776WAT     H141570   8.847   7.281   6.620
13776WAT     H241571   8.739   7.361   6.527
13777WAT      O41572   5.459   1.309   1.306
13777WAT     H141573   5.381   1.321   1.368
13777WAT     H241574   5.535   1.269   1.356
13778WAT      O41575   5.355   7.163   0.256
13778WAT     H141576   5.388   7.069   0.253
13778WAT     H241577   5.265   7.169   0.211
13779WAT      O41578   9.888   4.435   8.062
13779WAT     H141579   9.826   4.387   8.000
13779WAT     H241580   9.835   4.481   8.134
13780WAT      O41581   6.940   7.235   7.877
13780WAT     H141582   7.035   7.253   7.902
13780WAT     H241583   6.890   7.207   7.959
13781WAT      O41584   5.208   8.115   6.162
13781WAT     H141585   5.267   8.037   6.140
13781WAT     H241586   5.244   8.163   6.242
13782WAT      O41587   2.596   4.676   3.341
13782WAT     H141588   2.545   4.760   3.357
13782WAT     H241589   2.534   4.605   3.306
13783WAT      O41590   8.764   6.656   5.226
13783WAT     H141591   8.822   6.578   5.250
13783WAT     H241592   8.669   6.636   5.252
13784WAT      O41593   7.484   6.503   4.193
13784WAT     H141594   7.505   6.588   4.145
13784WAT     H241595   7.398   6.466   4.159
13785WAT      O41596   7.503   3.375   0.283
13785WAT     H141597   7.409   3.342   0.292
13785WAT     H241598   7.507   3.448   0.216
13786WAT      O41599   4.565   2.938   6.453
13786WAT     H141600   4.616   3.006   6.504
13786WAT     H241601   4.550   2.970   6.360
13787WAT      O41602   4.537   7.971   5.839
13787WAT     H141603   4.474   8.035   5.883
13787WAT     H241604   4.544   7.888   5.893
13788WAT      O41605   9.189   3.918   9.874
13788WAT     H141606   9.286   3.940   9.885
13788WAT     H241607   9.133   3.980   9.929
13789WAT      O41608   4.500   5.882   6.601
13789WAT     H141609   4.484   5.913   6.507
13789WAT     H241610   4.438   5.930   6.663
13790WAT      O41611   3.457   3.790   8.510
13790WAT     H141612   3.553   3.767   8.494
13790WAT     H241613   3.415   3.716   8.564
13791WAT      O41614   2.388   4.484   4.066
13791WAT     H141615   2.309   4.536   4.032
13791WAT     H241616   2.450   4.546   4.115
13792WAT      O41617   6.936   3.401   8.221
13792WAT     H141618   6.928   3.462   8.299
13792WAT     H241619   6.870   3.326   8.230
13793WAT      O41620   7.568   4.773   5.388
13793WAT     H141621   7.543   4.724   5.303
13793WAT     H241622   7.496   4.839   5.410
13794WAT      O41623   8.886   0.153   8.146
13794WAT     H141624   8.916   0.154   8.241
13794WAT     H241625   8.895   0.061   8.109
13795WAT      O41626   5.381   2.684   3.479
13795WAT     H141627   5.286   2.654   3.483
13795WAT     H241628   5.425   2.667   3.567
13796WAT      O41629   7.325   5.762   5.223
13796WAT     H141630   7.384   5.688   5.191
13796WAT     H241631   7.255   5.725   5.284
13797WAT      O41632   5.639   5.485   7.082
13797WAT     H141633   5.565   5.553   7.076
13797WAT     H241634   5.600   5.395   7.100
13798WAT      O41635   1.927   5.767   5.488
13798WAT     H141636   1.839   5.721   5.494
13798WAT     H241637   1.927   5.829   5.409
13799WAT      O41638   3.055   0.401   3.640
13799WAT     H141639   3.126   0.470   3.626
13799WAT     H241640   3.089   0.311   3.612
13800WAT      O41641   8.678   4.482   5.925
13800WAT     H141642   8.736   4.412   5.967
13800WAT     H241643   8.731   4.566   5.913
13801WAT      O41644   7.423   2.215   3.497
13801WAT     H141645   7.438   2.137   3.436
13801WAT     H241646   7.488   2.288   3.475
13802WAT      O41647   2.213   8.365   2.982
13802WAT     H141648   2.297   8.420   2.976
13802WAT     H241649   2.153   8.404   3.052
13803WAT      O41650   7.314   7.993   7.534
13803WAT     H141651   7.388   7.990   7.600
13803WAT     H241652   7.351   8.012   7.443
13804WAT      O41653   6.075   5.333   5.661
13804WAT     H141654   6.117   5.268   5.725
13804WAT     H241655   6.008   5.389   5.710
13805WAT      O41656   1.233   6.406   5.903
13805WAT     H141657   1.303   6.356   5.955
13805WAT     H241658   1.241   6.383   5.806
13806WAT      O41659   3.301   8.844   1.864
13806WAT     H141660   3.268   8.750   1.876
13806WAT     H241661   3.389   8.843   1.817
13807WAT      O41662   4.023   4.236   0.890
13807WAT     H141663   4.068   4.325   0.880
13807WAT     H241664   4.090   4.169   0.923
13808WAT      O41665   2.406   1.090   3.928
13808WAT     H141666   2.450   1.055   3.846
13808WAT     H241667   2.356   1.173   3.907
13809WAT      O41668   5.683   7.505   9.521
13809WAT     H141669   5.747   7.428   9.517
13809WAT     H241670   5.619   7.491   9.597
13810WAT      O41671   4.360   4.160   5.701
13810WAT     H141672   4.451   4.122   5.682
13810WAT     H241673   4.319   4.112   5.778
13811WAT      O41674   2.718   3.368   2.314
13811WAT     H141675   2.776   3.378   2.233
13811WAT     H241676   2.744   3.435   2.383
13812WAT      O41677   8.148   5.793   3.528
13812WAT     H141678   8.214   5.723   3.500
13812WAT     H241679   8.087   5.813   3.451
13813WAT      O41680   4.986   7.511   2.615
13813WAT     H141681   4.955   7.572   2.688
13813WAT     H241682   4.936   7.425   2.618
13814WAT      O41683   0.169   5.392   4.175
13814WAT     H141684   0.144   5.318   4.113
13814WAT     H241685   0.087   5.437   4.208
13815WAT      O41686   5.262   7.565   4.382
13815WAT     H141687   5.296   7.477   4.350
13815WAT     H241688   5.261   7.567   4.482
13816WAT      O41689   3.782   1.699   6.664
13816WAT     H141690   3.831   1.731   6.745
13816WAT     H241691   3.774   1.773   6.598
13817WAT      O41692   0.619   2.328   2.277
13817WAT     H141693   0.634   2.256   2.208
13817WAT     H241694   0.576   2.407   2.233
13818WAT      O41695   7.861   1.541   0.022
13818WAT     H141696   7.880   1.455  -0.027
13818WAT     H241697   7.904   1.617  -0.027
13819WAT      O41698   3.607   8.256   4.933
13819WAT     H141699   3.633   8.344   4.891
13819WAT     H241700   3.669   8.184   4.900
13820WAT      O41701   7.810   8.064   8.012
13820WAT     H141702   7.778   8.158   8.025
13820WAT     H241703   7.888   8.047   8.071
13821WAT      O41704   9.072   6.815   3.832
13821WAT     H141705   9.005   6.757   3.785
13821WAT     H241706   9.137   6.851   3.765
13822WAT      O41707   0.686   4.994   3.940
13822WAT     H141708   0.661   4.951   4.027
13822WAT     H241709   0.762   4.944   3.899
13823WAT      O41710   9.441   7.627   2.135
13823WAT     H141711   9.533   7.654   2.107
13823WAT     H241712   9.382   7.618   2.055
13824WAT      O41713   3.853   8.027   7.998
13824WAT     H141714   3.772   7.969   7.998
13824WAT     H241715   3.826   8.123   8.005
13825WAT      O41716   9.737   2.178   6.355
13825WAT     H141717   9.692   2.100   6.399
13825WAT     H241718   9.817   2.204   6.409
13826WAT      O41719   2.268   1.508   0.272
13826WAT     H141720   2.230   1.522   0.180
13826WAT     H241721   2.303   1.595   0.307
13827WAT      O41722   4.422   2.440   5.258
13827WAT     H141723   4.439   2.344   5.237
13827WAT     H241724   4.505   2.481   5.296
13828WAT      O41725   2.202   9.141   4.604
13828WAT     H141726   2.129   9.075   4.585
13828WAT     H241727   2.232   9.131   4.699
13829WAT      O41728   0.855   1.523   4.410
13829WAT     H141729   0.835   1.620   4.399
13829WAT     H241730   0.772   1.470   4.395
13830WAT      O41731   4.909   1.042   9.360
13830WAT     H141732   4.902   1.108   9.285
13830WAT     H241733   4.902   1.091   9.447
13831WAT      O41734   2.904   1.654   6.429
13831WAT     H141735   2.918   1.556   6.438
13831WAT     H241736   2.808   1.677   6.447
13832WAT      O41737   6.417   1.731   3.215
13832WAT     H141738   6.413   1.739   3.315
13832WAT     H241739   6.504   1.769   3.182
13833WAT      O41740   4.134   9.418   9.289
13833WAT     H141741   4.084   9.361   9.354
13833WAT     H241742   4.215   9.457   9.333
13834WAT      O41743   4.765   4.666   0.443
13834WAT     H141744   4.782   4.569   0.460
13834WAT     H241745   4.776   4.686   0.345
13835WAT      O41746   8.943   3.372   5.788
13835WAT     H141747   8.903   3.394   5.877
13835WAT     H241748   8.873   3.376   5.717
13836WAT      O41749   2.823   0.341   3.264
13836WAT     H141750   2.863   0.263   3.313
13836WAT     H241751   2.731   0.359   3.300
13837WAT      O41752   6.590   6.067   8.321
13837WAT     H141753   6.611   6.096   8.414
13837WAT     H241754   6.662   6.099   8.259
13838WAT      O41755   1.784   0.235   1.320
13838WAT     H141756   1.844   0.291   1.376
13838WAT     H241757   1.722   0.293   1.268
13839WAT      O41758   3.894   5.601   2.789
13839WAT     H141759   3.944   5.608   2.702
13839WAT     H241760   3.824   5.672   2.793
13840WAT      O41761   9.254   2.382   0.945
13840WAT     H141762   9.226   2.299   0.897
13840WAT     H241763   9.210   2.461   0.902
13841WAT      O41764   7.254   2.015   8.109
13841WAT     H141765   7.195   2.074   8.164
13841WAT     H241766   7.350   2.030   8.135
13842WAT      O41767   1.076   2.390   1.435
13842WAT     H141768   1.110   2.431   1.520
13842WAT     H241769   0.994   2.337   1.454
13843WAT      O41770   5.370   4.642   0.837
13843WAT     H141771   5.271   4.632   0.837
13843WAT     H241772   5.410   4.581   0.769
13844WAT      O41773   0.918   2.149   5.142
13844WAT     H141774   0.823   2.181   5.146
13844WAT     H241775   0.980   2.225   5.159
13845WAT      O41776   9.444   3.530   0.957
13845WAT     H141777   9.355   3.523   1.001
13845WAT     H241778   9.516   3.514   1.025
13846WAT      O41779   0.008   0.438   4.187
13846WAT     H141780  -0.070   0.501   4.191
13846WAT     H241781   0.019   0.393   4.275
13847WAT      O41782   9.365   2.886   6.463
13847WAT     H141783   9.272   2.854   6.483
13847WAT     H241784   9.363   2.951   6.386
13848WAT      O41785   4.925   3.177   9.533
13848WAT     H141786   5.023   3.189   9.546
13848WAT     H241787   4.900   3.083   9.557
13849WAT      O41788   3.804   5.883   4.788
13849WAT     H141789   3.768   5.903   4.696
13849WAT     H241790   3.807   5.967   4.842
13850WAT      O41791   6.622   5.190   4.881
13850WAT     H141792   6.645   5.287   4.871
13850WAT     H241793   6.531   5.182   4.921
13851WAT      O41794   8.130   4.144   8.468
13851WAT     H141795   8.031   4.132   8.476
13851WAT     H241796   8.156   4.232   8.508
13852WAT      O41797   0.045   3.787   8.400
13852WAT     H141798   0.015   3.869   8.352
13852WAT     H241799  -0.031   3.751   8.455
13853WAT      O41800   0.373   5.908   1.269
13853WAT     H141801   0.279   5.920   1.238
13853WAT     H241802   0.407   5.819   1.238
13854WAT      O41803   2.194   8.519   1.426
13854WAT     H141804   2.180   8.600   1.483
13854WAT     H241805   2.202   8.547   1.330
13855WAT      O41806   5.206   5.856   2.864
13855WAT     H141807   5.188   5.905   2.949
13855WAT     H241808   5.178   5.912   2.786
13856WAT      O41809   2.773   9.796   6.538
13856WAT     H141810   2.829   9.803   6.455
13856WAT     H241811   2.698   9.732   6.522
13857WAT      O41812   6.330   7.455   3.096
13857WAT     H141813   6.319   7.375   3.038
13857WAT     H241814   6.358   7.427   3.187
13858WAT      O41815   8.198   3.251   3.000
13858WAT     H141816   8.208   3.214   2.908
13858WAT     H241817   8.288   3.266   3.041
13859WAT      O41818   3.383   1.265   1.497
13859WAT     H141819   3.410   1.349   1.449
13859WAT     H241820   3.288   1.273   1.527
13860WAT      O41821   0.970   6.613   0.426
13860WAT     H141822   1.056   6.603   0.477
13860WAT     H241823   0.896   6.633   0.490
13861WAT      O41824   0.192   5.004   0.919
13861WAT     H141825   0.170   5.075   0.986
13861WAT     H241826   0.263   4.944   0.956
13862WAT      O41827   0.116   0.379   7.423
13862WAT     H141828   0.138   0.356   7.517
13862WAT     H241829   0.061   0.462   7.421
13863WAT      O41830   5.276   3.737   8.062
13863WAT     H141831   5.230   3.822   8.088
13863WAT     H241832   5.258   3.717   7.966
13864WAT      O41833   6.467   2.594   2.924
13864WAT     H141834   6.423   2.635   3.003
13864WAT     H241835   6.496   2.501   2.946
13865WAT      O41836   1.137   1.469   9.236
13865WAT     H141837   1.076   1.492   9.161
13865WAT     H241838   1.223   1.434   9.200
13866WAT      O41839   5.265   5.803   0.682
13866WAT     H141840   5.269   5.715   0.635
13866WAT     H241841   5.175   5.845   0.667
13867WAT      O41842   7.048   6.922   9.886
13867WAT     H141843   7.093   6.864   9.955
13867WAT     H241844   6.967   6.874   9.851
13868WAT      O41845   4.616   9.257   9.743
13868WAT     H141846   4.550   9.284   9.812
13868WAT     H241847   4.630   9.158   9.747
13869WAT      O41848   5.531   7.375   3.488
13869WAT     H141849   5.522   7.395   3.586
13869WAT     H241850   5.627   7.360   3.466
13870WAT      O41851   0.017   7.495   7.816
13870WAT     H141852   0.009   7.400   7.785
13870WAT     H241853   0.021   7.556   7.737
13871WAT      O41854   8.877   9.538   3.506
13871WAT     H141855   8.798   9.500   3.553
13871WAT     H241856   8.926   9.465   3.458
13872WAT      O41857   8.175   0.297   1.526
13872WAT     H141858   8.172   0.220   1.463
13872WAT     H241859   8.252   0.286   1.589
13873WAT      O41860   7.407   6.773   8.248
13873WAT     H141861   7.382   6.676   8.246
13873WAT     H241862   7.462   6.795   8.167
13874WAT      O41863   0.933   9.779   7.803
13874WAT     H141864   0.901   9.692   7.841
13874WAT     H241865   0.928   9.850   7.872
13875WAT      O41866   8.144   3.054   4.561
13875WAT     H141867   8.235   3.015   4.552
13875WAT     H241868   8.149   3.153   4.547
13876WAT      O41869   8.993   0.510   1.535
13876WAT     H141870   9.028   0.485   1.626
13876WAT     H241871   9.060   0.568   1.489
13877WAT      O41872   9.449   2.137   7.111
13877WAT     H141873   9.519   2.072   7.082
13877WAT     H241874   9.476   2.229   7.082
13878WAT      O41875   8.595   1.676   7.982
13878WAT     H141876   8.673   1.631   8.026
13878WAT     H241877   8.510   1.648   8.026
13879WAT      O41878   0.569   8.722   6.039
13879WAT     H141879   0.665   8.709   6.013
13879WAT     H241880   0.521   8.635   6.033
13880WAT      O41881   0.101   9.298   8.213
13880WAT     H141882   0.074   9.258   8.126
13880WAT     H241883   0.107   9.227   8.283
13881WAT      O41884   2.812   4.784   3.472
13881WAT     H141885   2.747   4.731   3.417
13881WAT     H241886   2.896   4.798   3.421
13882WAT      O41887   1.042   0.630   1.468
13882WAT     H141888   1.042   0.536   1.435
13882WAT     H241889   0.979   0.638   1.546
13883WAT      O41890   5.586   4.283   5.955
13883WAT     H141891   5.594   4.350   6.029
13883WAT     H241892   5.511   4.310   5.895
13884WAT      O41893   1.275   7.693   3.318
13884WAT     H141894   1.213   7.770   3.303
13884WAT     H241895   1.357   7.725   3.366
13885WAT      O41896   5.398   9.460   8.474
13885WAT     H141897   5.399   9.380   8.414
13885WAT     H241898   5.320   9.518   8.451
13886WAT      O41899   6.228   2.526   1.181
13886WAT     H141900   6.164   2.601   1.198
13886WAT     H241901   6.243   2.476   1.266
13887WAT      O41902   3.728   8.812   5.234
13887WAT     H141903   3.803   8.749   5.254
13887WAT     H241904   3.646   8.783   5.283
13888WAT      O41905   3.684   5.401   1.685
13888WAT     H141906   3.661   5.499   1.682
13888WAT     H241907   3.621   5.353   1.746
13889WAT      O41908   4.215   4.028   2.104
13889WAT     H141909   4.140   3.988   2.157
13889WAT     H241910   4.179   4.067   2.019
13890WAT      O41911   1.275   1.691   3.502
13890WAT     H141912   1.191   1.703   3.449
13890WAT     H241913   1.335   1.626   3.455
13891WAT      O41914   7.663   6.679   0.003
13891WAT     H141915   7.730   6.606   0.013
13891WAT     H241916   7.604   6.683   0.084
13892WAT      O41917   5.799   8.545   9.661
13892WAT     H141918   5.866   8.538   9.736
13892WAT     H241919   5.716   8.495   9.687
13893WAT      O41920   5.949   6.945   4.156
13893WAT     H141921   5.906   6.874   4.212
13893WAT     H241922   5.933   6.926   4.059
13894WAT      O41923   4.411   9.405   0.802
13894WAT     H141924   4.481   9.455   0.750
13894WAT     H241925   4.453   9.328   0.850
13895WAT      O41926   8.594   9.222   0.829
13895WAT     H141927   8.553   9.313   0.837
13895WAT     H241928   8.620   9.190   0.920
13896WAT      O41929   7.129   6.521   2.925
13896WAT     H141930   7.201   6.567   2.976
13896WAT     H241931   7.040   6.548   2.960
13897WAT      O41932   1.762   1.390   4.024
13897WAT     H141933   1.715   1.416   4.108
13897WAT     H241934   1.824   1.464   3.996
13898WAT      O41935   0.962   6.394   8.662
13898WAT     H141936   0.912   6.474   8.697
13898WAT     H241937   1.019   6.356   8.734
13899WAT      O41938   1.700   2.751   8.823
13899WAT     H141939   1.615   2.778   8.870
13899WAT     H241940   1.683   2.742   8.725
13900WAT      O41941   0.010   5.087   2.341
13900WAT     H141942   0.052   5.112   2.254
13900WAT     H241943   0.028   4.991   2.360
13901WAT      O41944   5.242   4.074   3.599
13901WAT     H141945   5.242   4.108   3.505
13901WAT     H241946   5.316   4.118   3.650
13902WAT      O41947   1.429   3.200   7.301
13902WAT     H141948   1.478   3.116   7.323
13902WAT     H241949   1.331   3.182   7.295
13903WAT      O41950   8.317   1.982   7.602
13903WAT     H141951   8.269   1.916   7.544
13903WAT     H241952   8.346   2.060   7.547
13904WAT      O41953   4.620   1.576   0.717
13904WAT     H141954   4.683   1.498   0.709
13904WAT     H241955   4.546   1.564   0.651
13905WAT      O41956   4.802   9.265   6.871
13905WAT     H141957   4.872   9.224   6.930
13905WAT     H241958   4.712   9.251   6.912
13906WAT      O41959   6.954   5.812   8.992
13906WAT     H141960   7.049   5.841   8.983
13906WAT     H241961   6.936   5.791   9.088
13907WAT      O41962   5.895   8.159   3.211
13907WAT     H141963   5.972   8.158   3.275
13907WAT     H241964   5.910   8.092   3.139
13908WAT      O41965   0.011   7.873   0.792
13908WAT     H141966   0.110   7.861   0.799
13908WAT     H241967  -0.030   7.877   0.883
13909WAT      O41968   6.783   5.250   9.811
13909WAT     H141969   6.739   5.221   9.726
13909WAT     H241970   6.876   5.212   9.815
13910WAT      O41971   0.291   3.550   9.197
13910WAT     H141972   0.210   3.603   9.219
13910WAT     H241973   0.356   3.556   9.273
13911WAT      O41974   5.721   3.186   8.466
13911WAT     H141975   5.646   3.251   8.475
13911WAT     H241976   5.707   3.130   8.385
13912WAT      O41977   6.768   1.841   6.343
13912WAT     H141978   6.734   1.748   6.332
13912WAT     H241979   6.861   1.847   6.307
13913WAT      O41980   0.044   5.711   1.364
13913WAT     H141981   0.110   5.674   1.299
13913WAT     H241982  -0.045   5.722   1.320
13914WAT      O41983   5.788   7.260   5.388
13914WAT     H141984   5.707   7.273   5.445
13914WAT     H241985   5.838   7.179   5.419
13915WAT      O41986   1.184   5.291   5.770
13915WAT     H141987   1.162   5.268   5.865
13915WAT     H241988   1.281   5.314   5.762
13916WAT      O41989   3.999   9.036   5.882
13916WAT     H141990   4.029   8.997   5.968
13916WAT     H241991   3.906   9.006   5.862
13917WAT      O41992   2.479   0.490   6.251
13917WAT     H141993   2.565   0.475   6.300
13917WAT     H241994   2.490   0.566   6.186
13918WAT      O41995   7.005   2.747   3.393
13918WAT     H141996   7.031   2.682   3.465
13918WAT     H241997   6.981   2.696   3.310
13919WAT      O41998   9.776   5.026   6.479
13919WAT     H141999   9.808   5.108   6.431
13919WAT     H242000   9.855   4.970   6.504
13920WAT      O42001   1.091   2.765   8.800
13920WAT     H142002   1.175   2.713   8.784
13920WAT     H242003   1.065   2.813   8.716
13921WAT      O42004   6.488   2.493   5.189
13921WAT     H142005   6.525   2.583   5.165
13921WAT     H242006   6.506   2.475   5.286
13922WAT      O42007   5.555   9.716   7.979
13922WAT     H142008   5.583   9.810   8.000
13922WAT     H242009   5.636   9.662   7.955
13923WAT      O42010   4.438   6.747   8.634
13923WAT     H142011   4.397   6.705   8.716
13923WAT     H242012   4.508   6.686   8.597
13924WAT      O42013   9.819   2.224   3.450
13924WAT     H142014   9.769   2.197   3.532
13924WAT     H242015   9.883   2.298   3.472
13925WAT      O42016   5.865   4.731   3.695
13925WAT     H142017   5.832   4.637   3.692
13925WAT     H242018   5.825   4.778   3.774
13926WAT      O42019   6.645   4.260   3.919
13926WAT     H142020   6.743   4.242   3.916
13926WAT     H242021   6.627   4.352   3.882
13927WAT      O42022   8.039   7.298   7.168
13927WAT     H142023   7.944   7.270   7.153
13927WAT     H242024   8.074   7.253   7.250
13928WAT      O42025   2.915   0.197   8.191
13928WAT     H142026   2.913   0.201   8.091
13928WAT     H242027   2.835   0.244   8.228
13929WAT      O42028   5.362   9.805   2.331
13929WAT     H142029   5.412   9.813   2.245
13929WAT     H242030   5.270   9.769   2.313
13930WAT      O42031   4.184   3.971   0.994
13930WAT     H142032   4.093   3.938   0.969
13930WAT     H242033   4.251   3.897   0.981
13931WAT      O42034   8.198   3.756   6.737
13931WAT     H142035   8.173   3.724   6.646
13931WAT     H242036   8.141   3.835   6.761
13932WAT      O42037   7.805   7.554   9.607
13932WAT     H142038   7.797   7.491   9.530
13932WAT     H242039   7.748   7.523   9.682
13933WAT      O42040   6.428   9.028   9.612
13933WAT     H142041   6.346   9.076   9.646
13933WAT     H242042   6.437   8.941   9.661
13934WAT      O42043   3.640   1.862   0.146
13934WAT     H142044   3.551   1.878   0.188
13934WAT     H242045   3.713   1.882   0.211
13935WAT      O42046   3.263   8.120   2.716
13935WAT     H142047   3.189   8.085   2.658
13935WAT     H242048   3.349   8.078   2.690
13936WAT      O42049   7.908   9.452   4.682
13936WAT     H142050   7.920   9.500   4.595
13936WAT     H242051   7.970   9.374   4.686
13937WAT      O42052   0.909   8.289   0.035
13937WAT     H142053   0.996   8.262  -0.005
13937WAT     H242054   0.923   8.316   0.131
13938WAT      O42055   3.385   2.748   4.208
13938WAT     H142056   3.434   2.662   4.218
13938WAT     H242057   3.401   2.785   4.116
13939WAT      O42058   8.056   5.810   8.527
13939WAT     H142059   8.131   5.778   8.585
13939WAT     H242060   7.983   5.846   8.584
13940WAT      O42061   4.724   8.398   4.878
13940WAT     H142062   4.749   8.350   4.793
13940WAT     H242063   4.632   8.436   4.868
13941WAT      O42064   5.679   9.468   4.571
13941WAT     H142065   5.609   9.458   4.641
13941WAT     H242066   5.650   9.421   4.487
13942WAT      O42067   2.750   7.833   9.591
13942WAT     H142068   2.679   7.770   9.623
13942WAT     H242069   2.771   7.813   9.495
13943WAT      O42070   5.854   4.570   5.310
13943WAT     H142071   5.759   4.601   5.301
13943WAT     H242072   5.862   4.477   5.275
13944WAT      O42073   3.730   5.083   7.235
13944WAT     H142074   3.650   5.134   7.201
13944WAT     H242075   3.747   5.005   7.174
13945WAT      O42076   8.675   7.971   4.196
13945WAT     H142077   8.755   7.958   4.136
13945WAT     H242078   8.598   8.003   4.141
13946WAT      O42079   3.140   1.107   5.269
13946WAT     H142080   3.220   1.166   5.257
13946WAT     H242081   3.121   1.096   5.366
13947WAT      O42082   7.647   9.396   9.795
13947WAT     H142083   7.578   9.368   9.727
13947WAT     H242084   7.653   9.326   9.867
13948WAT      O42085   4.247   5.415   4.131
13948WAT     H142086   4.149   5.398   4.136
13948WAT     H242087   4.274   5.478   4.204
13949WAT      O42088   4.702   2.417   8.629
13949WAT     H142089   4.767   2.343   8.616
13949WAT     H242090   4.670   2.449   8.540
13950WAT      O42091   4.724   6.880   8.475
13950WAT     H142092   4.644   6.821   8.477
13950WAT     H242093   4.777   6.868   8.559
13951WAT      O42094   9.795   5.985   2.967
13951WAT     H142095   9.823   6.015   2.876
13951WAT     H242096   9.772   6.065   3.022
13952WAT      O42097   9.111   1.282   6.822
13952WAT     H142098   9.030   1.312   6.872
13952WAT     H242099   9.133   1.350   6.751
13953WAT      O42100   0.425   1.386   4.528
13953WAT     H142101   0.514   1.396   4.572
13953WAT     H242102   0.432   1.417   4.433
13954WAT      O42103   1.602   3.366   9.415
13954WAT     H142104   1.606   3.416   9.329
13954WAT     H242105   1.519   3.310   9.418
13955WAT      O42106   1.083   8.014   6.914
13955WAT     H142107   0.995   8.007   6.962
13955WAT     H242108   1.133   8.093   6.948
13956WAT      O42109   2.632   7.791   6.161
13956WAT     H142110   2.716   7.779   6.214
13956WAT     H242111   2.553   7.783   6.222
13957WAT      O42112   1.144   3.923   4.180
13957WAT     H142113   1.062   3.968   4.216
13957WAT     H242114   1.123   3.882   4.091
13958WAT      O42115   9.076   8.180   4.695
13958WAT     H142116   9.023   8.260   4.665
13958WAT     H242117   9.150   8.210   4.755
13959WAT      O42118   1.583   5.599   0.752
13959WAT     H142119   1.548   5.552   0.671
13959WAT     H242120   1.583   5.537   0.830
13960WAT      O42121   3.580   1.555   5.646
13960WAT     H142122   3.666   1.508   5.627
13960WAT     H242123   3.545   1.526   5.735
13961WAT      O42124   8.661   3.911   6.745
13961WAT     H142125   8.580   3.879   6.696
13961WAT     H242126   8.726   3.836   6.754
13962WAT      O42127   0.370   9.644   3.406
13962WAT     H142128   0.360   9.621   3.309
13962WAT     H242129   0.346   9.740   3.420
13963WAT      O42130   8.353   1.531   3.925
13963WAT     H142131   8.355   1.499   4.020
13963WAT     H242132   8.433   1.497   3.876
13964WAT      O42133   7.080   6.451   8.912
13964WAT     H142134   6.984   6.425   8.921
13964WAT     H242135   7.121   6.459   9.003
13965WAT      O42136   8.209   4.713   1.903
13965WAT     H142137   8.224   4.738   1.999
13965WAT     H242138   8.172   4.620   1.898
13966WAT      O42139   2.984   0.051   9.519
13966WAT     H142140   2.897   0.091   9.548
13966WAT     H242141   2.989   0.051   9.419
13967WAT      O42142   7.454   2.658   2.568
13967WAT     H142143   7.525   2.609   2.517
13967WAT     H242144   7.400   2.714   2.505
13968WAT      O42145   5.170   6.320   2.435
13968WAT     H142146   5.082   6.296   2.393
13968WAT     H242147   5.243   6.268   2.389
13969WAT      O42148   6.705   2.205   2.548
13969WAT     H142149   6.671   2.295   2.519
13969WAT     H242150   6.632   2.156   2.595
13970WAT      O42151   1.725   6.613   4.984
13970WAT     H142152   1.730   6.681   4.911
13970WAT     H242153   1.817   6.588   5.014
13971WAT      O42154   8.069   4.559   8.331
13971WAT     H142155   7.970   4.573   8.324
13971WAT     H242156   8.103   4.521   8.245
13972WAT      O42157   2.766   4.105   2.315
13972WAT     H142158   2.690   4.129   2.255
13972WAT     H242159   2.838   4.061   2.261
13973WAT      O42160   5.710   8.202   9.334
13973WAT     H142161   5.792   8.204   9.392
13973WAT     H242162   5.691   8.294   9.300
13974WAT      O42163   9.515   5.032   9.816
13974WAT     H142164   9.453   5.075   9.882
13974WAT     H242165   9.463   4.970   9.758
13975WAT      O42166   1.175   2.952   7.480
13975WAT     H142167   1.110   2.876   7.479
13975WAT     H242168   1.161   3.006   7.564
13976WAT      O42169   5.691   7.819   8.588
13976WAT     H142170   5.605   7.791   8.631
13976WAT     H242171   5.735   7.738   8.548
13977WAT      O42172   4.778   6.791   1.811
13977WAT     H142173   4.779   6.798   1.712
13977WAT     H242174   4.718   6.716   1.839
13978WAT      O42175   2.137   7.905   2.371
13978WAT     H142176   2.221   7.947   2.404
13978WAT     H242177   2.150   7.806   2.363
13979WAT      O42178   5.886   6.241   9.025
13979WAT     H142179   5.820   6.304   8.985
13979WAT     H242180   5.966   6.233   8.965
13980WAT      O42181   2.341   7.148   3.373
13980WAT     H142182   2.249   7.164   3.410
13980WAT     H242183   2.367   7.225   3.314
13981WAT      O42184   5.490   6.924   6.212
13981WAT     H142185   5.482   6.859   6.137
13981WAT     H242186   5.468   7.016   6.179
13982WAT      O42187   5.634   2.366   9.684
13982WAT     H142188   5.545   2.411   9.687
13982WAT     H242189   5.644   2.306   9.764
13983WAT      O42190   3.339   5.106   1.255
13983WAT     H142191   3.429   5.150   1.247
13983WAT     H242192   3.305   5.082   1.164
13984WAT      O42193   5.686   6.159   8.265
13984WAT     H142194   5.724   6.068   8.250
13984WAT     H242195   5.680   6.207   8.177
13985WAT      O42196   8.136   3.623   9.405
13985WAT     H142197   8.228   3.583   9.411
13985WAT     H242198   8.087   3.581   9.329
13986WAT      O42199   0.566   6.122   8.765
13986WAT     H142200   0.549   6.035   8.719
13986WAT     H242201   0.665   6.136   8.774
13987WAT      O42202   9.444   3.414   4.032
13987WAT     H142203   9.492   3.499   4.009
13987WAT     H242204   9.369   3.434   4.095
13988WAT      O42205   3.134   3.522   4.930
13988WAT     H142206   3.136   3.621   4.945
13988WAT     H242207   3.151   3.504   4.833
13989WAT      O42208   9.460   4.861   0.740
13989WAT     H142209   9.522   4.910   0.678
13989WAT     H242210   9.379   4.831   0.690
13990WAT      O42211   0.686   9.773   6.837
13990WAT     H142212   0.617   9.753   6.906
13990WAT     H242213   0.705   9.871   6.837
13991WAT      O42214   6.473   0.096   3.634
13991WAT     H142215   6.392   0.111   3.579
13991WAT     H242216   6.480  -0.001   3.658
13992WAT      O42217   8.710   2.182   0.534
13992WAT     H142218   8.650   2.255   0.503
13992WAT     H242219   8.664   2.094   0.524
13993WAT      O42220   5.429   3.258   7.029
13993WAT     H142221   5.383   3.267   6.940
13993WAT     H242222   5.457   3.163   7.042
13994WAT      O42223   9.570   3.910   2.102
13994WAT     H142224   9.515   3.989   2.076
13994WAT     H242225   9.651   3.905   2.044
13995WAT      O42226   1.830   7.162   2.546
13995WAT     H142227   1.867   7.145   2.638
13995WAT     H242228   1.732   7.142   2.546
13996WAT      O42229   5.687   4.484   0.875
13996WAT     H142230   5.711   4.409   0.937
13996WAT     H242231   5.621   4.544   0.920
13997WAT      O42232   2.144   8.650   9.129
13997WAT     H142233   2.149   8.567   9.075
13997WAT     H242234   2.097   8.721   9.077
13998WAT      O42235   2.181   1.231   9.740
13998WAT     H142236   2.276   1.246   9.767
13998WAT     H242237   2.175   1.224   9.641
13999WAT      O42238   0.898   8.031   9.551
13999WAT     H142239   0.969   8.001   9.616
13999WAT     H242240   0.899   8.131   9.545
14000WAT      O42241   0.452   8.952   4.019
14000WAT     H142242   0.479   8.882   4.085
14000WAT     H242243   0.356   8.976   4.033
14001WAT      O42244   6.837   2.279   8.396
14001WAT     H142245   6.739   2.293   8.388
14001WAT     H242246   6.882   2.368   8.410
14002WAT      O42247   1.065   9.702   7.273
14002WAT     H142248   0.986   9.670   7.221
14002WAT     H242249   1.034   9.743   7.359
14003WAT      O42250   7.863   1.679   7.563
14003WAT     H142251   7.841   1.743   7.489
14003WAT     H242252   7.940   1.621   7.535
14004WAT      O42253   3.978   4.719   9.270
14004WAT     H142254   3.967   4.776   9.189
14004WAT     H242255   3.899   4.658   9.279
14005WAT      O42256   6.868   1.747   2.117
14005WAT     H142257   6.805   1.693   2.173
14005WAT     H242258   6.954   1.698   2.105
14006WAT      O42259   8.128   2.511   4.092
14006WAT     H142260   8.120   2.609   4.108
14006WAT     H242261   8.191   2.494   4.017
14007WAT      O42262   5.845   8.262   1.141
14007WAT     H142263   5.752   8.293   1.121
14007WAT     H242264   5.843   8.164   1.163
14008WAT      O42265   5.541   3.259   4.694
14008WAT     H142266   5.448   3.288   4.671
14008WAT     H242267   5.582   3.325   4.758
14009WAT      O42268   5.540   6.683   6.078
14009WAT     H142269   5.590   6.744   6.016
14009WAT     H242270   5.601   6.609   6.108
14010WAT      O42271   7.163   1.444   1.900
14010WAT     H142272   7.094   1.371   1.903
14010WAT     H242273   7.179   1.471   1.806
14011WAT      O42274   1.628   6.432   2.119
14011WAT     H142275   1.549   6.489   2.142
14011WAT     H242276   1.618   6.398   2.026
14012WAT      O42277   1.780   0.422   1.894
14012WAT     H142278   1.701   0.452   1.946
14012WAT     H242279   1.752   0.397   1.801
14013WAT      O42280   2.770   3.780   0.056
14013WAT     H142281   2.740   3.778   0.152
14013WAT     H242282   2.803   3.872   0.033
14014WAT      O42283   6.148   3.299   2.980
14014WAT     H142284   6.102   3.373   3.029
14014WAT     H242285   6.097   3.214   2.991
14015WAT      O42286   1.909   6.912   1.033
14015WAT     H142287   1.972   6.898   0.957
14015WAT     H242288   1.937   6.992   1.086
14016WAT      O42289   2.691   1.284   7.102
14016WAT     H142290   2.604   1.303   7.056
14016WAT     H242291   2.720   1.364   7.153
14017WAT      O42292   4.939   1.542   2.755
14017WAT     H142293   5.007   1.480   2.793
14017WAT     H242294   4.977   1.635   2.750
14018WAT      O42295   4.405   0.201   7.405
14018WAT     H142296   4.368   0.268   7.340
14018WAT     H242297   4.332   0.142   7.438
14019WAT      O42298   7.408   7.187   8.586
14019WAT     H142299   7.369   7.264   8.535
14019WAT     H242300   7.464   7.222   8.661
14020WAT      O42301   0.740   6.231   4.174
14020WAT     H142302   0.733   6.330   4.178
14020WAT     H242303   0.814   6.205   4.111
14021WAT      O42304   2.464   9.631   8.735
14021WAT     H142305   2.548   9.612   8.786
14021WAT     H242306   2.391   9.655   8.800
14022WAT      O42307   4.961   5.498   7.133
14022WAT     H142308   4.967   5.399   7.146
14022WAT     H242309   4.998   5.544   7.214
14023WAT      O42310   3.048   8.389   0.701
14023WAT     H142311   2.973   8.418   0.642
14023WAT     H242312   3.015   8.325   0.770
14024WAT      O42313   1.261   1.959   1.312
14024WAT     H142314   1.163   1.977   1.317
14024WAT     H242315   1.279   1.866   1.344
14025WAT      O42316   4.448   2.745   4.103
14025WAT     H142317   4.418   2.741   4.008
14025WAT     H242318   4.544   2.774   4.106
14026WAT      O42319   7.872   1.314   2.927
14026WAT     H142320   7.895   1.309   2.830
14026WAT     H242321   7.841   1.224   2.959
14027WAT      O42322   3.115   6.044   8.237
14027WAT     H142323   3.101   5.954   8.277
14027WAT     H242324   3.131   6.035   8.139
14028WAT      O42325   9.486   3.698   3.223
14028WAT     H142326   9.517   3.768   3.159
14028WAT     H242327   9.442   3.741   3.302
14029WAT      O42328   6.076   3.718   8.386
14029WAT     H142329   6.090   3.797   8.446
14029WAT     H242330   6.156   3.659   8.389
14030WAT      O42331   8.126   0.242   3.634
14030WAT     H142332   8.167   0.151   3.631
14030WAT     H242333   8.093   0.267   3.543
14031WAT      O42334   2.341   6.952   7.964
14031WAT     H142335   2.261   6.948   8.024
14031WAT     H242336   2.377   7.045   7.962
14032WAT      O42337   5.289   5.297   6.162
14032WAT     H142338   5.298   5.197   6.164
14032WAT     H242339   5.294   5.332   6.256
14033WAT      O42340   8.502   8.456   0.719
14033WAT     H142341   8.417   8.450   0.772
14033WAT     H242342   8.549   8.542   0.740
14034WAT      O42343   6.333   3.380   7.980
14034WAT     H142344   6.333   3.281   7.997
14034WAT     H242345   6.428   3.412   7.971
14035WAT      O42346   6.927   4.938   6.549
14035WAT     H142347   6.976   4.863   6.504
14035WAT     H242348   6.854   4.901   6.606
14036WAT      O42349   3.699   8.522   4.811
14036WAT     H142350   3.764   8.581   4.860
14036WAT     H242351   3.749   8.451   4.762
14037WAT      O42352   9.508   8.773   6.448
14037WAT     H142353   9.603   8.780   6.480
14037WAT     H242354   9.505   8.800   6.351
14038WAT      O42355   0.546   2.270   9.593
14038WAT     H142356   0.632   2.312   9.622
14038WAT     H242357   0.533   2.184   9.642
14039WAT      O42358   6.776   7.796   4.913
14039WAT     H142359   6.724   7.877   4.937
14039WAT     H242360   6.731   7.748   4.838
14040WAT      O42361   1.109   7.019   3.234
14040WAT     H142362   1.044   7.085   3.196
14040WAT     H242363   1.187   7.012   3.172
14041WAT      O42364   4.308   5.928   3.910
14041WAT     H142365   4.306   5.909   4.008
14041WAT     H242366   4.395   5.896   3.872
14042WAT      O42367   9.548   5.908   0.534
14042WAT     H142368   9.636   5.945   0.506
14042WAT     H242369   9.543   5.811   0.510
14043WAT      O42370   2.501   1.612   0.885
14043WAT     H142371   2.539   1.704   0.878
14043WAT     H242372   2.403   1.616   0.865
14044WAT      O42373   4.934   7.428   5.326
14044WAT     H142374   4.990   7.346   5.339
14044WAT     H242375   4.927   7.449   5.229
14045WAT      O42376   4.106   7.300   7.127
14045WAT     H142377   4.133   7.337   7.216
14045WAT     H242378   4.182   7.246   7.090
14046WAT      O42379   7.802   8.591   3.661
14046WAT     H142380   7.783   8.688   3.675
14046WAT     H242381   7.880   8.564   3.719
14047WAT      O42382   4.858   2.031   0.699
14047WAT     H142383   4.839   2.127   0.722
14047WAT     H242384   4.775   1.988   0.664
14048WAT      O42385   2.578   7.848   3.712
14048WAT     H142386   2.672   7.865   3.683
14048WAT     H242387   2.551   7.755   3.686
14049WAT      O42388   0.277   4.691   9.144
14049WAT     H142389   0.273   4.661   9.049
14049WAT     H242390   0.192   4.665   9.190
14050WAT      O42391   7.119   4.181   0.373
14050WAT     H142392   7.168   4.109   0.322
14050WAT     H242393   7.091   4.146   0.462
14051WAT      O42394   4.204   8.599   9.591
14051WAT     H142395   4.185   8.679   9.534
14051WAT     H242396   4.213   8.518   9.534
14052WAT      O42397   1.576   8.141   1.741
14052WAT     H142398   1.642   8.149   1.816
14052WAT     H242399   1.607   8.069   1.678
14053WAT      O42400   5.359   8.424   7.018
14053WAT     H142401   5.425   8.447   6.947
14053WAT     H242402   5.310   8.341   6.991
14054WAT      O42403   9.251   9.413   5.778
14054WAT     H142404   9.226   9.364   5.695
14054WAT     H242405   9.270   9.509   5.757
14055WAT      O42406   5.438   7.954   6.489
14055WAT     H142407   5.535   7.969   6.469
14055WAT     H242408   5.402   8.032   6.540
14056WAT      O42409   5.922   2.774   6.249
14056WAT     H142410   5.977   2.817   6.321
14056WAT     H242411   5.833   2.819   6.245
14057WAT      O42412   8.064   9.709   0.710
14057WAT     H142413   8.014   9.639   0.658
14057WAT     H242414   8.151   9.728   0.664
14058WAT      O42415   6.946   2.694   8.240
14058WAT     H142416   7.039   2.719   8.215
14058WAT     H242417   6.948   2.627   8.315
14059WAT      O42418   0.735   3.190   0.595
14059WAT     H142419   0.652   3.144   0.561
14059WAT     H242420   0.718   3.288   0.604
14060WAT      O42421   0.608   0.279   0.405
14060WAT     H142422   0.550   0.280   0.323
14060WAT     H242423   0.553   0.301   0.485
14061WAT      O42424   8.338   5.723   7.451
14061WAT     H142425   8.305   5.633   7.422
14061WAT     H242426   8.272   5.793   7.423
14062WAT      O42427   1.765   6.237   7.738
14062WAT     H142428   1.803   6.193   7.819
14062WAT     H242429   1.790   6.334   7.738
14063WAT      O42430   8.280   5.002   4.210
14063WAT     H142431   8.318   4.994   4.302
14063WAT     H242432   8.278   4.911   4.167
14064WAT      O42433   1.970   7.417   1.310
14064WAT     H142434   1.893   7.403   1.372
14064WAT     H242435   2.037   7.479   1.352
14065WAT      O42436   3.958   7.017   0.593
14065WAT     H142437   3.971   6.924   0.559
14065WAT     H242438   3.886   7.018   0.662
14066WAT      O42439   6.159   8.167   3.687
14066WAT     H142440   6.248   8.122   3.692
14066WAT     H242441   6.107   8.149   3.771
14067WAT      O42442   5.111   2.318   1.244
14067WAT     H142443   5.047   2.301   1.319
14067WAT     H242444   5.080   2.270   1.162
14068WAT      O42445   5.433   1.928   9.875
14068WAT     H142446   5.396   1.939   9.783
14068WAT     H242447   5.513   1.868   9.872
14069WAT      O42448   2.778   4.373   0.526
14069WAT     H142449   2.796   4.315   0.447
14069WAT     H242450   2.724   4.453   0.498
14070WAT      O42451   8.632   1.228   9.340
14070WAT     H142452   8.630   1.328   9.334
14070WAT     H242453   8.621   1.189   9.249
14071WAT      O42454   3.257   1.226   6.073
14071WAT     H142455   3.348   1.255   6.101
14071WAT     H242456   3.224   1.285   6.000
14072WAT      O42457   5.528   4.855   6.236
14072WAT     H142458   5.534   4.907   6.151
14072WAT     H242459   5.619   4.822   6.261
14073WAT      O42460   2.360   7.685   7.163
14073WAT     H142461   2.375   7.761   7.227
14073WAT     H242462   2.299   7.715   7.089
14074WAT      O42463   8.013   8.675   5.135
14074WAT     H142464   7.980   8.588   5.174
14074WAT     H242465   8.112   8.669   5.122
14075WAT      O42466   5.544   6.122   5.810
14075WAT     H142467   5.465   6.130   5.871
14075WAT     H242468   5.545   6.031   5.770
14076WAT      O42469   4.266   0.216   6.800
14076WAT     H142470   4.364   0.230   6.788
14076WAT     H242471   4.227   0.293   6.850
14077WAT      O42472   2.434   8.178   6.610
14077WAT     H142473   2.433   8.187   6.511
14077WAT     H242474   2.446   8.269   6.651
14078WAT      O42475   0.614   3.369   6.743
14078WAT     H142476   0.600   3.454   6.795
14078WAT     H242477   0.525   3.332   6.716
14079WAT      O42478   4.157   1.845   6.451
14079WAT     H142479   4.237   1.820   6.397
14079WAT     H242480   4.181   1.841   6.548
14080WAT      O42481   6.559   4.089   8.216
14080WAT     H142482   6.659   4.086   8.214
14080WAT     H242483   6.524   4.078   8.123
14081WAT      O42484   6.365   0.652   2.586
14081WAT     H142485   6.365   0.671   2.488
14081WAT     H242486   6.301   0.579   2.606
14082WAT      O42487   9.746   0.067   5.674
14082WAT     H142488   9.828   0.024   5.712
14082WAT     H242489   9.746   0.164   5.695
14083WAT      O42490   0.723   4.240   7.258
14083WAT     H142491   0.737   4.204   7.351
14083WAT     H242492   0.641   4.199   7.218
14084WAT      O42493   1.758   3.082   3.895
14084WAT     H142494   1.798   2.994   3.922
14084WAT     H242495   1.699   3.116   3.968
14085WAT      O42496   8.701   8.563   6.008
14085WAT     H142497   8.733   8.508   6.086
14085WAT     H242498   8.722   8.659   6.025
14086WAT      O42499   9.004   4.351   3.798
14086WAT     H142500   8.986   4.280   3.866
14086WAT     H242501   8.981   4.441   3.837
14087WAT      O42502   2.535   8.730   4.893
14087WAT     H142503   2.478   8.740   4.811
14087WAT     H242504   2.573   8.638   4.897
14088WAT      O42505   7.314   9.795   5.341
14088WAT     H142506   7.276   9.831   5.256
14088WAT     H242507   7.356   9.706   5.324
14089WAT      O42508   8.563   0.665   6.921
14089WAT     H142509   8.622   0.646   6.999
14089WAT     H242510   8.596   0.747   6.873
14090WAT      O42511   9.397   9.163   6.759
14090WAT     H142512   9.397   9.197   6.854
14090WAT     H242513   9.482   9.113   6.743
14091WAT      O42514   9.531   8.300   6.287
14091WAT     H142515   9.565   8.216   6.329
14091WAT     H242516   9.578   8.379   6.326
14092WAT      O42517   1.469   2.810   9.215
14092WAT     H142518   1.462   2.854   9.305
14092WAT     H242519   1.377   2.787   9.182
14093WAT      O42520   5.095   1.590   6.982
14093WAT     H142521   5.096   1.688   6.998
14093WAT     H242522   5.123   1.542   7.065
14094WAT      O42523   6.678   4.921   0.152
14094WAT     H142524   6.684   5.020   0.165
14094WAT     H242525   6.626   4.881   0.228
14095WAT      O42526   7.130   5.902   0.440
14095WAT     H142527   7.083   5.955   0.370
14095WAT     H242528   7.202   5.958   0.482
14096WAT      O42529   2.564   2.516   6.610
14096WAT     H142530   2.466   2.512   6.589
14096WAT     H242531   2.595   2.611   6.603
14097WAT      O42532   2.718   3.962   8.248
14097WAT     H142533   2.685   3.984   8.156
14097WAT     H242534   2.754   4.046   8.291
14098WAT      O42535   3.942   2.548   7.585
14098WAT     H142536   3.963   2.474   7.521
14098WAT     H242537   3.844   2.568   7.583
14099WAT      O42538   9.043   6.010   0.453
14099WAT     H142539   8.995   5.926   0.427
14099WAT     H242540   9.084   5.998   0.544
14100WAT      O42541   1.587   8.703   4.495
14100WAT     H142542   1.489   8.710   4.514
14100WAT     H242543   1.639   8.737   4.573
14101WAT      O42544   0.653   5.313   0.175
14101WAT     H142545   0.736   5.308   0.230
14101WAT     H242546   0.622   5.408   0.169
14102WAT      O42547   9.302   4.316   9.865
14102WAT     H142548   9.347   4.228   9.877
14102WAT     H242549   9.208   4.301   9.835
14103WAT      O42550   9.187   9.470   9.564
14103WAT     H142551   9.246   9.550   9.551
14103WAT     H242552   9.243   9.389   9.577
14104WAT      O42553   5.957   1.284   7.515
14104WAT     H142554   5.886   1.353   7.531
14104WAT     H242555   6.047   1.328   7.519
14105WAT      O42556   4.458   9.164   8.190
14105WAT     H142557   4.384   9.231   8.188
14105WAT     H242558   4.539   9.205   8.233
14106WAT      O42559   1.430   7.969   7.039
14106WAT     H142560   1.362   8.019   7.092
14106WAT     H242561   1.471   7.898   7.096
14107WAT      O42562   2.812   2.089   6.224
14107WAT     H142563   2.721   2.047   6.234
14107WAT     H242564   2.877   2.041   6.283
14108WAT      O42565   5.176   6.166   4.650
14108WAT     H142566   5.215   6.211   4.570
14108WAT     H242567   5.149   6.072   4.626
14109WAT      O42568   3.691   7.695   0.596
14109WAT     H142569   3.734   7.784   0.582
14109WAT     H242570   3.632   7.699   0.677
14110WAT      O42571   2.063   2.673   3.780
14110WAT     H142572   2.122   2.744   3.819
14110WAT     H242573   2.116   2.589   3.766
14111WAT      O42574   4.703   9.047   3.832
14111WAT     H142575   4.737   9.141   3.829
14111WAT     H242576   4.611   9.046   3.872
14112WAT      O42577   8.041   7.620   1.683
14112WAT     H142578   8.104   7.691   1.714
14112WAT     H242579   7.950   7.659   1.671
14113WAT      O42580   5.545   2.249   4.487
14113WAT     H142581   5.625   2.210   4.533
14113WAT     H242582   5.491   2.176   4.446
14114WAT      O42583   6.768   7.571   1.281
14114WAT     H142584   6.858   7.565   1.325
14114WAT     H242585   6.723   7.481   1.286
14115WAT      O42586   5.362   5.335   1.154
14115WAT     H142587   5.447   5.309   1.108
14115WAT     H242588   5.382   5.399   1.228
14116WAT      O42589   2.734   3.398   8.176
14116WAT     H142590   2.794   3.428   8.102
14116WAT     H242591   2.734   3.466   8.249
14117WAT      O42592   4.150   6.337   3.175
14117WAT     H142593   4.187   6.312   3.265
14117WAT     H242594   4.196   6.419   3.142
14118WAT      O42595   8.984   5.448   5.964
14118WAT     H142596   8.904   5.419   5.911
14118WAT     H242597   8.998   5.546   5.953
14119WAT      O42598   1.115   0.622   8.783
14119WAT     H142599   1.105   0.536   8.733
14119WAT     H242600   1.183   0.679   8.738
14120WAT      O42601   4.280   5.851   5.697
14120WAT     H142602   4.238   5.887   5.614
14120WAT     H242603   4.235   5.766   5.723
14121WAT      O42604   0.068   5.633   4.516
14121WAT     H142605   0.149   5.624   4.574
14121WAT     H242606  -0.011   5.655   4.572
14122WAT      O42607   8.679   0.967   8.297
14122WAT     H142608   8.713   0.880   8.333
14122WAT     H242609   8.651   1.025   8.374
14123WAT      O42610   1.179   9.807   4.242
14123WAT     H142611   1.231   9.793   4.326
14123WAT     H242612   1.101   9.745   4.241
14124WAT      O42613   0.935   7.946   8.603
14124WAT     H142614   1.007   7.881   8.624
14124WAT     H242615   0.924   8.010   8.679
14125WAT      O42616   1.196   3.792   8.071
14125WAT     H142617   1.207   3.860   8.144
14125WAT     H242618   1.202   3.700   8.111
14126WAT      O42619   0.172   0.469   3.988
14126WAT     H142620   0.242   0.523   4.034
14126WAT     H242621   0.102   0.443   4.054
14127WAT      O42622   2.670   7.655   5.386
14127WAT     H142623   2.758   7.613   5.408
14127WAT     H242624   2.597   7.588   5.399
14128WAT      O42625   7.489   3.992   6.017
14128WAT     H142626   7.439   4.073   6.049
14128WAT     H242627   7.535   3.949   6.095
14129WAT      O42628   6.289   1.774   0.536
14129WAT     H142629   6.323   1.750   0.627
14129WAT     H242630   6.224   1.705   0.506
14130WAT      O42631   3.581   8.579   2.669
14130WAT     H142632   3.611   8.574   2.574
14130WAT     H242633   3.483   8.562   2.674
14131WAT      O42634   3.975   3.365   2.481
14131WAT     H142635   3.932   3.386   2.569
14131WAT     H242636   3.953   3.272   2.454
14132WAT      O42637   3.143   8.455   3.658
14132WAT     H142638   3.096   8.491   3.577
14132WAT     H242639   3.177   8.531   3.713
14133WAT      O42640   2.597   4.076   3.964
14133WAT     H142641   2.591   3.979   3.941
14133WAT     H242642   2.677   4.116   3.920
14134WAT      O42643   8.129   3.093   1.629
14134WAT     H142644   8.188   3.132   1.700
14134WAT     H242645   8.183   3.077   1.546
14135WAT      O42646   2.807   2.518   0.089
14135WAT     H142647   2.876   2.499   0.159
14135WAT     H242648   2.785   2.434   0.040
14136WAT      O42649   4.021   4.676   3.134
14136WAT     H142650   4.032   4.578   3.151
14136WAT     H242651   3.936   4.708   3.178
14137WAT      O42652   0.028   3.300   5.668
14137WAT     H142653  -0.067   3.270   5.660
14137WAT     H242654   0.080   3.233   5.722
14138WAT      O42655   9.321   7.963   3.374
14138WAT     H142656   9.367   8.049   3.349
14138WAT     H242657   9.286   7.970   3.467
14139WAT      O42658   1.154   0.786   3.528
14139WAT     H142659   1.117   0.877   3.509
14139WAT     H242660   1.092   0.716   3.491
14140WAT      O42661   5.839   7.621   0.602
14140WAT     H142662   5.864   7.527   0.622
14140WAT     H242663   5.753   7.643   0.649
14141WAT      O42664   9.158   5.647   3.742
14141WAT     H142665   9.136   5.731   3.792
14141WAT     H242666   9.140   5.568   3.801
14142WAT      O42667   8.549   2.079   2.878
14142WAT     H142668   8.470   2.133   2.905
14142WAT     H242669   8.633   2.122   2.911
14143WAT      O42670   4.343   4.299   3.760
14143WAT     H142671   4.410   4.236   3.721
14143WAT     H242672   4.304   4.258   3.843
14144WAT      O42673   1.080   7.093   4.831
14144WAT     H142674   1.098   6.995   4.820
14144WAT     H242675   1.161   7.145   4.803
14145WAT      O42676   6.218   6.753   9.238
14145WAT     H142677   6.131   6.716   9.270
14145WAT     H242678   6.258   6.689   9.172
14146WAT      O42679   9.285   1.863   7.300
14146WAT     H142680   9.366   1.921   7.308
14146WAT     H242681   9.236   1.863   7.387
14147WAT      O42682   6.791   9.257   6.199
14147WAT     H142683   6.714   9.194   6.196
14147WAT     H242684   6.764   9.342   6.245
14148WAT      O42685   3.488   9.433   5.614
14148WAT     H142686   3.554   9.491   5.566
14148WAT     H242687   3.395   9.457   5.585
14149WAT      O42688   7.957   8.328   2.990
14149WAT     H142689   7.999   8.258   3.046
14149WAT     H242690   7.903   8.390   3.048
14150WAT      O42691   0.259   3.147   1.473
14150WAT     H142692   0.335   3.121   1.533
14150WAT     H242693   0.184   3.183   1.529
14151WAT      O42694   0.170   2.607   6.832
14151WAT     H142695   0.184   2.688   6.888
14151WAT     H242696   0.099   2.626   6.763
14152WAT      O42697   2.577   6.449   1.728
14152WAT     H142698   2.600   6.448   1.825
14152WAT     H242699   2.485   6.485   1.715
14153WAT      O42700   4.880   7.993   4.086
14153WAT     H142701   4.959   8.026   4.138
14153WAT     H242702   4.832   7.923   4.140
14154WAT      O42703   3.227   2.810   8.841
14154WAT     H142704   3.229   2.901   8.800
14154WAT     H242705   3.202   2.743   8.771
14155WAT      O42706   6.473   2.879   1.498
14155WAT     H142707   6.389   2.923   1.529
14155WAT     H242708   6.484   2.790   1.542
14156WAT      O42709   7.922   3.468   3.882
14156WAT     H142710   7.929   3.541   3.950
14156WAT     H242711   7.853   3.402   3.912
14157WAT      O42712   7.253   6.048   2.490
14157WAT     H142713   7.324   6.001   2.437
14157WAT     H242714   7.288   6.136   2.521
14158WAT      O42715   1.556   8.616   6.170
14158WAT     H142716   1.481   8.592   6.109
14158WAT     H242717   1.642   8.585   6.131
14159WAT      O42718   8.294   9.258   5.428
14159WAT     H142719   8.288   9.184   5.495
14159WAT     H242720   8.246   9.339   5.463
14160WAT      O42721   4.968   7.070   3.833
14160WAT     H142722   5.036   7.142   3.821
14160WAT     H242723   4.953   7.023   3.746
14161WAT      O42724   5.549   7.408   7.594
14161WAT     H142725   5.598   7.321   7.586
14161WAT     H242726   5.616   7.483   7.602
14162WAT      O42727   7.643   6.742   4.511
14162WAT     H142728   7.614   6.774   4.601
14162WAT     H242729   7.673   6.819   4.456
14163WAT      O42730   3.881   9.505   5.711
14163WAT     H142731   3.949   9.523   5.782
14163WAT     H242732   3.801   9.460   5.751
14164WAT      O42733   7.567   5.198   2.597
14164WAT     H142734   7.664   5.173   2.605
14164WAT     H242735   7.560   5.297   2.589
14165WAT      O42736   4.729   8.349   6.482
14165WAT     H142737   4.802   8.288   6.514
14165WAT     H242738   4.703   8.325   6.389
14166WAT      O42739   1.695   4.457   2.671
14166WAT     H142740   1.732   4.367   2.649
14166WAT     H242741   1.664   4.502   2.588
14167WAT      O42742   9.219   5.312   7.160
14167WAT     H142743   9.295   5.356   7.206
14167WAT     H242744   9.198   5.361   7.075
14168WAT      O42745   6.257   0.956   2.479
14168WAT     H142746   6.199   0.896   2.534
14168WAT     H242747   6.247   0.933   2.382
14169WAT      O42748   8.906   7.862   1.247
14169WAT     H142749   8.893   7.913   1.332
14169WAT     H242750   8.820   7.859   1.196
14170WAT      O42751   7.246   9.320   8.840
14170WAT     H142752   7.259   9.407   8.793
14170WAT     H242753   7.326   9.261   8.823
14171WAT      O42754   1.297   9.783   4.813
14171WAT     H142755   1.365   9.834   4.760
14171WAT     H242756   1.248   9.845   4.874
14172WAT      O42757   3.152   7.406   8.204
14172WAT     H142758   3.072   7.394   8.263
14172WAT     H242759   3.132   7.368   8.113
14173WAT      O42760   7.349   6.958   7.464
14173WAT     H142761   7.263   6.910   7.452
14173WAT     H242762   7.420   6.915   7.409
14174WAT      O42763   0.746   5.444   0.616
14174WAT     H142764   0.762   5.463   0.713
14174WAT     H242765   0.814   5.492   0.561
14175WAT      O42766   9.427   0.581   3.835
14175WAT     H142767   9.411   0.556   3.739
14175WAT     H242768   9.525   0.596   3.850
14176WAT      O42769   2.346   2.998   6.211
14176WAT     H142770   2.371   2.950   6.127
14176WAT     H242771   2.338   2.932   6.286
14177WAT      O42772   0.750   1.102   3.019
14177WAT     H142773   0.769   1.129   3.114
14177WAT     H242774   0.835   1.079   2.973
14178WAT      O42775   4.128   3.885   4.067
14178WAT     H142776   4.195   3.933   4.124
14178WAT     H242777   4.127   3.788   4.091
14179WAT      O42778   3.161   8.453   4.140
14179WAT     H142779   3.132   8.548   4.134
14179WAT     H242780   3.260   8.448   4.144
14180WAT      O42781   2.389   0.643   7.971
14180WAT     H142782   2.290   0.649   7.982
14180WAT     H242783   2.429   0.605   8.054
14181WAT      O42784   2.503   6.904   8.817
14181WAT     H142785   2.526   6.976   8.883
14181WAT     H242786   2.523   6.815   8.858
14182WAT      O42787   1.463   9.418   0.975
14182WAT     H142788   1.530   9.344   0.982
14182WAT     H242789   1.497   9.498   1.026
14183WAT      O42790   0.752   7.820   4.234
14183WAT     H142791   0.706   7.883   4.296
14183WAT     H242792   0.712   7.828   4.143
14184WAT      O42793   0.792   8.238   6.623
14184WAT     H142794   0.873   8.282   6.663
14184WAT     H242795   0.714   8.252   6.684
14185WAT      O42796   1.469   1.976   8.205
14185WAT     H142797   1.371   1.991   8.214
14185WAT     H242798   1.488   1.878   8.204
14186WAT      O42799   5.716   8.129   4.016
14186WAT     H142800   5.743   8.124   4.112
14186WAT     H242801   5.793   8.100   3.959
14187WAT      O42802   8.620   2.877   3.271
14187WAT     H142803   8.524   2.861   3.293
14187WAT     H242804   8.635   2.974   3.251
14188WAT      O42805   5.484   2.955   3.312
14188WAT     H142806   5.496   2.861   3.343
14188WAT     H242807   5.460   3.013   3.390
14189WAT      O42808   4.359   0.474   3.646
14189WAT     H142809   4.299   0.542   3.604
14189WAT     H242810   4.307   0.392   3.669
14190WAT      O42811   3.183   1.483   8.262
14190WAT     H142812   3.245   1.509   8.336
14190WAT     H242813   3.228   1.501   8.174
14191WAT      O42814   3.099   2.107   7.293
14191WAT     H142815   3.146   2.092   7.380
14191WAT     H242816   3.150   2.173   7.239
14192WAT      O42817   7.886   8.240   2.181
14192WAT     H142818   7.909   8.333   2.155
14192WAT     H242819   7.788   8.231   2.194
14193WAT      O42820   8.264   6.907   2.778
14193WAT     H142821   8.197   6.846   2.820
14193WAT     H242822   8.269   6.889   2.680
14194WAT      O42823   6.716   9.201   2.907
14194WAT     H142824   6.762   9.138   2.970
14194WAT     H242825   6.634   9.237   2.950
14195WAT      O42826   9.577   2.305   4.404
14195WAT     H142827   9.516   2.381   4.384
14195WAT     H242828   9.526   2.233   4.452
14196WAT      O42829   5.649   0.632   9.770
14196WAT     H142830   5.553   0.660   9.762
14196WAT     H242831   5.682   0.598   9.682
14197WAT      O42832   6.840   1.212   2.706
14197WAT     H142833   6.899   1.211   2.786
14197WAT     H242834   6.772   1.139   2.713
14198WAT      O42835   7.255   3.222   8.798
14198WAT     H142836   7.227   3.315   8.821
14198WAT     H242837   7.309   3.185   8.874
14199WAT      O42838   2.082   1.705   9.242
14199WAT     H142839   2.028   1.737   9.320
14199WAT     H242840   2.153   1.773   9.221
14200WAT      O42841   7.426   8.402   8.364
14200WAT     H142842   7.488   8.323   8.358
14200WAT     H242843   7.472   8.483   8.327
14201WAT      O42844   0.713   2.727   7.733
14201WAT     H142845   0.677   2.813   7.769
14201WAT     H242846   0.678   2.713   7.640
14202WAT      O42847   0.558   4.813   6.289
14202WAT     H142848   0.601   4.810   6.199
14202WAT     H242849   0.550   4.908   6.319
14203WAT      O42850   7.056   9.280   7.690
14203WAT     H142851   7.093   9.322   7.773
14203WAT     H242852   7.122   9.288   7.615
14204WAT      O42853   4.070   1.478   6.067
14204WAT     H142854   4.017   1.553   6.029
14204WAT     H242855   4.036   1.391   6.030
14205WAT      O42856   7.910   8.621   2.710
14205WAT     H142857   7.975   8.546   2.720
14205WAT     H242858   7.819   8.584   2.692
14206WAT      O42859   1.706   8.120   7.226
14206WAT     H142860   1.649   8.077   7.296
14206WAT     H242861   1.780   8.058   7.201
14207WAT      O42862   1.381   7.137   1.217
14207WAT     H142863   1.445   7.087   1.275
14207WAT     H242864   1.423   7.221   1.185
14208WAT      O42865   8.490   4.166   1.545
14208WAT     H142866   8.486   4.071   1.576
14208WAT     H242867   8.572   4.179   1.490
14209WAT      O42868   1.172   8.445   4.316
14209WAT     H142869   1.206   8.537   4.336
14209WAT     H242870   1.132   8.405   4.398
14210WAT      O42871   1.725   3.541   7.459
14210WAT     H142872   1.774   3.620   7.423
14210WAT     H242873   1.667   3.503   7.387
14211WAT      O42874   6.533   1.311   5.836
14211WAT     H142875   6.444   1.333   5.876
14211WAT     H242876   6.598   1.287   5.908
14212WAT      O42877   7.557   7.015   0.421
14212WAT     H142878   7.552   7.084   0.493
14212WAT     H242879   7.652   6.993   0.402
14213WAT      O42880   8.821   5.845   1.027
14213WAT     H142881   8.766   5.845   0.944
14213WAT     H242882   8.858   5.937   1.042
14214WAT      O42883   4.475   2.957   4.964
14214WAT     H142884   4.515   3.025   4.903
14214WAT     H242885   4.415   3.002   5.030
14215WAT      O42886   5.208   7.330   9.759
14215WAT     H142887   5.113   7.337   9.730
14215WAT     H242888   5.239   7.418   9.794
14216WAT      O42889   4.898   0.927   8.991
14216WAT     H142890   4.964   0.901   8.921
14216WAT     H242891   4.930   1.008   9.040
14217WAT      O42892   8.493   2.399   4.759
14217WAT     H142893   8.440   2.318   4.784
14217WAT     H242894   8.479   2.470   4.828
14218WAT      O42895   7.936   4.123   8.083
14218WAT     H142896   7.921   4.218   8.055
14218WAT     H242897   7.950   4.066   8.002
14219WAT      O42898   8.208   9.530   2.422
14219WAT     H142899   8.203   9.476   2.339
14219WAT     H242900   8.303   9.560   2.437
14220WAT      O42901   7.941   4.535   9.153
14220WAT     H142902   8.002   4.608   9.122
14220WAT     H242903   7.855   4.576   9.186
14221WAT      O42904   0.497   3.705   9.051
14221WAT     H142905   0.467   3.733   8.960
14221WAT     H242906   0.417   3.687   9.109
14222WAT      O42907   5.472   4.693   7.373
14222WAT     H142908   5.375   4.718   7.381
14222WAT     H242909   5.502   4.651   7.459
14223WAT      O42910   9.688   9.232   4.581
14223WAT     H142911   9.788   9.230   4.574
14223WAT     H242912   9.660   9.205   4.673
14224WAT      O42913   8.999   9.339   8.440
14224WAT     H142914   8.968   9.261   8.495
14224WAT     H242915   9.090   9.367   8.471
14225WAT      O42916   7.119   6.096   1.670
14225WAT     H142917   7.197   6.066   1.724
14225WAT     H242918   7.081   6.018   1.620
14226WAT      O42919   9.675   4.384   7.523
14226WAT     H142920   9.739   4.323   7.569
14226WAT     H242921   9.591   4.334   7.500
14227WAT      O42922   6.157   5.835   0.163
14227WAT     H142923   6.239   5.852   0.219
14227WAT     H242924   6.184   5.824   0.067
14228WAT      O42925   2.757   6.251   2.152
14228WAT     H142926   2.773   6.255   2.250
14228WAT     H242927   2.775   6.341   2.112
14229WAT      O42928   6.951   2.107   7.548
14229WAT     H142929   6.983   2.048   7.474
14229WAT     H242930   6.992   2.078   7.634
14230WAT      O42931   1.393   4.136   9.004
14230WAT     H142932   1.388   4.076   9.084
14230WAT     H242933   1.468   4.201   9.016
14231WAT      O42934   3.157   2.423   5.334
14231WAT     H142935   3.142   2.325   5.345
14231WAT     H242936   3.254   2.444   5.349
14232WAT      O42937   1.151   9.015   5.677
14232WAT     H142938   1.136   9.109   5.644
14232WAT     H242939   1.245   9.005   5.708
14233WAT      O42940   1.158   9.019   7.631
14233WAT     H142941   1.065   9.036   7.662
14233WAT     H242942   1.222   9.034   7.707
14234WAT      O42943   2.152   4.421   5.306
14234WAT     H142944   2.076   4.469   5.349
14234WAT     H242945   2.117   4.349   5.246
14235WAT      O42946   0.305   0.015   8.956
14235WAT     H142947   0.237   0.086   8.938
14235WAT     H242948   0.368   0.048   9.026
14236WAT      O42949   5.087   3.552   9.279
14236WAT     H142950   5.033   3.468   9.269
14236WAT     H242951   5.149   3.561   9.200
14237WAT      O42952   1.341   0.383   7.685
14237WAT     H142953   1.321   0.346   7.775
14237WAT     H242954   1.351   0.308   7.620
14238WAT      O42955   4.820   5.387   6.722
14238WAT     H142956   4.822   5.420   6.628
14238WAT     H242957   4.819   5.287   6.722
14239WAT      O42958   6.389   8.344   4.449
14239WAT     H142959   6.416   8.426   4.400
14239WAT     H242960   6.458   8.323   4.519
14240WAT      O42961   1.683   7.714   6.752
14240WAT     H142962   1.760   7.759   6.799
14240WAT     H242963   1.645   7.776   6.684
14241WAT      O42964   9.570   5.934   6.715
14241WAT     H142965   9.528   5.844   6.712
14241WAT     H242966   9.505   6.001   6.753
14242WAT      O42967   0.453   0.579   8.954
14242WAT     H142968   0.518   0.539   8.888
14242WAT     H242969   0.401   0.652   8.910
14243WAT      O42970   8.102   5.886   5.354
14243WAT     H142971   8.010   5.896   5.391
14243WAT     H242972   8.168   5.924   5.419
14244WAT      O42973   3.478   7.369   1.768
14244WAT     H142974   3.381   7.366   1.746
14244WAT     H242975   3.521   7.444   1.719
14245WAT      O42976   9.069   7.591   6.858
14245WAT     H142977   8.978   7.553   6.868
14245WAT     H242978   9.063   7.690   6.842
14246WAT      O42979   6.640   1.497   0.479
14246WAT     H142980   6.662   1.595   0.475
14246WAT     H242981   6.547   1.485   0.512
14247WAT      O42982   9.075   4.818   7.074
14247WAT     H142983   9.113   4.903   7.110
14247WAT     H242984   9.031   4.836   6.986
14248WAT      O42985   0.478   7.936   0.621
14248WAT     H142986   0.550   7.932   0.691
14248WAT     H242987   0.469   8.029   0.587
14249WAT      O42988   0.520   5.338   1.106
14249WAT     H142989   0.436   5.288   1.126
14249WAT     H242990   0.588   5.319   1.176
14250WAT      O42991   1.655   6.777   1.388
14250WAT     H142992   1.696   6.737   1.306
14250WAT     H242993   1.701   6.741   1.469
14251WAT      O42994   6.979   4.523   0.322
14251WAT     H142995   6.892   4.477   0.303
14251WAT     H242996   6.985   4.542   0.420
14252WAT      O42997   3.275   1.525   8.017
14252WAT     H142998   3.218   1.538   7.936
14252WAT     H242999   3.359   1.477   7.993
14253WAT      O43000   1.696   0.070   9.597
14253WAT     H143001   1.601   0.073   9.567
14253WAT     H243002   1.700   0.044   9.693
14254WAT      O43003   6.218   3.891   5.929
14254WAT     H143004   6.167   3.947   5.994
14254WAT     H243005   6.308   3.871   5.967
14255WAT      O43006   4.405   4.623   0.705
14255WAT     H143007   4.334   4.609   0.636
14255WAT     H243008   4.365   4.609   0.796
14256WAT      O43009   1.106   4.639   9.135
14256WAT     H143010   1.045   4.707   9.176
14256WAT     H243011   1.084   4.548   9.171
14257WAT      O43012   4.877   1.442   7.997
14257WAT     H143013   4.865   1.373   7.925
14257WAT     H243014   4.951   1.414   8.058
14258WAT      O43015   3.558   1.951   7.673
14258WAT     H143016   3.645   1.934   7.719
14258WAT     H243017   3.573   2.010   7.594
14259WAT      O43018   4.323   3.255   9.503
14259WAT     H143019   4.396   3.204   9.457
14259WAT     H243020   4.362   3.337   9.545
14260WAT      O43021   9.400   9.468   1.354
14260WAT     H143022   9.439   9.431   1.438
14260WAT     H243023   9.471   9.516   1.302
14261WAT      O43024   4.847   9.792   4.499
14261WAT     H143025   4.785   9.715   4.479
14261WAT     H243026   4.854   9.850   4.418
14262WAT      O43027   5.776   3.838   6.429
14262WAT     H143028   5.751   3.935   6.422
14262WAT     H243029   5.821   3.822   6.517
14263WAT      O43030   1.556   4.382   7.165
14263WAT     H143031   1.473   4.334   7.137
14263WAT     H243032   1.549   4.406   7.262
14264WAT      O43033   1.378   0.636   1.353
14264WAT     H143034   1.453   0.633   1.287
14264WAT     H243035   1.300   0.683   1.311
14265WAT      O43036   9.440   5.034   5.266
14265WAT     H143037   9.464   5.039   5.363
14265WAT     H243038   9.519   5.003   5.213
14266WAT      O43039   8.857   4.819   8.559
14266WAT     H143040   8.800   4.754   8.610
14266WAT     H243041   8.840   4.912   8.593
14267WAT      O43042   4.012   6.481   6.375
14267WAT     H143043   4.006   6.428   6.290
14267WAT     H243044   4.039   6.421   6.450
14268WAT      O43045   9.631   0.190   7.090
14268WAT     H143046   9.648   0.099   7.052
14268WAT     H243047   9.540   0.221   7.063
14269WAT      O43048   1.038   4.090   7.710
14269WAT     H143049   0.991   4.136   7.785
14269WAT     H243050   1.129   4.062   7.740
14270WAT      O43051   1.052   7.747   9.225
14270WAT     H143052   0.980   7.772   9.290
14270WAT     H243053   1.049   7.809   9.147
14271WAT      O43054   0.531   7.151   0.736
14271WAT     H143055   0.613   7.143   0.679
14271WAT     H243056   0.518   7.247   0.762
14272WAT      O43057   2.892   6.145   1.104
14272WAT     H143058   2.796   6.160   1.079
14272WAT     H243059   2.908   6.180   1.196
14273WAT      O43060   1.233   5.028   6.047
14273WAT     H143061   1.206   4.971   6.125
14273WAT     H243062   1.206   5.123   6.064
14274WAT      O43063   3.145   7.452   3.481
14274WAT     H143064   3.200   7.370   3.496
14274WAT     H243065   3.181   7.527   3.535
14275WAT      O43066   0.084   7.375   0.489
14275WAT     H143067   0.162   7.423   0.446
14275WAT     H243068   0.087   7.278   0.464
14276WAT      O43069   5.103   2.123   1.592
14276WAT     H143070   5.137   2.064   1.519
14276WAT     H243071   5.145   2.213   1.584
14277WAT      O43072   9.114   3.292   7.232
14277WAT     H143073   9.038   3.266   7.292
14277WAT     H243074   9.183   3.341   7.285
14278WAT      O43075   9.711   4.212   4.812
14278WAT     H143076   9.694   4.153   4.733
14278WAT     H243077   9.778   4.170   4.872
14279WAT      O43078   1.449   1.364   8.447
14279WAT     H143079   1.493   1.449   8.418
14279WAT     H243080   1.496   1.286   8.406
14280WAT      O43081   1.439   3.722   9.752
14280WAT     H143082   1.438   3.792   9.681
14280WAT     H243083   1.522   3.732   9.807
14281WAT      O43084   2.441   2.931   5.052
14281WAT     H143085   2.349   2.908   5.021
14281WAT     H243086   2.489   2.981   4.979
14282WAT      O43087   6.034   2.273   9.462
14282WAT     H143088   5.959   2.325   9.502
14282WAT     H243089   6.074   2.213   9.532
14283WAT      O43090   6.345   6.286   7.131
14283WAT     H143091   6.315   6.360   7.072
14283WAT     H243092   6.365   6.321   7.223
14284WAT      O43093   4.950   7.098   2.892
14284WAT     H143094   4.924   7.031   2.961
14284WAT     H243095   4.954   7.189   2.934
14285WAT      O43096   1.842   2.831   3.939
14285WAT     H143097   1.900   2.774   3.881
14285WAT     H243098   1.761   2.779   3.966
14286WAT      O43099   4.673   4.336   3.639
14286WAT     H143100   4.653   4.425   3.599
14286WAT     H243101   4.671   4.266   3.567
14287WAT      O43102   0.319   5.885   7.444
14287WAT     H143103   0.300   5.935   7.359
14287WAT     H243104   0.234   5.867   7.492
14288WAT      O43105   8.904   6.920   7.276
14288WAT     H143106   8.900   6.868   7.191
14288WAT     H243107   8.899   7.018   7.255
14289WAT      O43108   7.019   5.332   3.072
14289WAT     H143109   6.928   5.294   3.089
14289WAT     H243110   7.076   5.263   3.027
14290WAT      O43111   8.002   4.119   8.808
14290WAT     H143112   8.014   4.180   8.730
14290WAT     H243113   7.938   4.160   8.873
14291WAT      O43114   7.545   6.136   9.603
14291WAT     H143115   7.569   6.163   9.696
14291WAT     H243116   7.471   6.193   9.570
14292WAT      O43117   0.648   7.099   9.015
14292WAT     H143118   0.697   7.016   9.042
14292WAT     H243119   0.591   7.079   8.935
14293WAT      O43120   7.882   4.027   3.459
14293WAT     H143121   7.968   4.005   3.411
14293WAT     H243122   7.817   3.953   3.445
14294WAT      O43123   4.166   8.120   3.266
14294WAT     H143124   4.227   8.176   3.323
14294WAT     H243125   4.169   8.025   3.299
14295WAT      O43126   3.203   9.791   2.873
14295WAT     H143127   3.245   9.837   2.951
14295WAT     H243128   3.104   9.783   2.889
14296WAT      O43129   2.201   9.101   8.154
14296WAT     H143130   2.199   9.154   8.239
14296WAT     H243131   2.273   9.135   8.094
14297WAT      O43132   0.636   9.501   4.829
14297WAT     H143133   0.684   9.548   4.904
14297WAT     H243134   0.618   9.406   4.856
14298WAT      O43135   9.636   7.470   3.475
14298WAT     H143136   9.571   7.544   3.464
14298WAT     H243137   9.729   7.506   3.468
14299WAT      O43138   0.039   6.182   9.596
14299WAT     H143139  -0.058   6.165   9.577
14299WAT     H243140   0.082   6.224   9.516
14300WAT      O43141   6.203   6.153   4.947
14300WAT     H143142   6.164   6.083   5.008
14300WAT     H243143   6.267   6.210   4.999
14301WAT      O43144   7.811   0.611   0.653
14301WAT     H143145   7.863   0.541   0.603
14301WAT     H243146   7.817   0.698   0.605
14302WAT      O43147   0.803   7.830   6.397
14302WAT     H143148   0.706   7.808   6.407
14302WAT     H243149   0.815   7.929   6.402
14303WAT      O43150   6.178   6.870   8.604
14303WAT     H143151   6.266   6.912   8.582
14303WAT     H243152   6.130   6.847   8.519
14304WAT      O43153   4.436   8.905   8.262
14304WAT     H143154   4.439   9.003   8.240
14304WAT     H243155   4.357   8.863   8.217
14305WAT      O43156   4.029   5.238   4.701
14305WAT     H143157   4.109   5.294   4.681
14305WAT     H243158   3.973   5.283   4.771
14306WAT      O43159   3.857   2.846   5.203
14306WAT     H143160   3.804   2.786   5.143
14306WAT     H243161   3.797   2.888   5.271
14307WAT      O43162   3.601   7.937   4.619
14307WAT     H143163   3.509   7.925   4.583
14307WAT     H243164   3.638   8.024   4.586
14308WAT      O43165   8.685   4.709   1.408
14308WAT     H143166   8.602   4.689   1.355
14308WAT     H243167   8.761   4.654   1.373
14309WAT      O43168   2.747   0.031   0.674
14309WAT     H143169   2.717  -0.059   0.707
14309WAT     H243170   2.685   0.062   0.602
14310WAT      O43171   6.134   4.290   9.097
14310WAT     H143172   6.203   4.284   9.170
14310WAT     H243173   6.070   4.213   9.106
14311WAT      O43174   1.622   8.812   1.832
14311WAT     H143175   1.704   8.755   1.829
14311WAT     H243176   1.625   8.871   1.912
14312WAT      O43177   5.594   0.774   0.332
14312WAT     H143178   5.599   0.779   0.432
14312WAT     H243179   5.610   0.679   0.303
14313WAT      O43180   0.389   4.853   4.188
14313WAT     H143181   0.425   4.774   4.139
14313WAT     H243182   0.292   4.864   4.167
14314WAT      O43183   7.997   0.248   0.802
14314WAT     H143184   7.905   0.282   0.823
14314WAT     H243185   8.006   0.154   0.834
14315WAT      O43186   8.972   6.749   9.539
14315WAT     H143187   9.063   6.744   9.582
14315WAT     H243188   8.957   6.667   9.484
14316WAT      O43189   2.159   4.790   5.533
14316WAT     H143190   2.177   4.885   5.505
14316WAT     H243191   2.243   4.748   5.566
14317WAT      O43192   2.660   9.366   0.800
14317WAT     H143193   2.664   9.313   0.716
14317WAT     H243194   2.575   9.346   0.848
14318WAT      O43195   3.255   8.247   2.322
14318WAT     H143196   3.190   8.235   2.396
14318WAT     H243197   3.208   8.236   2.234
14319WAT      O43198   2.566   5.593   7.957
14319WAT     H143199   2.577   5.647   8.040
14319WAT     H243200   2.567   5.654   7.877
14320WAT      O43201   2.074   5.665   7.554
14320WAT     H143202   2.018   5.747   7.549
14320WAT     H243203   2.025   5.588   7.513
14321WAT      O43204   5.233   5.472   1.974
14321WAT     H143205   5.280   5.458   1.888
14321WAT     H243206   5.204   5.384   2.011
14322WAT      O43207   3.766   0.064   5.617
14322WAT     H143208   3.752  -0.024   5.664
14322WAT     H243209   3.678   0.109   5.605
14323WAT      O43210   3.247   7.796   5.381
14323WAT     H143211   3.328   7.844   5.345
14323WAT     H243212   3.204   7.744   5.308
14324WAT      O43213   2.436   5.241   9.763
14324WAT     H143214   2.410   5.331   9.726
14324WAT     H243215   2.360   5.204   9.816
14325WAT      O43216   7.370   8.093   1.550
14325WAT     H143217   7.329   8.148   1.622
14325WAT     H243218   7.457   8.056   1.582
14326WAT      O43219   4.790   5.812   7.142
14326WAT     H143220   4.834   5.834   7.229
14326WAT     H243221   4.807   5.886   7.076
14327WAT      O43222   4.810   3.924   3.471
14327WAT     H143223   4.894   3.918   3.524
14327WAT     H243224   4.770   4.015   3.483
14328WAT      O43225   0.469   8.003   1.263
14328WAT     H143226   0.386   8.056   1.248
14328WAT     H243227   0.462   7.954   1.350
14329WAT      O43228   1.569   1.503   7.032
14329WAT     H143229   1.663   1.506   7.065
14329WAT     H243230   1.557   1.570   6.959
14330WAT      O43231   7.592   6.402   7.237
14330WAT     H143232   7.532   6.364   7.166
14330WAT     H243233   7.574   6.355   7.324
14331WAT      O43234   5.754   0.717   8.805
14331WAT     H143235   5.769   0.680   8.713
14331WAT     H243236   5.689   0.793   8.801
14332WAT      O43237   5.312   1.117   7.007
14332WAT     H143238   5.259   1.038   6.975
14332WAT     H243239   5.258   1.169   7.073
14333WAT      O43240   7.366   2.566   1.232
14333WAT     H143241   7.273   2.578   1.265
14333WAT     H243242   7.414   2.653   1.233
14334WAT      O43243   0.234   8.657   8.267
14334WAT     H143244   0.187   8.741   8.238
14334WAT     H243245   0.323   8.680   8.306
14335WAT      O43246   2.047   5.568   5.142
14335WAT     H143247   1.963   5.552   5.194
14335WAT     H243248   2.106   5.488   5.150
14336WAT      O43249   7.706   9.141   5.850
14336WAT     H143250   7.762   9.168   5.772
14336WAT     H243251   7.720   9.205   5.926
14337WAT      O43252   1.941   6.019   3.546
14337WAT     H143253   2.040   6.033   3.550
14337WAT     H243254   1.895   6.082   3.609
14338WAT      O43255   4.041   7.865   3.297
14338WAT     H143256   3.941   7.855   3.303
14338WAT     H243257   4.078   7.888   3.386
14339WAT      O43258   0.295   7.422   4.646
14339WAT     H143259   0.342   7.336   4.667
14339WAT     H243260   0.202   7.402   4.616
14340WAT      O43261   5.894   2.148   5.631
14340WAT     H143262   5.911   2.229   5.687
14340WAT     H243263   5.980   2.099   5.616
14341WAT      O43264   8.239   9.433   5.775
14341WAT     H143265   8.199   9.342   5.782
14341WAT     H243266   8.202   9.491   5.847
14342WAT      O43267   1.021   3.369   9.712
14342WAT     H143268   0.937   3.398   9.758
14342WAT     H243269   1.099   3.419   9.751
14343WAT      O43270   6.713   6.670   9.427
14343WAT     H143271   6.654   6.743   9.392
14343WAT     H243272   6.704   6.665   9.527
14344WAT      O43273   1.243   3.459   8.464
14344WAT     H143274   1.271   3.555   8.458
14344WAT     H243275   1.193   3.445   8.549
14345WAT      O43276   4.720   7.178   8.794
14345WAT     H143277   4.634   7.127   8.792
14345WAT     H243278   4.706   7.268   8.752
14346WAT      O43279   1.669   8.667   4.242
14346WAT     H143280   1.657   8.672   4.341
14346WAT     H243281   1.657   8.757   4.202
14347WAT      O43282   5.748   8.074   5.206
14347WAT     H143283   5.660   8.068   5.253
14347WAT     H243284   5.812   8.128   5.261
14348WAT      O43285   0.872   7.532   2.221
14348WAT     H143286   0.855   7.441   2.259
14348WAT     H243287   0.849   7.602   2.288
14349WAT      O43288   0.403   0.795   4.725
14349WAT     H143289   0.376   0.753   4.639
14349WAT     H243290   0.470   0.867   4.707
14350WAT      O43291   7.166   7.061   3.147
14350WAT     H143292   7.194   7.157   3.141
14350WAT     H243293   7.232   7.004   3.096
14351WAT      O43294   8.380   8.045   3.754
14351WAT     H143295   8.437   8.002   3.684
14351WAT     H243296   8.285   8.014   3.742
14352WAT      O43297   3.046   9.380   8.158
14352WAT     H143298   3.070   9.314   8.087
14352WAT     H243299   3.130   9.413   8.202
14353WAT      O43300   3.483   0.248   1.173
14353WAT     H143301   3.548   0.221   1.244
14353WAT     H243302   3.418   0.174   1.157
14354WAT      O43303   4.423   4.172   0.071
14354WAT     H143304   4.376   4.244   0.122
14354WAT     H243305   4.361   4.134   0.002
14355WAT      O43306   7.854   2.213   0.509
14355WAT     H143307   7.920   2.279   0.474
14355WAT     H243308   7.772   2.262   0.539
14356WAT      O43309   6.525   7.083   2.289
14356WAT     H143310   6.528   7.019   2.366
14356WAT     H243311   6.545   7.035   2.204
14357WAT      O43312   3.394   3.127   4.308
14357WAT     H143313   3.313   3.075   4.333
14357WAT     H243314   3.369   3.201   4.246
14358WAT      O43315   7.292   7.010   8.788
14358WAT     H143316   7.347   7.015   8.704
14358WAT     H243317   7.195   7.010   8.764
14359WAT      O43318   9.606   9.684   9.151
14359WAT     H143319   9.675   9.614   9.133
14359WAT     H243320   9.644   9.756   9.208
14360WAT      O43321   5.150   7.061   5.511
14360WAT     H143322   5.062   7.019   5.533
14360WAT     H243323   5.149   7.090   5.415
14361WAT      O43324   5.888   4.110   6.582
14361WAT     H143325   5.877   4.190   6.642
14361WAT     H243326   5.813   4.106   6.517
14362WAT      O43327   7.343   0.113   8.806
14362WAT     H143328   7.307   0.080   8.894
14362WAT     H243329   7.417   0.052   8.776
14363WAT      O43330   5.785   9.150   2.984
14363WAT     H143331   5.806   9.203   3.066
14363WAT     H243332   5.849   9.074   2.976
14364WAT      O43333   6.840   9.182   8.623
14364WAT     H143334   6.922   9.150   8.576
14364WAT     H243335   6.864   9.210   8.716
14365WAT      O43336   6.133   3.617   7.673
14365WAT     H143337   6.228   3.643   7.657
14365WAT     H243338   6.077   3.699   7.686
14366WAT      O43339   4.883   2.590   2.489
14366WAT     H143340   4.842   2.536   2.562
14366WAT     H243341   4.813   2.647   2.447
14367WAT      O43342   0.547   5.240   9.718
14367WAT     H143343   0.507   5.296   9.791
14367WAT     H243344   0.502   5.263   9.631
14368WAT      O43345   5.029   8.358   1.697
14368WAT     H143346   5.074   8.407   1.772
14368WAT     H243347   4.936   8.334   1.725
14369WAT      O43348   1.669   1.523   2.976
14369WAT     H143349   1.654   1.597   3.041
14369WAT     H243350   1.597   1.455   2.985
14370WAT      O43351   0.939   5.540   9.686
14370WAT     H143352   0.886   5.610   9.735
14370WAT     H243353   0.877   5.470   9.651
14371WAT      O43354   3.198   1.546   6.641
14371WAT     H143355   3.235   1.485   6.711
14371WAT     H243356   3.269   1.609   6.611
14372WAT      O43357   7.319   1.233   7.753
14372WAT     H143358   7.377   1.175   7.694
14372WAT     H243359   7.377   1.288   7.813
14373WAT      O43360   4.269   6.344   7.381
14373WAT     H143361   4.304   6.261   7.338
14373WAT     H243362   4.216   6.396   7.314
14374WAT      O43363   9.495   7.293   8.592
14374WAT     H143364   9.474   7.391   8.584
14374WAT     H243365   9.591   7.282   8.619
14375WAT      O43366   7.573   5.267   5.936
14375WAT     H143367   7.642   5.196   5.942
14375WAT     H243368   7.483   5.225   5.925
14376WAT      O43369   4.937   0.453   2.804
14376WAT     H143370   4.899   0.545   2.817
14376WAT     H243371   4.975   0.420   2.891
14377WAT      O43372   1.253   3.599   0.993
14377WAT     H143373   1.268   3.529   0.923
14377WAT     H243374   1.233   3.686   0.949
14378WAT      O43375   6.851   5.760   1.612
14378WAT     H143376   6.776   5.826   1.611
14378WAT     H243377   6.864   5.724   1.520
14379WAT      O43378   5.952   7.743   1.157
14379WAT     H143379   5.918   7.667   1.101
14379WAT     H243380   6.012   7.707   1.228
14380WAT      O43381   2.755   3.343   2.884
14380WAT     H143382   2.797   3.269   2.833
14380WAT     H243383   2.657   3.344   2.865
14381WAT      O43384   7.351   1.323   9.859
14381WAT     H143385   7.403   1.281   9.934
14381WAT     H243386   7.274   1.374   9.896
14382WAT      O43387   1.740   5.463   2.038
14382WAT     H143388   1.714   5.526   2.110
14382WAT     H243389   1.783   5.514   1.963
14383WAT      O43390   9.013   7.603   1.204
14383WAT     H143391   8.985   7.571   1.113
14383WAT     H243392   9.011   7.703   1.206
14384WAT      O43393   0.578   6.447   5.397
14384WAT     H143394   0.660   6.502   5.411
14384WAT     H243395   0.596   6.352   5.423
14385WAT      O43396   6.795   0.495   9.609
14385WAT     H143397   6.796   0.557   9.687
14385WAT     H243398   6.720   0.520   9.547
14386WAT      O43399   3.378   8.360   5.979
14386WAT     H143400   3.391   8.266   6.011
14386WAT     H243401   3.369   8.360   5.879
14387WAT      O43402   1.446   4.757   6.472
14387WAT     H143403   1.476   4.759   6.567
14387WAT     H243404   1.398   4.672   6.453
14388WAT      O43405   5.178   6.986   1.343
14388WAT     H143406   5.127   7.056   1.394
14388WAT     H243407   5.262   6.964   1.393
14389WAT      O43408   2.240   4.683   8.226
14389WAT     H143409   2.218   4.689   8.129
14389WAT     H243410   2.184   4.749   8.277
14390WAT      O43411   0.211   8.157   4.042
14390WAT     H143412   0.111   8.153   4.037
14390WAT     H243413   0.250   8.133   3.954
14391WAT      O43414   2.062   2.845   6.390
14391WAT     H143415   2.024   2.917   6.447
14391WAT     H243416   2.035   2.859   6.295
14392WAT      O43417   8.514   7.899   7.150
14392WAT     H143418   8.497   7.814   7.199
14392WAT     H243419   8.553   7.967   7.212
14393WAT      O43420   1.607   5.335   9.527
14393WAT     H143421   1.578   5.423   9.565
14393WAT     H243422   1.703   5.318   9.550
14394WAT      O43423   0.564   3.635   3.275
14394WAT     H143424   0.631   3.690   3.224
14394WAT     H243425   0.500   3.696   3.321
14395WAT      O43426   3.886   1.212   8.483
14395WAT     H143427   3.820   1.271   8.531
14395WAT     H243428   3.837   1.146   8.426
14396WAT      O43429   7.562   5.837   6.396
14396WAT     H143430   7.463   5.831   6.382
14396WAT     H243431   7.583   5.823   6.493
14397WAT      O43432   3.943   4.928   9.054
14397WAT     H143433   3.886   4.968   9.125
14397WAT     H243434   3.894   4.928   8.967
14398WAT      O43435   6.925   9.439   2.375
14398WAT     H143436   6.980   9.513   2.415
14398WAT     H243437   6.834   9.440   2.416
14399WAT      O43438   8.089   3.947   7.489
14399WAT     H143439   8.123   3.869   7.436
14399WAT     H243440   8.023   3.915   7.557
14400WAT      O43441   4.971   5.154   4.162
14400WAT     H143442   5.067   5.172   4.183
14400WAT     H243443   4.919   5.239   4.172
14401WAT      O43444   2.136   6.087   6.126
14401WAT     H143445   2.133   6.034   6.042
14401WAT     H243446   2.055   6.068   6.180
14402WAT      O43447   9.153   9.374   4.529
14402WAT     H143448   9.185   9.283   4.504
14402WAT     H243449   9.123   9.422   4.447
14403WAT      O43450   1.680   7.218   9.576
14403WAT     H143451   1.738   7.228   9.495
14403WAT     H243452   1.738   7.220   9.658
14404WAT      O43453   1.359   0.724   0.657
14404WAT     H143454   1.277   0.777   0.636
14404WAT     H243455   1.431   0.785   0.689
14405WAT      O43456   8.348   1.971   8.980
14405WAT     H143457   8.348   2.014   8.889
14405WAT     H243458   8.259   1.930   8.997
14406WAT      O43459   3.682   9.196   3.579
14406WAT     H143460   3.654   9.100   3.577
14406WAT     H243461   3.609   9.253   3.541
14407WAT      O43462   6.165   4.486   3.386
14407WAT     H143463   6.234   4.472   3.315
14407WAT     H243464   6.172   4.580   3.420
14408WAT      O43465   1.968   6.012   3.267
14408WAT     H143466   1.959   6.004   3.367
14408WAT     H243467   2.030   5.942   3.234
14409WAT      O43468   8.121   0.486   0.733
14409WAT     H143469   8.076   0.412   0.783
14409WAT     H243470   8.088   0.488   0.639
14410WAT      O43471   3.965   4.184   9.687
14410WAT     H143472   3.881   4.235   9.673
14410WAT     H243473   4.003   4.206   9.777
14411WAT      O43474   4.449   4.076   2.659
14411WAT     H143475   4.499   4.066   2.573
14411WAT     H243476   4.468   4.167   2.697
14412WAT      O43477   1.846   5.474   5.574
14412WAT     H143478   1.856   5.507   5.480
14412WAT     H243479   1.802   5.545   5.630
14413WAT      O43480   6.802   6.822   1.120
14413WAT     H143481   6.803   6.859   1.213
14413WAT     H243482   6.813   6.723   1.122
14414WAT      O43483   8.626   7.677   9.790
14414WAT     H143484   8.724   7.659   9.801
14414WAT     H243485   8.573   7.611   9.842
14415WAT      O43486   2.709   4.617   8.390
14415WAT     H143487   2.759   4.611   8.303
14415WAT     H243488   2.611   4.617   8.373
14416WAT      O43489   3.884   7.055   0.095
14416WAT     H143490   3.795   7.099   0.081
14416WAT     H243491   3.928   7.041   0.006
14417WAT      O43492   5.042   4.282   5.690
14417WAT     H143493   5.019   4.371   5.728
14417WAT     H243494   5.015   4.279   5.593
14418WAT      O43495   4.780   3.278   0.317
14418WAT     H143496   4.739   3.337   0.247
14418WAT     H243497   4.785   3.184   0.283
14419WAT      O43498   5.810   7.254   9.569
14419WAT     H143499   5.835   7.181   9.506
14419WAT     H243500   5.738   7.222   9.631
14420WAT      O43501   8.062   8.947   6.665
14420WAT     H143502   8.046   8.927   6.568
14420WAT     H243503   8.024   8.872   6.721
14421WAT      O43504   8.248   8.420   8.380
14421WAT     H143505   8.159   8.452   8.414
14421WAT     H243506   8.312   8.496   8.375
14422WAT      O43507   8.088   3.557   5.525
14422WAT     H143508   8.137   3.541   5.439
14422WAT     H243509   8.038   3.474   5.550
14423WAT      O43510   5.988   3.820   2.848
14423WAT     H143511   5.945   3.909   2.838
14423WAT     H243512   5.973   3.766   2.765
14424WAT      O43513   8.177   6.532   5.521
14424WAT     H143514   8.222   6.461   5.574
14424WAT     H243515   8.124   6.490   5.447
14425WAT      O43516   8.020   1.515   7.186
14425WAT     H143517   8.032   1.490   7.090
14425WAT     H243518   8.108   1.511   7.233
14426WAT      O43519   2.325   6.391   7.706
14426WAT     H143520   2.227   6.390   7.725
14426WAT     H243521   2.373   6.434   7.783
14427WAT      O43522   5.321   6.421   6.930
14427WAT     H143523   5.266   6.504   6.926
14427WAT     H243524   5.348   6.403   7.025
14428WAT      O43525   3.267   7.330   5.486
14428WAT     H143526   3.270   7.254   5.550
14428WAT     H243527   3.358   7.347   5.449
14429WAT      O43528   2.166   0.352   2.027
14429WAT     H143529   2.090   0.416   2.028
14429WAT     H243530   2.188   0.327   1.933
14430WAT      O43531   3.624   9.493   8.735
14430WAT     H143532   3.534   9.531   8.760
14430WAT     H243533   3.616   9.446   8.647
14431WAT      O43534   7.637   3.037   4.140
14431WAT     H143535   7.680   2.948   4.128
14431WAT     H243536   7.705   3.103   4.170
14432WAT      O43537   0.600   2.761   4.906
14432WAT     H143538   0.675   2.703   4.873
14432WAT     H243539   0.534   2.776   4.832
14433WAT      O43540   6.979   2.722   2.272
14433WAT     H143541   6.931   2.656   2.329
14433WAT     H243542   7.075   2.695   2.262
14434WAT      O43543   4.628   8.923   0.161
14434WAT     H143544   4.619   8.962   0.253
14434WAT     H243545   4.699   8.972   0.111
14435WAT      O43546   6.523   9.665   3.703
14435WAT     H143547   6.616   9.629   3.694
14435WAT     H243548   6.470   9.606   3.763
14436WAT      O43549   3.026   8.368   8.654
14436WAT     H143550   3.070   8.281   8.678
14436WAT     H243551   3.051   8.437   8.722
14437WAT      O43552   1.792   8.610   0.882
14437WAT     H143553   1.718   8.597   0.817
14437WAT     H243554   1.765   8.678   0.950
14438WAT      O43555   4.747   1.243   5.982
14438WAT     H143556   4.665   1.262   5.928
14438WAT     H243557   4.794   1.163   5.944
14439WAT      O43558   6.906   1.670   5.638
14439WAT     H143559   7.003   1.668   5.663
14439WAT     H243560   6.850   1.675   5.720
14440WAT      O43561   1.986   8.029   2.562
14440WAT     H143562   2.026   8.079   2.638
14440WAT     H243563   2.059   7.995   2.503
14441WAT      O43564   2.206   4.679   7.960
14441WAT     H143565   2.270   4.658   7.886
14441WAT     H243566   2.181   4.776   7.956
14442WAT      O43567   3.284   4.183   5.767
14442WAT     H143568   3.289   4.215   5.861
14442WAT     H243569   3.329   4.095   5.759
14443WAT      O43570   3.631   5.307   7.535
14443WAT     H143571   3.686   5.359   7.470
14443WAT     H243572   3.561   5.366   7.575
14444WAT      O43573   9.271   5.668   5.226
14444WAT     H143574   9.195   5.732   5.220
14444WAT     H243575   9.277   5.631   5.318
14445WAT      O43576   3.144   1.295   4.623
14445WAT     H143577   3.157   1.281   4.525
14445WAT     H243578   3.047   1.301   4.644
14446WAT      O43579   6.232   7.112   3.479
14446WAT     H143580   6.142   7.141   3.445
14446WAT     H243581   6.246   7.015   3.458
14447WAT      O43582   2.187   2.899   3.538
14447WAT     H143583   2.183   2.809   3.580
14447WAT     H243584   2.151   2.967   3.601
14448WAT      O43585   6.977   3.113   0.511
14448WAT     H143586   6.921   3.195   0.522
14448WAT     H243587   6.957   3.071   0.422
14449WAT      O43588   7.093   1.074   8.992
14449WAT     H143589   7.136   1.156   8.954
14449WAT     H243590   7.087   1.003   8.921
14450WAT      O43591   0.551   1.897   8.370
14450WAT     H143592   0.519   1.814   8.324
14450WAT     H243593   0.647   1.912   8.347
14451WAT      O43594   7.485   8.630   4.486
14451WAT     H143595   7.450   8.555   4.542
14451WAT     H243596   7.574   8.606   4.449
14452WAT      O43597   7.354   0.808   2.175
14452WAT     H143598   7.391   0.746   2.107
14452WAT     H243599   7.257   0.787   2.190
14453WAT      O43600   0.864   0.627   7.085
14453WAT     H143601   0.823   0.707   7.130
14453WAT     H243602   0.934   0.588   7.145
14454WAT      O43603   4.133   7.086   0.918
14454WAT     H143604   4.053   7.033   0.947
14454WAT     H243605   4.215   7.029   0.926
14455WAT      O43606   4.129   0.471   8.422
14455WAT     H143607   4.169   0.387   8.457
14455WAT     H243608   4.032   0.455   8.400
14456WAT      O43609   5.957   8.298   8.134
14456WAT     H143610   5.952   8.261   8.227
14456WAT     H243611   5.901   8.242   8.073
14457WAT      O43612   9.443   9.449   6.883
14457WAT     H143613   9.456   9.460   6.981
14457WAT     H243614   9.354   9.486   6.856
14458WAT      O43615   6.996   8.650   3.672
14458WAT     H143616   7.013   8.560   3.711
14458WAT     H243617   7.028   8.720   3.735
14459WAT      O43618   8.740   6.625   1.488
14459WAT     H143619   8.663   6.563   1.476
14459WAT     H243620   8.756   6.677   1.404
14460WAT      O43621   1.888   5.292   9.523
14460WAT     H143622   1.951   5.337   9.587
14460WAT     H243623   1.892   5.338   9.434
14461WAT      O43624   0.963   6.751   2.663
14461WAT     H143625   1.025   6.747   2.741
14461WAT     H243626   1.006   6.800   2.588
14462WAT      O43627   2.061   3.452   6.503
14462WAT     H143628   2.093   3.544   6.523
14462WAT     H243629   2.002   3.453   6.423
14463WAT      O43630   3.025   0.106   7.614
14463WAT     H143631   3.038   0.205   7.605
14463WAT     H243632   3.102   0.067   7.664
14464WAT      O43633   2.987   8.082   2.894
14464WAT     H143634   2.920   8.086   2.968
14464WAT     H243635   3.046   8.003   2.907
14465WAT      O43636   3.222   7.052   2.280
14465WAT     H143637   3.289   7.014   2.217
14465WAT     H243638   3.167   6.977   2.319
14466WAT      O43639   4.576   4.320   7.252
14466WAT     H143640   4.615   4.237   7.211
14466WAT     H243641   4.647   4.369   7.302
14467WAT      O43642   1.463   5.147   9.672
14467WAT     H143643   1.537   5.086   9.702
14467WAT     H243644   1.499   5.211   9.604
14468WAT      O43645   3.139   8.876   7.756
14468WAT     H143646   3.221   8.921   7.789
14468WAT     H243647   3.072   8.944   7.727
14469WAT      O43648   6.058   0.370   8.545
14469WAT     H143649   6.052   0.408   8.452
14469WAT     H243650   6.114   0.287   8.543
14470WAT      O43651   2.867   2.670   4.386
14470WAT     H143652   2.921   2.721   4.453
14470WAT     H243653   2.823   2.735   4.323
14471WAT      O43654   3.149   6.189   5.899
14471WAT     H143655   3.123   6.099   5.863
14471WAT     H243656   3.068   6.247   5.906
14472WAT      O43657   7.442   0.504   7.988
14472WAT     H143658   7.464   0.504   7.891
14472WAT     H243659   7.396   0.589   8.013
14473WAT      O43660   7.396   3.517   3.439
14473WAT     H143661   7.336   3.472   3.506
14473WAT     H243662   7.464   3.572   3.488
14474WAT      O43663   8.765   6.526   0.577
14474WAT     H143664   8.712   6.491   0.500
14474WAT     H243665   8.706   6.540   0.656
14475WAT      O43666   3.971   9.476   2.038
14475WAT     H143667   3.945   9.404   2.103
14475WAT     H243668   4.010   9.553   2.089
14476WAT      O43669   7.336   6.342   1.508
14476WAT     H143670   7.272   6.282   1.461
14476WAT     H243671   7.290   6.427   1.532
14477WAT      O43672   4.832   0.223   8.507
14477WAT     H143673   4.857   0.247   8.413
14477WAT     H243674   4.907   0.172   8.549
14478WAT      O43675   9.783   4.268   7.082
14478WAT     H143676   9.694   4.223   7.076
14478WAT     H243677   9.784   4.349   7.022
14479WAT      O43678   1.634   3.152   4.598
14479WAT     H143679   1.706   3.184   4.537
14479WAT     H243680   1.642   3.053   4.610
14480WAT      O43681   0.275   4.258   9.435
14480WAT     H143682   0.214   4.267   9.357
14480WAT     H243683   0.365   4.297   9.413
14481WAT      O43684   5.510   2.414   0.969
14481WAT     H143685   5.540   2.322   0.993
14481WAT     H243686   5.520   2.474   1.049
14482WAT      O43687   8.104   3.922   5.865
14482WAT     H143688   8.120   3.863   5.944
14482WAT     H243689   8.164   4.002   5.869
14483WAT      O43690   1.210   5.382   8.787
14483WAT     H143691   1.309   5.386   8.779
14483WAT     H243692   1.170   5.362   8.698
14484WAT      O43693   7.428   3.118   0.569
14484WAT     H143694   7.405   3.213   0.549
14484WAT     H243695   7.345   3.067   0.590
14485WAT      O43696   0.907   6.203   3.967
14485WAT     H143697   1.004   6.211   3.946
14485WAT     H243698   0.853   6.236   3.890
14486WAT      O43699   5.029   9.118   6.011
14486WAT     H143700   5.064   9.169   6.089
14486WAT     H243701   4.929   9.125   6.009
14487WAT      O43702   0.867   5.451   9.183
14487WAT     H143703   0.961   5.415   9.182
14487WAT     H243704   0.803   5.376   9.167
14488WAT      O43705   0.249   2.613   2.997
14488WAT     H143706   0.248   2.569   2.907
14488WAT     H243707   0.193   2.695   2.995
14489WAT      O43708   8.229   4.103   0.686
14489WAT     H143709   8.213   4.012   0.725
14489WAT     H243710   8.243   4.095   0.587
14490WAT      O43711   0.974   0.046   1.043
14490WAT     H143712   0.970  -0.052   1.063
14490WAT     H243713   0.989   0.059   0.945
14491WAT      O43714   2.749   4.915   4.151
14491WAT     H143715   2.818   4.960   4.208
14491WAT     H243716   2.774   4.923   4.055
14492WAT      O43717   7.197   8.809   9.296
14492WAT     H143718   7.208   8.787   9.199
14492WAT     H243719   7.146   8.735   9.341
14493WAT      O43720   4.141   6.955   8.464
14493WAT     H143721   4.046   6.959   8.432
14493WAT     H243722   4.143   6.912   8.554
14494WAT      O43723   8.035   2.422   2.296
14494WAT     H143724   7.983   2.380   2.370
14494WAT     H243725   7.978   2.428   2.214
14495WAT      O43726   7.995   8.746   6.830
14495WAT     H143727   7.977   8.821   6.894
14495WAT     H243728   8.071   8.691   6.863
14496WAT      O43729   4.538   6.672   8.141
14496WAT     H143730   4.540   6.597   8.076
14496WAT     H243731   4.555   6.638   8.233
14497WAT      O43732   0.868   7.853   6.762
14497WAT     H143733   0.939   7.909   6.719
14497WAT     H243734   0.817   7.908   6.828
14498WAT      O43735   4.894   4.118   5.878
14498WAT     H143736   4.920   4.135   5.973
14498WAT     H243737   4.950   4.175   5.818
14499WAT      O43738   3.545   2.632   7.058
14499WAT     H143739   3.507   2.691   6.987
14499WAT     H243740   3.479   2.624   7.133
14500WAT      O43741   0.724   0.472   9.553
14500WAT     H143742   0.662   0.462   9.476
14500WAT     H243743   0.798   0.405   9.545
14501WAT      O43744   3.378   6.226   2.074
14501WAT     H143745   3.309   6.208   2.004
14501WAT     H243746   3.342   6.203   2.164
14502WAT      O43747   2.708   3.130   1.871
14502WAT     H143748   2.629   3.154   1.927
14502WAT     H243749   2.787   3.184   1.900
14503WAT      O43750   7.857   2.417   3.966
14503WAT     H143751   7.955   2.436   3.974
14503WAT     H243752   7.826   2.368   4.048
14504WAT      O43753   0.161   6.997   4.812
14504WAT     H143754   0.111   7.042   4.887
14504WAT     H243755   0.241   7.051   4.789
14505WAT      O43756   2.419   9.694   8.306
14505WAT     H143757   2.372   9.685   8.218
14505WAT     H243758   2.511   9.729   8.291
14506WAT      O43759   1.228   7.254   7.018
14506WAT     H143760   1.292   7.189   6.977
14506WAT     H243761   1.149   7.265   6.957
14507WAT      O43762   8.301   9.627   3.806
14507WAT     H143763   8.362   9.688   3.858
14507WAT     H243764   8.355   9.563   3.752
14508WAT      O43765   7.857   6.339   2.741
14508WAT     H143766   7.801   6.385   2.811
14508WAT     H243767   7.907   6.263   2.783
14509WAT      O43768   5.216   3.618   1.079
14509WAT     H143769   5.244   3.547   1.143
14509WAT     H243770   5.211   3.579   0.987
14510WAT      O43771   7.180   2.877   9.150
14510WAT     H143772   7.256   2.917   9.202
14510WAT     H243773   7.120   2.951   9.119
14511WAT      O43774   5.336   8.240   6.368
14511WAT     H143775   5.433   8.237   6.342
14511WAT     H243776   5.325   8.201   6.459
14512WAT      O43777   0.867   8.457   1.126
14512WAT     H143778   0.830   8.432   1.216
14512WAT     H243779   0.802   8.429   1.055
14513WAT      O43780   6.253   8.384   8.034
14513WAT     H143781   6.179   8.347   8.092
14513WAT     H243782   6.219   8.396   7.941
14514WAT      O43783   5.029   7.313   3.488
14514WAT     H143784   5.073   7.312   3.578
14514WAT     H243785   4.930   7.314   3.499
14515WAT      O43786   4.713   3.861   0.877
14515WAT     H143787   4.648   3.913   0.822
14515WAT     H243788   4.666   3.820   0.955
14516WAT      O43789   3.723   8.473   2.884
14516WAT     H143790   3.679   8.504   2.800
14516WAT     H243791   3.656   8.428   2.942
14517WAT      O43792   9.521   6.620   7.610
14517WAT     H143793   9.589   6.619   7.684
14517WAT     H243794   9.551   6.560   7.536
14518WAT      O43795   2.933   4.735   2.755
14518WAT     H143796   2.946   4.803   2.827
14518WAT     H243797   2.954   4.644   2.791
14519WAT      O43798   7.786   0.658   8.352
14519WAT     H143799   7.849   0.609   8.292
14519WAT     H243800   7.692   0.634   8.328
14520WAT      O43801   6.498   6.988   5.620
14520WAT     H143802   6.519   7.078   5.581
14520WAT     H243803   6.409   6.990   5.665
14521WAT      O43804   0.960   4.229   2.167
14521WAT     H143805   0.896   4.157   2.195
14521WAT     H243806   1.051   4.188   2.155
14522WAT      O43807   1.469   8.374   1.721
14522WAT     H143808   1.389   8.390   1.779
14522WAT     H243809   1.517   8.292   1.750
14523WAT      O43810   9.192   2.410   7.524
14523WAT     H143811   9.214   2.503   7.497
14523WAT     H243812   9.236   2.389   7.612
14524WAT      O43813   6.694   6.297   1.716
14524WAT     H143814   6.666   6.383   1.674
14524WAT     H243815   6.720   6.314   1.812
14525WAT      O43816   8.629   2.357   3.924
14525WAT     H143817   8.637   2.276   3.865
14525WAT     H243818   8.577   2.334   4.005
14526WAT      O43819   3.333   6.986   1.982
14526WAT     H143820   3.369   6.926   2.054
14526WAT     H243821   3.409   7.024   1.929
14527WAT      O43822   1.124   4.706   0.613
14527WAT     H143823   1.130   4.647   0.693
14527WAT     H243824   1.124   4.802   0.642
14528WAT      O43825   1.353   6.431   8.854
14528WAT     H143826   1.451   6.414   8.868
14528WAT     H243827   1.332   6.526   8.876
14529WAT      O43828   0.556   7.362   8.308
14529WAT     H143829   0.468   7.314   8.313
14529WAT     H243830   0.540   7.461   8.312
14530WAT      O43831   1.660   0.050   2.421
14530WAT     H143832   1.566   0.074   2.398
14530WAT     H243833   1.706   0.129   2.462
14531WAT      O43834   5.422   0.731   1.196
14531WAT     H143835   5.407   0.794   1.272
14531WAT     H243836   5.409   0.637   1.226
14532WAT      O43837   3.864   0.104   3.896
14532WAT     H143838   3.912   0.163   3.830
14532WAT     H243839   3.792   0.157   3.941
14533WAT      O43840   8.267   7.038   9.678
14533WAT     H143841   8.268   7.077   9.770
14533WAT     H243842   8.247   6.940   9.684
14534WAT      O43843   7.466   1.654   2.761
14534WAT     H143844   7.370   1.672   2.781
14534WAT     H243845   7.476   1.561   2.727
14535WAT      O43846   9.448   5.812   5.471
14535WAT     H143847   9.354   5.848   5.475
14535WAT     H243848   9.452   5.726   5.522
14536WAT      O43849   2.018   5.455   1.174
14536WAT     H143850   1.962   5.517   1.229
14536WAT     H243851   1.965   5.423   1.096
14537WAT      O43852   4.737   0.914   9.822
14537WAT     H143853   4.818   0.969   9.845
14537WAT     H243854   4.714   0.929   9.726
14538WAT      O43855   9.637   6.016   4.105
14538WAT     H143856   9.571   5.964   4.158
14538WAT     H243857   9.590   6.083   4.049
14539WAT      O43858   8.003   1.546   0.672
14539WAT     H143859   7.949   1.540   0.588
14539WAT     H243860   8.100   1.544   0.649
14540WAT      O43861   8.408   7.942   0.500
14540WAT     H143862   8.499   7.983   0.493
14540WAT     H243863   8.341   8.013   0.523
14541WAT      O43864   9.063   0.109   5.748
14541WAT     H143865   9.047   0.092   5.846
14541WAT     H243866   9.073   0.022   5.701
14542WAT      O43867   8.388   2.658   6.363
14542WAT     H143868   8.331   2.740   6.367
14542WAT     H243869   8.467   2.675   6.304
14543WAT      O43870   5.173   1.510   1.766
14543WAT     H143871   5.177   1.410   1.769
14543WAT     H243872   5.156   1.545   1.858
14544WAT      O43873   1.096   6.646   6.381
14544WAT     H143874   1.157   6.612   6.310
14544WAT     H243875   1.121   6.606   6.470
14545WAT      O43876   0.931   1.518   1.493
14545WAT     H143877   0.919   1.454   1.416
14545WAT     H243878   0.842   1.533   1.537
14546WAT      O43879   9.650   0.433   0.092
14546WAT     H143880   9.553   0.410   0.091
14546WAT     H243881   9.680   0.445   0.187
14547WAT      O43882   5.229   5.400   6.413
14547WAT     H143883   5.144   5.349   6.429
14547WAT     H243884   5.207   5.495   6.391
14548WAT      O43885   0.201   7.634   6.765
14548WAT     H143886   0.220   7.549   6.814
14548WAT     H243887   0.105   7.635   6.737
14549WAT      O43888   6.755   5.851   4.929
14549WAT     H143889   6.736   5.816   4.838
14549WAT     H243890   6.695   5.806   4.995
14550WAT      O43891   3.425   6.315   7.597
14550WAT     H143892   3.518   6.330   7.566
14550WAT     H243893   3.370   6.280   7.521
14551WAT      O43894   4.709   8.775   6.004
14551WAT     H143895   4.798   8.741   5.972
14551WAT     H243896   4.712   8.787   6.104
14552WAT      O43897   1.153   2.871   4.556
14552WAT     H143898   1.142   2.859   4.457
14552WAT     H243899   1.192   2.961   4.574
14553WAT      O43900   7.789   7.413   9.372
14553WAT     H143901   7.702   7.370   9.396
14553WAT     H243902   7.864   7.348   9.388
14554WAT      O43903   2.424   3.410   4.311
14554WAT     H143904   2.389   3.399   4.404
14554WAT     H243905   2.464   3.324   4.280
14555WAT      O43906   7.346   9.192   8.473
14555WAT     H143907   7.394   9.238   8.547
14555WAT     H243908   7.370   9.095   8.472
14556WAT      O43909   9.014   4.826   2.884
14556WAT     H143910   9.112   4.814   2.900
14556WAT     H243911   8.997   4.918   2.850
14557WAT      O43912   2.398   3.895   6.377
14557WAT     H143913   2.439   3.851   6.297
14557WAT     H243914   2.427   3.847   6.460
14558WAT      O43915   4.790   0.118   2.613
14558WAT     H143916   4.721   0.046   2.605
14558WAT     H243917   4.746   0.204   2.635
14559WAT      O43918   9.081   3.077   7.656
14559WAT     H143919   9.175   3.060   7.628
14559WAT     H243920   9.042   3.150   7.600
14560WAT      O43921   3.816   8.874   4.974
14560WAT     H143922   3.782   8.878   5.068
14560WAT     H243923   3.768   8.942   4.918
14561WAT      O43924   4.192   8.841   9.437
14561WAT     H143925   4.271   8.901   9.443
14561WAT     H243926   4.116   8.880   9.489
14562WAT      O43927   3.123   1.559   3.079
14562WAT     H143928   3.146   1.655   3.062
14562WAT     H243929   3.187   1.500   3.028
14563WAT      O43930   8.302   1.852   2.175
14563WAT     H143931   8.283   1.828   2.080
14563WAT     H243932   8.267   1.779   2.235
14564WAT      O43933   0.853   0.041   4.196
14564WAT     H143934   0.888   0.012   4.285
14564WAT     H243935   0.773   0.099   4.209
14565WAT      O43936   2.630   7.395   2.275
14565WAT     H143937   2.533   7.413   2.294
14565WAT     H243938   2.686   7.458   2.328
14566WAT      O43939   4.988   1.013   9.820
14566WAT     H143940   5.075   0.988   9.777
14566WAT     H243941   4.998   1.103   9.863
14567WAT      O43942   0.883   1.824   3.565
14567WAT     H143943   0.916   1.755   3.500
14567WAT     H243944   0.898   1.791   3.659
14568WAT      O43945   4.057   5.073   0.249
14568WAT     H143946   3.974   5.073   0.194
14568WAT     H243947   4.130   5.026   0.199
14569WAT      O43948   6.895   7.131   1.752
14569WAT     H143949   6.964   7.134   1.825
14569WAT     H243950   6.904   7.045   1.701
14570WAT      O43951   9.798   6.259   8.674
14570WAT     H143952   9.886   6.298   8.648
14570WAT     H243953   9.810   6.163   8.701
14571WAT      O43954   6.760   7.762   1.822
14571WAT     H143955   6.789   7.785   1.729
14571WAT     H243956   6.681   7.817   1.847
14572WAT      O43957   1.059   0.047   8.387
14572WAT     H143958   0.997   0.036   8.465
14572WAT     H243959   1.039  -0.023   8.318
14573WAT      O43960   9.065   3.639   1.804
14573WAT     H143961   9.088   3.641   1.901
14573WAT     H243962   9.039   3.546   1.777
14574WAT      O43963   2.330   3.485   7.358
14574WAT     H143964   2.262   3.426   7.400
14574WAT     H243965   2.285   3.546   7.292
14575WAT      O43966   7.463   9.102   2.001
14575WAT     H143967   7.527   9.026   1.986
14575WAT     H243968   7.486   9.148   2.087
14576WAT      O43969   8.274   4.751   3.916
14576WAT     H143970   8.184   4.745   3.959
14576WAT     H243971   8.323   4.665   3.931
14577WAT      O43972   1.575   8.003   8.692
14577WAT     H143973   1.505   7.932   8.698
14577WAT     H243974   1.664   7.962   8.675
14578WAT      O43975   4.089   9.088   2.012
14578WAT     H143976   4.070   9.040   1.927
14578WAT     H243977   4.140   9.028   2.074
14579WAT      O43978   0.766   4.596   5.584
14579WAT     H143979   0.722   4.569   5.498
14579WAT     H243980   0.866   4.589   5.574
14580WAT      O43981   1.667   8.498   3.769
14580WAT     H143982   1.642   8.587   3.808
14580WAT     H243983   1.710   8.442   3.839
14581WAT      O43984   3.631   4.302   6.227
14581WAT     H143985   3.532   4.292   6.217
14581WAT     H243986   3.652   4.388   6.274
14582WAT      O43987   5.619   7.178   3.192
14582WAT     H143988   5.672   7.129   3.123
14582WAT     H243989   5.527   7.196   3.156
14583WAT      O43990   8.037   6.778   0.568
14583WAT     H143991   8.063   6.796   0.473
14583WAT     H243992   8.020   6.680   0.580
14584WAT      O43993   3.383   1.304   7.743
14584WAT     H143994   3.324   1.264   7.814
14584WAT     H243995   3.452   1.362   7.786
14585WAT      O43996   2.677   5.897   8.854
14585WAT     H143997   2.722   5.936   8.773
14585WAT     H243998   2.651   5.802   8.836
14586WAT      O43999   0.769   4.005   6.251
14586WAT     H144000   0.795   4.012   6.347
14586WAT     H244001   0.733   3.913   6.233
14587WAT      O44002   3.706   7.256   4.936
14587WAT     H144003   3.777   7.211   4.990
14587WAT     H244004   3.711   7.225   4.842
14588WAT      O44005   4.610   7.589   5.700
14588WAT     H144006   4.672   7.547   5.632
14588WAT     H244007   4.661   7.653   5.756
14589WAT      O44008   8.926   6.405   2.187
14589WAT     H144009   9.000   6.338   2.189
14589WAT     H244010   8.945   6.472   2.115
14590WAT      O44011   2.708   1.207   5.651
14590WAT     H144012   2.788   1.259   5.682
14590WAT     H244013   2.691   1.228   5.554
14591WAT      O44014   9.834   7.762   5.839
14591WAT     H144015   9.848   7.856   5.869
14591WAT     H244016   9.915   7.729   5.792
14592WAT      O44017   3.423   8.799   5.056
14592WAT     H144018   3.434   8.811   5.155
14592WAT     H244019   3.470   8.715   5.028
14593WAT      O44020   0.134   7.977   0.266
14593WAT     H144021   0.076   7.952   0.188
14593WAT     H244022   0.159   7.895   0.317
14594WAT      O44023   4.481   1.194   4.921
14594WAT     H144024   4.465   1.245   4.837
14594WAT     H244025   4.494   1.258   4.997
14595WAT      O44026   6.737   5.780   8.007
14595WAT     H144027   6.733   5.880   7.998
14595WAT     H244028   6.830   5.749   7.992
14596WAT      O44029   8.300   2.806   0.581
14596WAT     H144030   8.304   2.902   0.556
14596WAT     H244031   8.330   2.750   0.504
14597WAT      O44032   6.088   6.805   9.786
14597WAT     H144033   6.111   6.708   9.779
14597WAT     H244034   6.160   6.853   9.836
14598WAT      O44035   2.090   9.489   4.840
14598WAT     H144036   2.114   9.544   4.920
14598WAT     H244037   2.062   9.398   4.869
14599WAT      O44038   3.482   7.999   2.593
14599WAT     H144039   3.438   7.911   2.578
14599WAT     H244040   3.507   8.039   2.505
14600WAT      O44041   0.521   3.625   1.077
14600WAT     H144042   0.536   3.665   0.987
14600WAT     H244043   0.571   3.539   1.084
14601WAT      O44044   2.111   9.648   6.413
14601WAT     H144045   2.173   9.650   6.491
14601WAT     H244046   2.152   9.697   6.336
14602WAT      O44047   2.458   9.776   5.089
14602WAT     H144048   2.556   9.763   5.102
14602WAT     H244049   2.443   9.847   5.021
14603WAT      O44050   9.188   3.752   4.159
14603WAT     H144051   9.215   3.798   4.243
14603WAT     H244052   9.191   3.653   4.173
14604WAT      O44053   5.610   1.537   8.782
14604WAT     H144054   5.708   1.533   8.760
14604WAT     H244055   5.598   1.522   8.881
14605WAT      O44056   9.296   5.994   6.161
14605WAT     H144057   9.254   6.071   6.113
14605WAT     H244058   9.371   6.027   6.218
14606WAT      O44059   1.660   2.187   1.327
14606WAT     H144060   1.619   2.273   1.300
14606WAT     H244061   1.604   2.111   1.294
14607WAT      O44062   7.743   8.590   8.908
14607WAT     H144063   7.741   8.690   8.902
14607WAT     H244064   7.673   8.552   8.847
14608WAT      O44065   4.753   7.537   4.642
14608WAT     H144066   4.680   7.516   4.706
14608WAT     H244067   4.769   7.458   4.582
14609WAT      O44068   3.227   8.864   6.472
14609WAT     H144069   3.235   8.766   6.452
14609WAT     H244070   3.134   8.884   6.502
14610WAT      O44071   9.026   2.365   1.740
14610WAT     H144072   9.099   2.426   1.709
14610WAT     H244073   9.051   2.326   1.829
14611WAT      O44074   9.204   4.292   3.127
14611WAT     H144075   9.276   4.227   3.150
14611WAT     H244076   9.227   4.339   3.042
14612WAT      O44077   7.163   5.309   8.065
14612WAT     H144078   7.106   5.335   7.987
14612WAT     H244079   7.237   5.251   8.034
14613WAT      O44080   0.416   3.324   6.527
14613WAT     H144081   0.316   3.327   6.528
14613WAT     H244082   0.452   3.416   6.510
14614WAT      O44083   7.414   1.006   1.345
14614WAT     H144084   7.502   1.034   1.385
14614WAT     H244085   7.361   0.957   1.414
14615WAT      O44086   5.512   1.475   8.508
14615WAT     H144087   5.533   1.502   8.602
14615WAT     H244088   5.597   1.453   8.460
14616WAT      O44089   8.880   8.678   7.288
14616WAT     H144090   8.833   8.766   7.292
14616WAT     H244091   8.849   8.627   7.207
14617WAT      O44092   6.235   0.591   8.394
14617WAT     H144093   6.315   0.631   8.349
14617WAT     H244094   6.201   0.654   8.464
14618WAT      O44095   6.674   6.378   5.289
14618WAT     H144096   6.665   6.384   5.190
14618WAT     H244097   6.676   6.470   5.328
14619WAT      O44098   5.593   4.720   0.237
14619WAT     H144099   5.518   4.743   0.299
14619WAT     H244100   5.565   4.738   0.143
14620WAT      O44101   1.770   1.319   6.665
14620WAT     H144102   1.805   1.412   6.654
14620WAT     H244103   1.671   1.320   6.663
14621WAT      O44104   7.047   9.815   3.330
14621WAT     H144105   7.115   9.742   3.340
14621WAT     H244106   7.090   9.903   3.351
14622WAT      O44107   1.953   8.648   3.911
14622WAT     H144108   1.965   8.594   3.828
14622WAT     H244109   1.915   8.590   3.983
14623WAT      O44110   3.245   5.637   7.075
14623WAT     H144111   3.183   5.630   7.153
14623WAT     H244112   3.337   5.611   7.103
14624WAT      O44113   8.863   2.562   3.622
14624WAT     H144114   8.935   2.512   3.573
14624WAT     H244115   8.819   2.625   3.558
14625WAT      O44116   1.230   2.928   5.175
14625WAT     H144117   1.225   2.982   5.259
14625WAT     H244118   1.150   2.947   5.118
14626WAT      O44119   2.833   2.543   3.942
14626WAT     H144120   2.815   2.515   3.848
14626WAT     H244121   2.932   2.549   3.957
14627WAT      O44122   8.084   5.215   8.172
14627WAT     H144123   8.127   5.291   8.220
14627WAT     H244124   8.055   5.146   8.238
14628WAT      O44125   0.431   2.959   7.837
14628WAT     H144126   0.352   3.021   7.846
14628WAT     H244127   0.450   2.917   7.926
14629WAT      O44128   4.269   6.890   3.130
14629WAT     H144129   4.183   6.883   3.080
14629WAT     H244130   4.327   6.960   3.087
14630WAT      O44131   0.046   7.114   3.783
14630WAT     H144132   0.016   7.158   3.698
14630WAT     H244133  -0.033   7.095   3.841
14631WAT      O44134   7.908   2.554   2.628
14631WAT     H144135   7.920   2.604   2.542
14631WAT     H244136   7.824   2.583   2.672
14632WAT      O44137   7.957   6.507   3.970
14632WAT     H144138   7.928   6.602   3.961
14632WAT     H244139   7.919   6.468   4.054
14633WAT      O44140   7.211   9.392   7.931
14633WAT     H144141   7.191   9.319   7.997
14633WAT     H244142   7.243   9.473   7.980
14634WAT      O44143   5.597   0.707   9.239
14634WAT     H144144   5.524   0.727   9.174
14634WAT     H244145   5.573   0.745   9.328
14635WAT      O44146   3.740   1.996   2.688
14635WAT     H144147   3.773   2.062   2.756
14635WAT     H244148   3.641   1.993   2.690
14636WAT      O44149   1.516   7.079   6.147
14636WAT     H144150   1.429   7.129   6.146
14636WAT     H244151   1.498   6.982   6.163
14637WAT      O44152   1.748   3.317   6.373
14637WAT     H144153   1.697   3.372   6.307
14637WAT     H244154   1.693   3.239   6.401
14638WAT      O44155   6.898   1.038   7.270
14638WAT     H144156   6.864   1.015   7.179
14638WAT     H244157   6.862   0.972   7.336
14639WAT      O44158   1.604   1.556   8.330
14639WAT     H144159   1.689   1.560   8.279
14639WAT     H244160   1.589   1.643   8.377
14640WAT      O44161   7.566   1.368   3.926
14640WAT     H144162   7.569   1.373   3.826
14640WAT     H244163   7.473   1.388   3.958
14641WAT      O44164   2.102   7.264   0.669
14641WAT     H144165   2.051   7.208   0.604
14641WAT     H244166   2.168   7.321   0.619
14642WAT      O44167   4.846   5.697   8.694
14642WAT     H144168   4.847   5.693   8.794
14642WAT     H244169   4.763   5.744   8.663
14643WAT      O44170   2.043   1.239   0.075
14643WAT     H144171   2.096   1.243  -0.010
14643WAT     H244172   2.095   1.189   0.144
14644WAT      O44173   6.807   2.823   8.743
14644WAT     H144174   6.775   2.891   8.676
14644WAT     H244175   6.879   2.864   8.799
14645WAT      O44176   2.229   9.192   4.329
14645WAT     H144177   2.305   9.255   4.310
14645WAT     H244178   2.223   9.176   4.428
14646WAT      O44179   0.275   5.311   7.806
14646WAT     H144180   0.365   5.274   7.784
14646WAT     H244181   0.285   5.403   7.844
14647WAT      O44182   2.052   5.002   0.729
14647WAT     H144183   2.024   5.016   0.824
14647WAT     H244184   2.059   5.090   0.683
14648WAT      O44185   0.503   8.243   5.142
14648WAT     H144186   0.462   8.154   5.122
14648WAT     H244187   0.544   8.241   5.233
14649WAT      O44188   9.270   2.807   9.633
14649WAT     H144189   9.347   2.869   9.649
14649WAT     H244190   9.235   2.774   9.720
14650WAT      O44191   7.107   7.907   1.586
14650WAT     H144192   7.018   7.933   1.625
14650WAT     H244193   7.158   7.990   1.563
14651WAT      O44194   1.290   3.609   4.461
14651WAT     H144195   1.305   3.668   4.381
14651WAT     H244196   1.203   3.632   4.503
14652WAT      O44197   4.503   7.494   0.048
14652WAT     H144198   4.502   7.419  -0.018
14652WAT     H244199   4.409   7.516   0.075
14653WAT      O44200   9.862   0.147   8.727
14653WAT     H144201   9.826   0.087   8.798
14653WAT     H244202   9.923   0.096   8.667
14654WAT      O44203   6.889   8.001   1.734
14654WAT     H144204   6.895   8.099   1.713
14654WAT     H244205   6.837   7.989   1.819
14655WAT      O44206   4.194   2.941   3.502
14655WAT     H144207   4.240   2.855   3.526
14655WAT     H244208   4.134   2.968   3.577
14656WAT      O44209   8.367   2.258   7.507
14656WAT     H144210   8.376   2.351   7.470
14656WAT     H244211   8.275   2.247   7.545
14657WAT      O44212   5.992   1.118   0.703
14657WAT     H144213   5.961   1.023   0.696
14657WAT     H244214   5.985   1.162   0.613
14658WAT      O44215   1.781   2.247   9.304
14658WAT     H144216   1.757   2.259   9.401
14658WAT     H244217   1.703   2.211   9.254
14659WAT      O44218   4.663   6.930   6.064
14659WAT     H144219   4.679   6.948   5.967
14659WAT     H244220   4.565   6.917   6.079
14660WAT      O44221   4.962   9.450   1.329
14660WAT     H144222   4.920   9.391   1.261
14660WAT     H244223   5.061   9.453   1.314
14661WAT      O44224   3.896   1.813   8.604
14661WAT     H144225   3.821   1.758   8.640
14661WAT     H244226   3.882   1.830   8.506
14662WAT      O44227   4.014   9.621   0.138
14662WAT     H144228   4.104   9.663   0.130
14662WAT     H244229   3.948   9.690   0.167
14663WAT      O44230   5.969   8.027   4.411
14663WAT     H144231   5.994   8.120   4.385
14663WAT     H244232   5.888   8.029   4.470
14664WAT      O44233   5.527   1.676   4.023
14664WAT     H144234   5.602   1.648   4.084
14664WAT     H244235   5.441   1.636   4.056
14665WAT      O44236   9.790   0.137   8.319
14665WAT     H144237   9.727   0.196   8.370
14665WAT     H244238   9.880   0.138   8.362
14666WAT      O44239   0.260   0.789   8.159
14666WAT     H144240   0.244   0.822   8.067
14666WAT     H244241   0.299   0.862   8.215
14667WAT      O44242   4.737   3.920   2.617
14667WAT     H144243   4.770   3.917   2.712
14667WAT     H244244   4.758   3.833   2.572
14668WAT      O44245   5.813   9.266   3.207
14668WAT     H144246   5.741   9.209   3.246
14668WAT     H244247   5.887   9.277   3.274
14669WAT      O44248   0.570   9.492   7.272
14669WAT     H144249   0.479   9.464   7.305
14669WAT     H244250   0.626   9.522   7.349
14670WAT      O44251   0.618   2.610   6.799
14670WAT     H144252   0.531   2.614   6.750
14670WAT     H244253   0.617   2.679   6.872
14671WAT      O44254   2.251   8.240   5.532
14671WAT     H144255   2.277   8.293   5.451
14671WAT     H244256   2.333   8.219   5.586
14672WAT      O44257   0.078   3.711   7.876
14672WAT     H144258   0.010   3.650   7.835
14672WAT     H244259   0.061   3.718   7.975
14673WAT      O44260   4.453   2.897   8.381
14673WAT     H144261   4.505   2.965   8.433
14673WAT     H244262   4.371   2.939   8.342
14674WAT      O44263   7.507   7.216   6.460
14674WAT     H144264   7.523   7.289   6.394
14674WAT     H244265   7.586   7.209   6.522
14675WAT      O44266   6.491   3.952   9.208
14675WAT     H144267   6.474   3.855   9.221
14675WAT     H244268   6.436   4.005   9.272
14676WAT      O44269   7.357   1.150   8.227
14676WAT     H144270   7.387   1.080   8.292
14676WAT     H244271   7.319   1.228   8.277
14677WAT      O44272   5.092   1.158   0.540
14677WAT     H144273   5.165   1.222   0.564
14677WAT     H244274   5.044   1.130   0.622
14678WAT      O44275   5.341   0.609   5.419
14678WAT     H144276   5.259   0.553   5.430
14678WAT     H244277   5.421   0.556   5.448
14679WAT      O44278   9.649   0.485   5.753
14679WAT     H144279   9.701   0.399   5.753
14679WAT     H244280   9.561   0.470   5.708
14680WAT      O44281   7.223   0.491   3.440
14680WAT     H144282   7.175   0.576   3.458
14680WAT     H244283   7.321   0.509   3.432
14681WAT      O44284   4.488   3.615   1.701
14681WAT     H144285   4.577   3.590   1.741
14681WAT     H244286   4.494   3.606   1.601
14682WAT      O44287   9.699   4.314   2.041
14682WAT     H144288   9.678   4.328   1.945
14682WAT     H244289   9.617   4.332   2.096
14683WAT      O44290   7.879   9.154   3.443
14683WAT     H144291   7.962   9.202   3.472
14683WAT     H244292   7.845   9.196   3.359
14684WAT      O44293   1.556   1.230   3.900
14684WAT     H144294   1.491   1.276   3.840
14684WAT     H244295   1.634   1.291   3.918
14685WAT      O44296   8.172   6.207   2.319
14685WAT     H144297   8.205   6.293   2.359
14685WAT     H244298   8.172   6.136   2.389
14686WAT      O44299   4.436   0.493   7.061
14686WAT     H144300   4.515   0.432   7.058
14686WAT     H244301   4.465   0.585   7.086
14687WAT      O44302   2.966   7.371   6.225
14687WAT     H144303   3.055   7.355   6.182
14687WAT     H244304   2.976   7.438   6.298
14688WAT      O44305   5.947   4.963   2.298
14688WAT     H144306   5.943   4.866   2.272
14688WAT     H244307   5.930   5.019   2.217
14689WAT      O44308   3.855   0.057   9.041
14689WAT     H144309   3.930  -0.004   9.013
14689WAT     H244310   3.784   0.004   9.086
14690WAT      O44311   4.484   8.609   6.314
14690WAT     H144312   4.528   8.527   6.277
14690WAT     H244313   4.538   8.689   6.289
14691WAT      O44314   8.195   5.871   6.287
14691WAT     H144315   8.272   5.871   6.351
14691WAT     H244316   8.215   5.811   6.210
14692WAT      O44317   7.161   9.755   5.888
14692WAT     H144318   7.123   9.685   5.827
14692WAT     H244319   7.258   9.767   5.867
14693WAT      O44320   1.484   2.162   8.914
14693WAT     H144321   1.399   2.110   8.914
14693WAT     H244322   1.464   2.260   8.908
14694WAT      O44323   1.379   4.222   2.496
14694WAT     H144324   1.287   4.255   2.516
14694WAT     H244325   1.423   4.283   2.430
14695WAT      O44326   4.834   7.986   0.074
14695WAT     H144327   4.788   8.040   0.003
14695WAT     H244328   4.876   8.047   0.140
14696WAT      O44329   7.707   3.539   2.256
14696WAT     H144330   7.797   3.504   2.232
14696WAT     H244331   7.694   3.534   2.355
14697WAT      O44332   8.473   1.013   7.729
14697WAT     H144333   8.485   1.099   7.680
14697WAT     H244334   8.422   1.029   7.814
14698WAT      O44335   8.661   8.836   4.434
14698WAT     H144336   8.707   8.794   4.355
14698WAT     H244337   8.590   8.898   4.402
14699WAT      O44338   4.617   9.384   9.496
14699WAT     H144339   4.604   9.307   9.434
14699WAT     H244340   4.614   9.350   9.591
14700WAT      O44341   9.874   1.678   0.986
14700WAT     H144342   9.817   1.748   0.945
14700WAT     H244343   9.969   1.689   0.955
14701WAT      O44344   4.326   2.423   1.761
14701WAT     H144345   4.402   2.451   1.820
14701WAT     H244346   4.341   2.329   1.730
14702WAT      O44347   0.482   9.580   1.470
14702WAT     H144348   0.434   9.665   1.494
14702WAT     H244349   0.546   9.597   1.396
14703WAT      O44350   3.119   7.865   4.660
14703WAT     H144351   3.128   7.903   4.753
14703WAT     H244352   3.106   7.766   4.666
14704WAT      O44353   0.562   4.382   6.794
14704WAT     H144354   0.494   4.309   6.783
14704WAT     H244355   0.654   4.342   6.797
14705WAT      O44356   7.655   6.692   4.009
14705WAT     H144357   7.573   6.721   3.959
14705WAT     H244358   7.733   6.748   3.979
14706WAT      O44359   0.655   1.566   4.108
14706WAT     H144360   0.720   1.643   4.109
14706WAT     H244361   0.585   1.581   4.178
14707WAT      O44362   0.631   0.459   7.510
14707WAT     H144363   0.551   0.508   7.476
14707WAT     H244364   0.624   0.450   7.610
14708WAT      O44365   1.383   3.078   9.752
14708WAT     H144366   1.299   3.064   9.805
14708WAT     H244367   1.361   3.079   9.655
14709WAT      O44368   1.322   6.332   0.728
14709WAT     H144369   1.291   6.414   0.776
14709WAT     H244370   1.243   6.272   0.712
14710WAT      O44371   0.056   8.330   5.700
14710WAT     H144372  -0.010   8.399   5.671
14710WAT     H244373   0.032   8.297   5.791
14711WAT      O44374   8.134   5.479   0.709
14711WAT     H144375   8.120   5.570   0.749
14711WAT     H244376   8.213   5.435   0.753
14712WAT      O44377   7.670   3.380   5.784
14712WAT     H144378   7.639   3.293   5.822
14712WAT     H244379   7.753   3.364   5.729
14713WAT      O44380   1.153   7.725   6.839
14713WAT     H144381   1.125   7.820   6.851
14713WAT     H244382   1.079   7.665   6.867
14714WAT      O44383   4.945   7.946   0.838
14714WAT     H144384   4.939   7.964   0.740
14714WAT     H244385   5.041   7.947   0.866
14715WAT      O44386   3.549   7.080   1.402
14715WAT     H144387   3.521   7.000   1.349
14715WAT     H244388   3.510   7.075   1.494
14716WAT      O44389   7.056   5.879   9.421
14716WAT     H144390   7.061   5.826   9.506
14716WAT     H244391   7.036   5.817   9.345
14717WAT      O44392   2.773   5.293   0.230
14717WAT     H144393   2.852   5.237   0.207
14717WAT     H244394   2.709   5.294   0.153
14718WAT      O44395   7.690   1.852   3.402
14718WAT     H144396   7.704   1.847   3.303
14718WAT     H244397   7.601   1.893   3.420
14719WAT      O44398   5.704   5.036   3.514
14719WAT     H144399   5.623   4.981   3.496
14719WAT     H244400   5.784   4.993   3.474
14720WAT      O44401   3.219   5.999   3.770
14720WAT     H144402   3.309   6.028   3.738
14720WAT     H244403   3.158   6.077   3.772
14721WAT      O44404   3.776   8.074   3.155
14721WAT     H144405   3.763   7.980   3.189
14721WAT     H244406   3.717   8.088   3.075
14722WAT      O44407   5.124   3.295   6.542
14722WAT     H144408   5.180   3.377   6.530
14722WAT     H244409   5.106   3.282   6.640
14723WAT      O44410   6.162   3.312   2.181
14723WAT     H144411   6.136   3.368   2.102
14723WAT     H244412   6.126   3.354   2.264
14724WAT      O44413   2.324   2.616   9.302
14724WAT     H144414   2.253   2.660   9.247
14724WAT     H244415   2.408   2.671   9.297
14725WAT      O44416   0.898   4.561   7.034
14725WAT     H144417   0.908   4.466   7.063
14725WAT     H244418   0.802   4.579   7.013
14726WAT      O44419   1.922   9.723   2.005
14726WAT     H144420   2.002   9.779   2.027
14726WAT     H244421   1.947   9.655   1.936
14727WAT      O44422   7.779   1.901   0.725
14727WAT     H144423   7.712   1.842   0.679
14727WAT     H244424   7.825   1.958   0.657
14728WAT      O44425   8.625   5.700   7.375
14728WAT     H144426   8.632   5.798   7.357
14728WAT     H244427   8.529   5.675   7.387
14729WAT      O44428   1.403   0.673   3.420
14729WAT     H144429   1.377   0.744   3.354
14729WAT     H244430   1.375   0.701   3.512
14730WAT      O44431   0.377   6.157   8.001
14730WAT     H144432   0.292   6.117   7.968
14730WAT     H244433   0.419   6.096   8.069
14731WAT      O44434   5.920   1.414   7.815
14731WAT     H144435   5.895   1.317   7.818
14731WAT     H244436   6.013   1.422   7.778
14732WAT      O44437   5.666   8.078   8.952
14732WAT     H144438   5.669   8.171   8.990
14732WAT     H244439   5.692   8.081   8.856
14733WAT      O44440   0.269   0.954   9.556
14733WAT     H144441   0.227   1.001   9.634
14733WAT     H244442   0.340   1.012   9.517
14734WAT      O44443   9.361   2.380   9.360
14734WAT     H144444   9.454   2.363   9.394
14734WAT     H244445   9.334   2.473   9.384
14735WAT      O44446   1.321   2.243   1.308
14735WAT     H144447   1.245   2.290   1.353
14735WAT     H244448   1.322   2.147   1.334
14736WAT      O44449   0.317   1.014   5.618
14736WAT     H144450   0.314   1.078   5.541
14736WAT     H244451   0.282   0.925   5.588
14737WAT      O44452   6.888   8.224   5.867
14737WAT     H144453   6.839   8.139   5.846
14737WAT     H244454   6.985   8.203   5.881
14738WAT      O44455   3.409   8.027   9.267
14738WAT     H144456   3.489   8.045   9.325
14738WAT     H244457   3.349   8.107   9.267
14739WAT      O44458   9.677   0.336   0.717
14739WAT     H144459   9.629   0.307   0.634
14739WAT     H244460   9.712   0.255   0.765
14740WAT      O44461   1.045   6.968   0.629
14740WAT     H144462   0.968   6.954   0.692
14740WAT     H244463   1.128   6.988   0.681
14741WAT      O44464   5.369   6.043   1.583
14741WAT     H144465   5.361   6.015   1.487
14741WAT     H244466   5.395   5.965   1.639
14742WAT      O44467   3.079   3.136   7.291
14742WAT     H144468   3.025   3.074   7.233
14742WAT     H244469   3.084   3.100   7.384
14743WAT      O44470   7.103   9.610   5.674
14743WAT     H144471   7.128   9.695   5.628
14743WAT     H244472   7.095   9.537   5.606
14744WAT      O44473   1.273   1.644   1.033
14744WAT     H144474   1.352   1.617   1.088
14744WAT     H244475   1.305   1.688   0.949
14745WAT      O44476   3.777   8.753   3.792
14745WAT     H144477   3.695   8.698   3.779
14745WAT     H244478   3.826   8.761   3.705
14746WAT      O44479   8.276   8.346   2.402
14746WAT     H144480   8.232   8.433   2.380
14746WAT     H244481   8.215   8.271   2.378
14747WAT      O44482   4.165   2.507   3.596
14747WAT     H144483   4.159   2.487   3.499
14747WAT     H244484   4.084   2.472   3.643
14748WAT      O44485   2.748   1.065   1.839
14748WAT     H144486   2.752   1.164   1.853
14748WAT     H244487   2.753   1.046   1.741
14749WAT      O44488   7.939   3.405   4.845
14749WAT     H144489   7.986   3.491   4.827
14749WAT     H244490   8.005   3.337   4.879
14750WAT      O44491   3.183   0.591   6.071
14750WAT     H144492   3.223   0.680   6.049
14750WAT     H244493   3.172   0.537   5.988
14751WAT      O44494   5.576   4.380   7.952
14751WAT     H144495   5.646   4.380   7.881
14751WAT     H244496   5.614   4.345   8.037
14752WAT      O44497   0.609   1.781   7.203
14752WAT     H144498   0.669   1.825   7.270
14752WAT     H244499   0.661   1.758   7.121
14753WAT      O44500   7.042   8.694   6.392
14753WAT     H144501   7.081   8.685   6.484
14753WAT     H244502   6.968   8.628   6.381
14754WAT      O44503   1.930   1.496   2.914
14754WAT     H144504   1.838   1.527   2.939
14754WAT     H244505   1.998   1.547   2.967
14755WAT      O44506   1.511   3.017   2.922
14755WAT     H144507   1.448   2.971   2.859
14755WAT     H244508   1.605   2.998   2.893
14756WAT      O44509   5.225   5.118   7.912
14756WAT     H144510   5.183   5.030   7.888
14756WAT     H244511   5.238   5.123   8.011
14757WAT      O44512   1.983   5.766   9.115
14757WAT     H144513   1.943   5.679   9.087
14757WAT     H244514   1.941   5.841   9.063
14758WAT      O44515   4.598   1.480   8.418
14758WAT     H144516   4.660   1.539   8.470
14758WAT     H244517   4.564   1.406   8.476
14759WAT      O44518   6.488   1.984   1.962
14759WAT     H144519   6.574   1.941   1.935
14759WAT     H244520   6.474   1.971   2.060
14760WAT      O44521   0.648   9.681   3.668
14760WAT     H144522   0.639   9.716   3.574
14760WAT     H244523   0.598   9.742   3.730
14761WAT      O44524   7.929   8.788   4.033
14761WAT     H144525   8.001   8.793   3.965
14761WAT     H244526   7.933   8.699   4.080
14762WAT      O44527   8.024   1.044   2.455
14762WAT     H144528   7.967   1.056   2.373
14762WAT     H244529   8.109   1.094   2.443
14763WAT      O44530   9.526   4.774   2.374
14763WAT     H144531   9.552   4.808   2.464
14763WAT     H244532   9.607   4.773   2.315
14764WAT      O44533   1.504   7.913   9.708
14764WAT     H144534   1.579   7.856   9.675
14764WAT     H244535   1.417   7.875   9.679
14765WAT      O44536   2.199   3.261   3.380
14765WAT     H144537   2.211   3.330   3.451
14765WAT     H244538   2.276   3.198   3.381
14766WAT      O44539   7.445   2.731   2.198
14766WAT     H144540   7.405   2.794   2.131
14766WAT     H244541   7.371   2.690   2.252
14767WAT      O44542   7.156   5.764   2.186
14767WAT     H144543   7.115   5.816   2.111
14767WAT     H244544   7.087   5.750   2.258
14768WAT      O44545   3.027   8.514   0.251
14768WAT     H144546   3.022   8.593   0.189
14768WAT     H244547   3.118   8.510   0.292
14769WAT      O44548   8.748   8.289   3.275
14769WAT     H144549   8.748   8.370   3.333
14769WAT     H244550   8.815   8.223   3.309
14770WAT      O44551   8.101   9.163   8.879
14770WAT     H144552   8.059   9.082   8.837
14770WAT     H244553   8.034   9.237   8.882
14771WAT      O44554   3.793   1.607   3.630
14771WAT     H144555   3.867   1.645   3.685
14771WAT     H244556   3.826   1.589   3.537
14772WAT      O44557   8.059   1.460   5.015
14772WAT     H144558   7.977   1.445   4.960
14772WAT     H244559   8.045   1.423   5.107
14773WAT      O44560   2.626   2.345   4.677
14773WAT     H144561   2.716   2.377   4.648
14773WAT     H244562   2.556   2.409   4.645
14774WAT      O44563   9.297   4.947   7.439
14774WAT     H144564   9.247   4.890   7.505
14774WAT     H244565   9.330   5.029   7.484
14775WAT      O44566   4.884   0.040   6.287
14775WAT     H144567   4.936   0.072   6.207
14775WAT     H244568   4.790   0.020   6.259
14776WAT      O44569   5.261   1.305   2.632
14776WAT     H144570   5.309   1.364   2.696
14776WAT     H244571   5.238   1.219   2.676
14777WAT      O44572   4.026   2.836   0.551
14777WAT     H144573   3.968   2.794   0.621
14777WAT     H244574   4.118   2.847   0.587
14778WAT      O44575   0.700   7.730   5.506
14778WAT     H144576   0.638   7.656   5.532
14778WAT     H244577   0.660   7.782   5.431
14779WAT      O44578   4.593   5.918   3.291
14779WAT     H144579   4.650   5.939   3.211
14779WAT     H244580   4.516   5.982   3.293
14780WAT      O44581   8.821   5.394   1.498
14780WAT     H144582   8.781   5.354   1.416
14780WAT     H244583   8.914   5.427   1.477
14781WAT      O44584   9.348   8.646   1.886
14781WAT     H144585   9.253   8.615   1.878
14781WAT     H244586   9.366   8.715   1.815
14782WAT      O44587   8.330   1.061   1.457
14782WAT     H144588   8.286   1.128   1.397
14782WAT     H244589   8.405   1.106   1.508
14783WAT      O44590   6.321   8.918   9.046
14783WAT     H144591   6.286   8.838   9.094
14783WAT     H244592   6.244   8.979   9.022
14784WAT      O44593   9.082   3.000   2.958
14784WAT     H144594   9.146   3.055   3.012
14784WAT     H244595   9.081   3.035   2.864
14785WAT      O44596   1.646   7.673   9.733
14785WAT     H144597   1.677   7.680   9.828
14785WAT     H244598   1.603   7.583   9.718
14786WAT      O44599   1.452   7.505   8.089
14786WAT     H144600   1.422   7.599   8.102
14786WAT     H244601   1.424   7.473   7.998
14787WAT      O44602   0.506   1.045   9.444
14787WAT     H144603   0.560   1.107   9.388
14787WAT     H244604   0.541   1.045   9.538
14788WAT      O44605   1.003   0.418   0.841
14788WAT     H144606   1.080   0.448   0.785
14788WAT     H244607   0.995   0.318   0.836
14789WAT      O44608   7.124   5.288   1.955
14789WAT     H144609   7.029   5.264   1.936
14789WAT     H244610   7.172   5.306   1.869
14790WAT      O44611   8.270   6.181   9.421
14790WAT     H144612   8.291   6.185   9.518
14790WAT     H244613   8.309   6.260   9.374
14791WAT      O44614   9.244   2.435   5.906
14791WAT     H144615   9.203   2.482   5.984
14791WAT     H244616   9.260   2.339   5.928
14792WAT      O44617   6.289   3.410   8.982
14792WAT     H144618   6.318   3.335   9.042
14792WAT     H244619   6.293   3.381   8.887
14793WAT      O44620   5.935   3.638   4.770
14793WAT     H144621   5.990   3.657   4.851
14793WAT     H244622   5.994   3.606   4.696
14794WAT      O44623   1.800   2.241   9.585
14794WAT     H144624   1.746   2.158   9.570
14794WAT     H244625   1.753   2.301   9.650
14795WAT      O44626   1.201   9.601   1.198
14795WAT     H144627   1.119   9.600   1.141
14795WAT     H244628   1.196   9.526   1.265
14796WAT      O44629   3.368   2.508   5.615
14796WAT     H144630   3.389   2.451   5.536
14796WAT     H244631   3.304   2.580   5.587
14797WAT      O44632   3.995   4.650   2.441
14797WAT     H144633   3.981   4.714   2.516
14797WAT     H244634   3.915   4.590   2.434
14798WAT      O44635   9.262   7.099   3.453
14798WAT     H144636   9.339   7.155   3.422
14798WAT     H244637   9.184   7.115   3.392
14799WAT      O44638   1.254   3.802   1.527
14799WAT     H144639   1.182   3.773   1.465
14799WAT     H244640   1.226   3.886   1.574
14800WAT      O44641   4.236   3.045   0.178
14800WAT     H144642   4.173   3.028   0.102
14800WAT     H244643   4.259   3.143   0.180
14801WAT      O44644   6.023   2.679   6.889
14801WAT     H144645   5.952   2.748   6.892
14801WAT     H244646   5.985   2.593   6.855
14802WAT      O44647   2.010   1.967   1.842
14802WAT     H144648   1.916   1.942   1.865
14802WAT     H244649   2.039   1.917   1.760
14803WAT      O44650   6.349   5.944   8.280
14803WAT     H144651   6.318   5.982   8.193
14803WAT     H244652   6.444   5.972   8.296
14804WAT      O44653   4.799   1.902   3.609
14804WAT     H144654   4.809   1.855   3.696
14804WAT     H244655   4.787   1.835   3.536
14805WAT      O44656   8.217   4.690   7.956
14805WAT     H144657   8.268   4.774   7.978
14805WAT     H244658   8.264   4.641   7.883
14806WAT      O44659   9.350   5.843   7.891
14806WAT     H144660   9.445   5.869   7.873
14806WAT     H244661   9.322   5.881   7.979
14807WAT      O44662   2.861   8.373   7.461
14807WAT     H144663   2.902   8.394   7.550
14807WAT     H244664   2.806   8.451   7.431
14808WAT      O44665   6.648   1.324   7.254
14808WAT     H144666   6.605   1.413   7.270
14808WAT     H244667   6.747   1.335   7.249
14809WAT      O44668   7.310   3.815   1.495
14809WAT     H144669   7.401   3.842   1.462
14809WAT     H244670   7.245   3.816   1.418
14810WAT      O44671   8.881   4.683   5.943
14810WAT     H144672   8.895   4.652   5.849
14810WAT     H244673   8.922   4.773   5.955
14811WAT      O44674   5.404   8.898   1.366
14811WAT     H144675   5.468   8.919   1.292
14811WAT     H244676   5.355   8.981   1.391
14812WAT      O44677   1.123   4.428   3.366
14812WAT     H144678   1.068   4.440   3.449
14812WAT     H244679   1.117   4.511   3.311
14813WAT      O44680   1.280   6.878   5.247
14813WAT     H144681   1.246   6.790   5.214
14813WAT     H244682   1.377   6.869   5.270
14814WAT      O44683   9.843   7.522   3.791
14814WAT     H144684   9.770   7.483   3.846
14814WAT     H244685   9.841   7.484   3.699
14815WAT      O44686   8.512   7.210   3.398
14815WAT     H144687   8.582   7.207   3.468
14815WAT     H244688   8.541   7.270   3.324
14816WAT      O44689   0.409   3.597   7.063
14816WAT     H144690   0.373   3.627   7.151
14816WAT     H244691   0.342   3.538   7.018
14817WAT      O44692   9.716   6.274   4.931
14817WAT     H144693   9.651   6.344   4.901
14817WAT     H244694   9.697   6.188   4.885
14818WAT      O44695   5.641   2.830   6.823
14818WAT     H144696   5.567   2.771   6.853
14818WAT     H244697   5.710   2.838   6.895
14819WAT      O44698   3.510   3.333   7.754
14819WAT     H144699   3.608   3.312   7.751
14819WAT     H244700   3.459   3.252   7.782
14820WAT      O44701   6.288   1.591   9.361
14820WAT     H144702   6.339   1.505   9.370
14820WAT     H244703   6.336   1.663   9.411
14821WAT      O44704   8.890   5.267   5.628
14821WAT     H144705   8.848   5.289   5.716
14821WAT     H244706   8.829   5.296   5.554
14822WAT      O44707   3.655   4.451   1.875
14822WAT     H144708   3.717   4.396   1.820
14822WAT     H244709   3.561   4.421   1.860
14823WAT      O44710   6.685   5.482   3.873
14823WAT     H144711   6.735   5.566   3.895
14823WAT     H244712   6.645   5.490   3.782
14824WAT      O44713   1.967   8.815   6.972
14824WAT     H144714   1.963   8.793   7.070
14824WAT     H244715   1.957   8.914   6.960
14825WAT      O44716   0.072   3.151   1.703
14825WAT     H144717  -0.019   3.110   1.695
14825WAT     H244718   0.075   3.207   1.786
14826WAT      O44719   8.158   1.401   1.505
14826WAT     H144720   8.145   1.320   1.448
14826WAT     H244721   8.143   1.484   1.450
14827WAT      O44722   0.452   8.673   8.429
14827WAT     H144723   0.418   8.767   8.437
14827WAT     H244724   0.550   8.671   8.451
14828WAT      O44725   2.232   1.259   1.058
14828WAT     H144726   2.158   1.201   1.024
14828WAT     H244727   2.291   1.205   1.120
14829WAT      O44728   3.128   3.376   3.881
14829WAT     H144729   3.111   3.437   3.804
14829WAT     H244730   3.049   3.377   3.943
14830WAT      O44731   2.062   1.692   7.347
14830WAT     H144732   2.102   1.783   7.336
14830WAT     H244733   2.131   1.622   7.327
14831WAT      O44734   7.934   7.586   0.891
14831WAT     H144735   7.993   7.660   0.924
14831WAT     H244736   7.900   7.608   0.800
14832WAT      O44737   3.609   4.040   6.151
14832WAT     H144738   3.610   4.133   6.190
14832WAT     H244739   3.531   3.990   6.187
14833WAT      O44740   6.971   9.522   3.422
14833WAT     H144741   6.879   9.496   3.393
14833WAT     H244742   7.015   9.443   3.466
14834WAT      O44743   8.247   5.556   3.436
14834WAT     H144744   8.335   5.541   3.482
14834WAT     H244745   8.190   5.475   3.447
14835WAT      O44746   1.786   1.229   1.553
14835WAT     H144747   1.852   1.288   1.598
14835WAT     H244748   1.767   1.149   1.610
14836WAT      O44749   8.268   6.520   6.789
14836WAT     H144750   8.175   6.483   6.779
14836WAT     H244751   8.334   6.452   6.756
14837WAT      O44752   1.291   8.668   9.657
14837WAT     H144753   1.310   8.585   9.708
14837WAT     H244754   1.198   8.698   9.676
14838WAT      O44755   2.858   8.042   3.983
14838WAT     H144756   2.794   8.119   3.988
14838WAT     H244757   2.904   8.031   4.071
14839WAT      O44758   0.811   0.418   3.947
14839WAT     H144759   0.862   0.338   3.979
14839WAT     H244760   0.861   0.462   3.873
14840WAT      O44761   7.250   4.240   1.695
14840WAT     H144762   7.205   4.151   1.692
14840WAT     H244763   7.181   4.312   1.702
14841WAT      O44764   3.672   3.415   5.563
14841WAT     H144765   3.596   3.414   5.498
14841WAT     H244766   3.637   3.435   5.654
14842WAT      O44767   4.693   2.445   5.367
14842WAT     H144768   4.699   2.350   5.336
14842WAT     H244769   4.679   2.447   5.466
14843WAT      O44770   9.723   2.082   0.570
14843WAT     H144771   9.713   2.107   0.473
14843WAT     H244772   9.633   2.076   0.613
14844WAT      O44773   3.614   9.459   7.823
14844WAT     H144774   3.646   9.420   7.737
14844WAT     H244775   3.627   9.558   7.822
14845WAT      O44776   3.861   3.258   8.225
14845WAT     H144777   3.924   3.331   8.197
14845WAT     H244778   3.836   3.271   8.320
14846WAT      O44779   9.085   1.116   8.503
14846WAT     H144780   9.115   1.200   8.548
14846WAT     H244781   9.085   1.040   8.568
14847WAT      O44782   7.453   5.027   9.122
14847WAT     H144783   7.428   5.046   9.217
14847WAT     H244784   7.552   5.019   9.115
14848WAT      O44785   6.709   5.164   6.000
14848WAT     H144786   6.737   5.255   6.031
14848WAT     H244787   6.625   5.137   6.048
14849WAT      O44788   0.646   6.892   0.600
14849WAT     H144789   0.628   6.810   0.546
14849WAT     H244790   0.575   6.902   0.669
14850WAT      O44791   8.107   4.117   9.175
14850WAT     H144792   8.168   4.116   9.254
14850WAT     H244793   8.037   4.188   9.188
14851WAT      O44794   8.389   7.388   0.217
14851WAT     H144795   8.383   7.293   0.248
14851WAT     H244796   8.352   7.449   0.288
14852WAT      O44797   4.674   3.442   0.515
14852WAT     H144798   4.702   3.363   0.461
14852WAT     H244799   4.647   3.411   0.607
14853WAT      O44800   6.525   3.172   3.003
14853WAT     H144801   6.526   3.210   2.911
14853WAT     H244802   6.452   3.215   3.056
14854WAT      O44803   5.034   1.885   5.202
14854WAT     H144804   5.126   1.890   5.165
14854WAT     H244805   4.982   1.966   5.174
14855WAT      O44806   7.258   7.768   7.361
14855WAT     H144807   7.286   7.711   7.284
14855WAT     H244808   7.338   7.801   7.410
14856WAT      O44809   9.782   6.600   3.590
14856WAT     H144810   9.845   6.578   3.516
14856WAT     H244811   9.777   6.524   3.654
14857WAT      O44812   6.650   5.436   1.110
14857WAT     H144813   6.714   5.362   1.129
14857WAT     H244814   6.641   5.495   1.190
14858WAT      O44815   2.742   6.158   9.812
14858WAT     H144816   2.772   6.062   9.806
14858WAT     H244817   2.717   6.190   9.721
14859WAT      O44818   8.029   9.360   5.062
14859WAT     H144819   8.078   9.413   5.131
14859WAT     H244820   8.014   9.267   5.096
14860WAT      O44821   8.309   1.766   4.472
14860WAT     H144822   8.379   1.695   4.477
14860WAT     H244823   8.219   1.725   4.483
14861WAT      O44824   0.225   6.669   2.348
14861WAT     H144825   0.279   6.753   2.345
14861WAT     H244826   0.219   6.636   2.442
14862WAT      O44827   7.745   6.507   3.691
14862WAT     H144828   7.814   6.488   3.620
14862WAT     H244829   7.789   6.505   3.781
14863WAT      O44830   1.739   0.445   1.627
14863WAT     H144831   1.725   0.519   1.561
14863WAT     H244832   1.825   0.398   1.606
14864WAT      O44833   9.147   9.435   6.342
14864WAT     H144834   9.245   9.415   6.345
14864WAT     H244835   9.103   9.375   6.276
14865WAT      O44836   8.975   5.079   1.381
14865WAT     H144837   8.967   5.130   1.296
14865WAT     H244838   9.052   5.016   1.374
14866WAT      O44839   9.154   8.859   2.195
14866WAT     H144840   9.080   8.884   2.132
14866WAT     H244841   9.242   8.875   2.152
14867WAT      O44842   5.947   5.293   9.361
14867WAT     H144843   5.874   5.256   9.305
14867WAT     H244844   5.935   5.263   9.456
14868WAT      O44845   9.746   0.513   7.499
14868WAT     H144846   9.741   0.507   7.399
14868WAT     H244847   9.658   0.484   7.538
14869WAT      O44848   5.879   0.505   7.710
14869WAT     H144849   5.803   0.547   7.759
14869WAT     H244850   5.851   0.415   7.676
14870WAT      O44851   8.102   5.979   9.328
14870WAT     H144852   8.143   6.066   9.354
14870WAT     H244853   8.120   5.911   9.399
14871WAT      O44854   6.351   5.784   2.701
14871WAT     H144855   6.257   5.760   2.724
14871WAT     H244856   6.414   5.720   2.744
14872WAT      O44857   1.640   0.727   5.855
14872WAT     H144858   1.676   0.665   5.786
14872WAT     H244859   1.691   0.715   5.940
14873WAT      O44860   6.813   1.886   9.192
14873WAT     H144861   6.770   1.874   9.103
14873WAT     H244862   6.847   1.980   9.201
14874WAT      O44863   5.770   6.752   6.806
14874WAT     H144864   5.675   6.777   6.787
14874WAT     H244865   5.828   6.786   6.732
14875WAT      O44866   9.594   6.274   3.234
14875WAT     H144867   9.646   6.249   3.152
14875WAT     H244868   9.580   6.373   3.235
14876WAT      O44869   5.749   2.663   4.543
14876WAT     H144870   5.754   2.762   4.540
14876WAT     H244871   5.817   2.623   4.481
14877WAT      O44872   8.845   1.443   6.878
14877WAT     H144873   8.858   1.406   6.786
14877WAT     H244874   8.833   1.542   6.873
14878WAT      O44875   8.994   4.767   3.680
14878WAT     H144876   8.976   4.792   3.775
14878WAT     H244877   8.919   4.797   3.622
14879WAT      O44878   8.780   3.904   7.141
14879WAT     H144879   8.824   3.994   7.144
14879WAT     H244880   8.843   3.838   7.100
14880WAT      O44881   5.544   1.195   5.494
14880WAT     H144882   5.491   1.227   5.573
14880WAT     H244883   5.620   1.257   5.477
14881WAT      O44884   7.378   5.091   6.575
14881WAT     H144885   7.356   5.161   6.507
14881WAT     H244886   7.338   5.117   6.663
14882WAT      O44887   6.187   5.473   0.824
14882WAT     H144888   6.113   5.497   0.887
14882WAT     H244889   6.275   5.487   0.869
14883WAT      O44890   1.014   6.512   4.637
14883WAT     H144891   0.955   6.592   4.645
14883WAT     H244892   0.958   6.429   4.642
14884WAT      O44893   3.252   3.401   2.438
14884WAT     H144894   3.167   3.363   2.401
14884WAT     H244895   3.242   3.418   2.536
14885WAT      O44896   5.541   5.465   7.889
14885WAT     H144897   5.547   5.379   7.839
14885WAT     H244898   5.521   5.540   7.825
14886WAT      O44899   8.158   6.082   4.250
14886WAT     H144900   8.145   5.991   4.292
14886WAT     H244901   8.070   6.117   4.220
14887WAT      O44902   4.765   5.293   8.113
14887WAT     H144903   4.823   5.314   8.034
14887WAT     H244904   4.737   5.197   8.109
14888WAT      O44905   0.989   2.408   4.763
14888WAT     H144906   0.961   2.322   4.806
14888WAT     H244907   1.081   2.398   4.726
14889WAT      O44908   0.695   5.785   6.566
14889WAT     H144909   0.671   5.866   6.619
14889WAT     H244910   0.683   5.704   6.622
14890WAT      O44911   4.896   7.363   0.744
14890WAT     H144912   4.890   7.461   0.764
14890WAT     H244913   4.804   7.328   0.723
14891WAT      O44914   2.571   5.852   6.548
14891WAT     H144915   2.480   5.871   6.512
14891WAT     H244916   2.621   5.794   6.484
14892WAT      O44917   2.333   2.012   8.883
14892WAT     H144918   2.368   2.048   8.797
14892WAT     H244919   2.233   2.014   8.882
14893WAT      O44920   6.412   5.689   9.650
14893WAT     H144921   6.445   5.655   9.562
14893WAT     H244922   6.473   5.761   9.683
14894WAT      O44923   3.242   8.192   4.754
14894WAT     H144924   3.250   8.102   4.795
14894WAT     H244925   3.244   8.262   4.826
14895WAT      O44926   4.140   6.859   7.008
14895WAT     H144927   4.172   6.951   6.986
14895WAT     H244928   4.184   6.793   6.947
14896WAT      O44929   8.816   0.854   3.050
14896WAT     H144930   8.894   0.915   3.062
14896WAT     H244931   8.731   0.906   3.055
14897WAT      O44932   1.086   9.673   4.642
14897WAT     H144933   1.119   9.750   4.696
14897WAT     H244934   1.084   9.590   4.698
14898WAT      O44935   2.687   7.361   2.707
14898WAT     H144936   2.681   7.411   2.794
14898WAT     H244937   2.767   7.393   2.656
14899WAT      O44938   4.543   1.742   4.435
14899WAT     H144939   4.540   1.650   4.396
14899WAT     H244940   4.454   1.787   4.423
14900WAT      O44941   2.805   4.986   6.941
14900WAT     H144942   2.792   4.887   6.949
14900WAT     H244943   2.793   5.014   6.846
14901WAT      O44944   9.005   2.101   8.351
14901WAT     H144945   9.062   2.081   8.431
14901WAT     H244946   8.912   2.067   8.368
14902WAT      O44947   8.267   4.961   1.812
14902WAT     H144948   8.273   4.863   1.827
14902WAT     H244949   8.338   4.989   1.747
14903WAT      O44950   8.296   1.926   3.035
14903WAT     H144951   8.364   1.970   3.093
14903WAT     H244952   8.220   1.989   3.020
14904WAT      O44953   9.672   0.136   4.026
14904WAT     H144954   9.703   0.218   3.977
14904WAT     H244955   9.623   0.076   3.962
14905WAT      O44956   5.768   4.741   0.512
14905WAT     H144957   5.678   4.699   0.497
14905WAT     H244958   5.831   4.672   0.548
14906WAT      O44959   5.077   2.466   1.032
14906WAT     H144960   5.111   2.430   1.119
14906WAT     H244961   5.015   2.399   0.990
14907WAT      O44962   4.062   2.755   7.476
14907WAT     H144963   3.999   2.806   7.418
14907WAT     H244964   4.013   2.680   7.521
14908WAT      O44965   1.075   1.406   4.778
14908WAT     H144966   1.095   1.441   4.686
14908WAT     H244967   1.050   1.310   4.773
14909WAT      O44968   1.946   0.121   9.138
14909WAT     H144969   1.881   0.051   9.108
14909WAT     H244970   1.941   0.132   9.237
14910WAT      O44971   9.031   7.913   6.495
14910WAT     H144972   9.018   8.001   6.449
14910WAT     H244973   9.083   7.852   6.435
14911WAT      O44974   5.128   0.186   1.691
14911WAT     H144975   5.189   0.249   1.644
14911WAT     H244976   5.164   0.093   1.686
14912WAT      O44977   0.585   6.097   4.644
14912WAT     H144978   0.581   6.105   4.544
14912WAT     H244979   0.614   6.185   4.683
14913WAT      O44980   1.834   7.566   4.462
14913WAT     H144981   1.799   7.519   4.381
14913WAT     H244982   1.931   7.585   4.451
14914WAT      O44983   8.299   1.934   5.141
14914WAT     H144984   8.301   1.848   5.089
14914WAT     H244985   8.262   1.917   5.232
14915WAT      O44986   8.216   0.163   0.403
14915WAT     H144987   8.302   0.159   0.351
14915WAT     H244988   8.237   0.171   0.501
14916WAT      O44989   4.172   8.671   1.763
14916WAT     H144990   4.083   8.649   1.803
14916WAT     H244991   4.228   8.588   1.760
14917WAT      O44992   2.194   1.398   3.093
14917WAT     H144993   2.186   1.357   3.001
14917WAT     H244994   2.128   1.473   3.102
14918WAT      O44995   1.945   4.175   5.694
14918WAT     H144996   1.897   4.091   5.717
14918WAT     H244997   1.973   4.174   5.598
14919WAT      O44998   6.904   8.291   8.968
14919WAT     H144999   6.817   8.249   8.993
14919WAT     H245000   6.942   8.338   9.048
14920WAT      O45001   2.551   4.095   5.149
14920WAT     H145002   2.522   4.041   5.228
14920WAT     H245003   2.618   4.163   5.178
14921WAT      O45004   1.574   8.425   9.320
14921WAT     H145005   1.549   8.331   9.345
14921WAT     H245006   1.652   8.454   9.375
14922WAT      O45007   7.747   0.698   3.428
14922WAT     H145008   7.755   0.798   3.429
14922WAT     H245009   7.839   0.657   3.431
14923WAT      O45010   5.733   5.853   9.538
14923WAT     H145011   5.830   5.855   9.559
14923WAT     H245012   5.714   5.778   9.474
14924WAT      O45013   3.975   7.174   6.319
14924WAT     H145014   4.043   7.166   6.391
14924WAT     H245015   3.897   7.115   6.341
14925WAT      O45016   5.381   1.861   5.459
14925WAT     H145017   5.345   1.894   5.372
14925WAT     H245018   5.389   1.938   5.523
14926WAT      O45019   0.616   6.639   7.470
14926WAT     H145020   0.619   6.588   7.556
14926WAT     H245021   0.570   6.584   7.401
14927WAT      O45022   3.966   7.372   5.694
14927WAT     H145023   4.023   7.360   5.775
14927WAT     H245024   4.004   7.318   5.619
14928WAT      O45025   8.642   0.281   9.749
14928WAT     H145026   8.721   0.235   9.791
14928WAT     H245027   8.603   0.345   9.814
14929WAT      O45028   1.197   0.240   8.494
14929WAT     H145029   1.259   0.280   8.427
14929WAT     H245030   1.157   0.156   8.457
14930WAT      O45031   5.317   4.667   8.612
14930WAT     H145032   5.291   4.605   8.538
14930WAT     H245033   5.241   4.677   8.676
14931WAT      O45034   6.229   3.613   0.442
14931WAT     H145035   6.305   3.625   0.505
14931WAT     H245036   6.247   3.536   0.381
14932WAT      O45037   0.915   3.387   1.061
14932WAT     H145038   0.941   3.410   0.967
14932WAT     H245039   0.998   3.377   1.117
14933WAT      O45040   6.139   2.089   5.556
14933WAT     H145041   6.188   2.005   5.578
14933WAT     H245042   6.194   2.144   5.493
14934WAT      O45043   9.683   1.105   8.110
14934WAT     H145044   9.762   1.054   8.145
14934WAT     H245045   9.614   1.041   8.077
14935WAT      O45046   7.240   8.254   8.691
14935WAT     H145047   7.274   8.343   8.722
14935WAT     H245048   7.305   8.214   8.627
14936WAT      O45049   3.671   8.811   3.206
14936WAT     H145050   3.733   8.864   3.264
14936WAT     H245051   3.602   8.871   3.167
14937WAT      O45052   6.652   3.213   2.385
14937WAT     H145053   6.695   3.259   2.464
14937WAT     H245054   6.652   3.115   2.400
14938WAT      O45055   8.704   0.621   7.152
14938WAT     H145056   8.626   0.630   7.214
14938WAT     H245057   8.754   0.708   7.149
14939WAT      O45058   5.374   5.603   4.040
14939WAT     H145059   5.345   5.544   4.115
14939WAT     H245060   5.472   5.590   4.023
14940WAT      O45061   4.535   2.284   7.048
14940WAT     H145062   4.546   2.247   6.956
14940WAT     H245063   4.438   2.283   7.073
14941WAT      O45064   3.989   7.769   4.787
14941WAT     H145065   4.015   7.769   4.691
14941WAT     H245066   4.072   7.779   4.843
14942WAT      O45067   2.018   5.654   4.474
14942WAT     H145068   2.105   5.615   4.502
14942WAT     H245069   1.976   5.595   4.404
14943WAT      O45070   8.631   4.511   2.561
14943WAT     H145071   8.704   4.552   2.505
14943WAT     H245072   8.543   4.545   2.531
14944WAT      O45073   6.047   7.792   0.666
14944WAT     H145074   5.967   7.737   0.645
14944WAT     H245075   6.056   7.802   0.765
14945WAT      O45076   6.372   0.660   0.893
14945WAT     H145077   6.322   0.574   0.893
14945WAT     H245078   6.442   0.659   0.965
14946WAT      O45079   5.859   8.236   6.179
14946WAT     H145080   5.765   8.244   6.214
14946WAT     H245081   5.921   8.288   6.237
14947WAT      O45082   4.946   2.930   0.948
14947WAT     H145083   4.863   2.881   0.976
14947WAT     H245084   5.009   2.867   0.903
14948WAT      O45085   9.041   5.223   1.154
14948WAT     H145086   9.141   5.221   1.157
14948WAT     H245087   9.011   5.224   1.059
14949WAT      O45088   6.403   9.660   9.286
14949WAT     H145089   6.434   9.603   9.210
14949WAT     H245090   6.477   9.722   9.313
14950WAT      O45091   3.919   0.684   0.942
14950WAT     H145092   3.886   0.621   0.872
14950WAT     H245093   3.901   0.646   1.032
14951WAT      O45094   2.659   1.253   5.391
14951WAT     H145095   2.728   1.212   5.332
14951WAT     H245096   2.635   1.344   5.356
14952WAT      O45097   3.178   7.267   3.254
14952WAT     H145098   3.124   7.293   3.174
14952WAT     H245099   3.178   7.168   3.263
14953WAT      O45100   4.478   7.324   9.326
14953WAT     H145101   4.498   7.229   9.348
14953WAT     H245102   4.510   7.383   9.400
14954WAT      O45103   1.881   5.297   2.769
14954WAT     H145104   1.968   5.339   2.793
14954WAT     H245105   1.823   5.364   2.722
14955WAT      O45106   4.358   0.130   3.328
14955WAT     H145107   4.429   0.170   3.387
14955WAT     H245108   4.316   0.053   3.374
14956WAT      O45109   7.599   9.627   5.336
14956WAT     H145110   7.648   9.613   5.422
14956WAT     H245111   7.511   9.580   5.340
14957WAT      O45112   2.243   3.781   3.523
14957WAT     H145113   2.170   3.837   3.483
14957WAT     H245114   2.330   3.806   3.481
14958WAT      O45115   7.111   5.404   7.545
14958WAT     H145116   7.096   5.314   7.505
14958WAT     H245117   7.155   5.394   7.635
14959WAT      O45118   1.678   7.303   7.587
14959WAT     H145119   1.589   7.310   7.633
14959WAT     H245120   1.749   7.283   7.655
14960WAT      O45121   1.159   7.552   5.562
14960WAT     H145122   1.210   7.547   5.477
14960WAT     H245123   1.079   7.610   5.550
14961WAT      O45124   9.077   4.099   0.158
14961WAT     H145125   9.134   4.150   0.223
14961WAT     H245126   9.010   4.161   0.118
14962WAT      O45127   2.045   1.931   3.420
14962WAT     H145128   2.007   1.902   3.332
14962WAT     H245129   2.123   1.873   3.443
14963WAT      O45130   8.450   9.403   8.572
14963WAT     H145131   8.494   9.405   8.662
14963WAT     H245132   8.436   9.496   8.540
14964WAT      O45133   1.326   7.283   3.448
14964WAT     H145134   1.397   7.243   3.391
14964WAT     H245135   1.261   7.212   3.474
14965WAT      O45136   4.467   1.253   7.716
14965WAT     H145137   4.389   1.315   7.730
14965WAT     H245138   4.434   1.163   7.689
14966WAT      O45139   9.492   3.380   6.455
14966WAT     H145140   9.527   3.464   6.412
14966WAT     H245141   9.554   3.304   6.434
14967WAT      O45142   4.534   4.756   7.816
14967WAT     H145143   4.536   4.846   7.858
14967WAT     H245144   4.606   4.699   7.856
14968WAT      O45145   9.272   2.417   4.977
14968WAT     H145146   9.269   2.402   4.878
14968WAT     H245147   9.184   2.453   5.009
14969WAT      O45148   1.620   0.983   9.372
14969WAT     H145149   1.646   1.079   9.385
14969WAT     H245150   1.664   0.927   9.443
14970WAT      O45151   8.193   4.066   6.454
14970WAT     H145152   8.218   4.076   6.550
14970WAT     H245153   8.103   4.024   6.447
14971WAT      O45154   6.018   4.275   3.061
14971WAT     H145155   5.993   4.342   3.131
14971WAT     H245156   6.072   4.320   2.990
14972WAT      O45157   7.401   0.492   1.213
14972WAT     H145158   7.429   0.533   1.300
14972WAT     H245159   7.426   0.395   1.212
14973WAT      O45160   6.731   5.025   2.316
14973WAT     H145161   6.712   5.100   2.253
14973WAT     H245162   6.827   4.998   2.309
14974WAT      O45163   5.505   4.608   2.481
14974WAT     H145164   5.428   4.544   2.478
14974WAT     H245165   5.487   4.685   2.419
14975WAT      O45166   3.035   3.001   7.509
14975WAT     H145167   2.944   2.967   7.485
14975WAT     H245168   3.027   3.067   7.584
14976WAT      O45169   9.707   9.031   1.466
14976WAT     H145170   9.764   9.111   1.447
14976WAT     H245171   9.757   8.948   1.441
14977WAT      O45172   3.540   4.670   6.658
14977WAT     H145173   3.593   4.749   6.688
14977WAT     H245174   3.569   4.642   6.567
14978WAT      O45175   7.668   1.072   3.938
14978WAT     H145176   7.662   1.171   3.942
14978WAT     H245177   7.733   1.039   4.007
14979WAT      O45178   0.817   6.671   0.708
14979WAT     H145179   0.784   6.758   0.744
14979WAT     H245180   0.760   6.597   0.743
14980WAT      O45181   4.373   5.300   1.780
14980WAT     H145182   4.458   5.289   1.729
14980WAT     H245183   4.304   5.342   1.721
14981WAT      O45184   9.494   7.455   7.358
14981WAT     H145185   9.534   7.478   7.269
14981WAT     H245186   9.423   7.385   7.346
14982WAT      O45187   0.529   7.404   0.503
14982WAT     H145188   0.625   7.430   0.489
14982WAT     H245189   0.509   7.404   0.601
14983WAT      O45190   8.865   8.565   3.782
14983WAT     H145191   8.812   8.578   3.699
14983WAT     H245192   8.895   8.653   3.817
14984WAT      O45193   2.390   5.555   3.636
14984WAT     H145194   2.406   5.549   3.735
14984WAT     H245195   2.299   5.519   3.615
14985WAT      O45196   9.588   1.982   5.922
14985WAT     H145197   9.601   2.054   5.990
14985WAT     H245198   9.543   1.904   5.964
14986WAT      O45199   7.020   8.438   2.120
14986WAT     H145200   7.114   8.454   2.089
14986WAT     H245201   6.981   8.524   2.152
14987WAT      O45202   3.914   0.310   8.152
14987WAT     H145203   3.887   0.368   8.229
14987WAT     H245204   3.981   0.358   8.096
14988WAT      O45205   0.871   7.868   1.866
14988WAT     H145206   0.775   7.894   1.872
14988WAT     H245207   0.910   7.899   1.780
14989WAT      O45208   2.651   1.467   6.300
14989WAT     H145209   2.687   1.392   6.244
14989WAT     H245210   2.617   1.429   6.386
14990WAT      O45211   3.607   3.630   0.242
14990WAT     H145212   3.637   3.592   0.155
14990WAT     H245213   3.592   3.729   0.232
14991WAT      O45214   0.076   9.767   6.334
14991WAT     H145215   0.037   9.797   6.247
14991WAT     H245216   0.006   9.720   6.388
14992WAT      O45217   9.012   2.790   9.515
14992WAT     H145218   9.017   2.799   9.416
14992WAT     H245219   9.102   2.767   9.551
14993WAT      O45220   8.194   2.574   3.218
14993WAT     H145221   8.261   2.647   3.218
14993WAT     H245222   8.217   2.507   3.288
14994WAT      O45223   4.053   8.543   2.166
14994WAT     H145224   3.972   8.495   2.200
14994WAT     H245225   4.043   8.641   2.186
14995WAT      O45226   5.215   3.680   0.226
14995WAT     H145227   5.265   3.697   0.140
14995WAT     H245228   5.238   3.751   0.292
14996WAT      O45229   0.322   5.382   4.384
14996WAT     H145230   0.265   5.378   4.302
14996WAT     H245231   0.341   5.477   4.408
14997WAT      O45232   7.570   1.759   7.745
14997WAT     H145233   7.603   1.667   7.723
14997WAT     H245234   7.627   1.799   7.816
14998WAT      O45235   4.920   2.235   4.332
14998WAT     H145236   4.824   2.261   4.330
14998WAT     H245237   4.976   2.315   4.357
14999WAT      O45238   6.445   7.720   1.311
14999WAT     H145239   6.532   7.768   1.297
14999WAT     H245240   6.451   7.629   1.271
15000WAT      O45241   3.217   2.755   3.467
15000WAT     H145242   3.277   2.788   3.539
15000WAT     H245243   3.270   2.741   3.383
15001WAT      O45244   1.634   7.102   5.163
15001WAT     H145245   1.550   7.113   5.111
15001WAT     H245246   1.637   7.010   5.203
15002WAT      O45247   3.142   8.336   1.598
15002WAT     H145248   3.073   8.343   1.527
15002WAT     H245249   3.170   8.427   1.627
15003WAT      O45250   3.899   2.251   5.285
15003WAT     H145251   3.822   2.268   5.346
15003WAT     H245252   3.867   2.202   5.204
15004WAT      O45253   4.120   9.560   4.119
15004WAT     H145254   4.055   9.618   4.168
15004WAT     H245255   4.099   9.561   4.021
15005WAT      O45256   0.926   5.283   1.149
15005WAT     H145257   1.008   5.273   1.205
15005WAT     H245258   0.846   5.294   1.209
15006WAT      O45259   0.174   5.928   1.869
15006WAT     H145260   0.094   5.900   1.815
15006WAT     H245261   0.256   5.924   1.812
15007WAT      O45262   4.465   4.932   6.898
15007WAT     H145263   4.450   4.887   6.986
15007WAT     H245264   4.436   5.028   6.905
15008WAT      O45265   6.476   4.209   1.671
15008WAT     H145266   6.433   4.228   1.583
15008WAT     H245267   6.439   4.271   1.740
15009WAT      O45268   8.877   6.207   0.532
15009WAT     H145269   8.857   6.251   0.444
15009WAT     H245270   8.936   6.128   0.517
15010WAT      O45271   5.818   1.405   0.259
15010WAT     H145272   5.753   1.410   0.335
15010WAT     H245273   5.773   1.431   0.174
15011WAT      O45274   2.034   6.690   1.308
15011WAT     H145275   2.024   6.756   1.382
15011WAT     H245276   1.944   6.673   1.266
15012WAT      O45277   7.875   1.902   7.389
15012WAT     H145278   7.937   1.884   7.313
15012WAT     H245279   7.781   1.911   7.354
15013WAT      O45280   9.550   9.232   8.113
15013WAT     H145281   9.609   9.155   8.086
15013WAT     H245282   9.454   9.208   8.099
15014WAT      O45283   5.080   8.347   0.824
15014WAT     H145284   5.085   8.285   0.746
15014WAT     H245285   5.004   8.410   0.812
15015WAT      O45286   6.768   2.594   0.654
15015WAT     H145287   6.700   2.587   0.580
15015WAT     H245288   6.721   2.598   0.742
15016WAT      O45289   8.998   2.216   9.369
15016WAT     H145290   9.053   2.295   9.396
15016WAT     H245291   9.045   2.166   9.296
15017WAT      O45292   9.406   6.830   8.041
15017WAT     H145293   9.427   6.858   7.948
15017WAT     H245294   9.307   6.818   8.051
15018WAT      O45295   3.130   5.036   8.540
15018WAT     H145296   3.089   4.956   8.498
15018WAT     H245297   3.102   5.043   8.635
15019WAT      O45298   0.225   7.414   6.923
15019WAT     H145299   0.294   7.386   6.989
15019WAT     H245300   0.141   7.362   6.940
15020WAT      O45301   5.916   7.759   0.151
15020WAT     H145302   5.859   7.793   0.226
15020WAT     H245303   5.857   7.727   0.076
15021WAT      O45304   9.872   6.022   7.698
15021WAT     H145305   9.872   5.940   7.641
15021WAT     H245306   9.905   6.100   7.645
15022WAT      O45307   0.158   9.483   9.006
15022WAT     H145308   0.178   9.511   8.912
15022WAT     H245309   0.234   9.510   9.065
15023WAT      O45310   8.839   2.732   1.011
15023WAT     H145311   8.815   2.739   0.914
15023WAT     H245312   8.815   2.642   1.046
15024WAT      O45313   0.979   3.302   6.075
15024WAT     H145314   0.927   3.242   6.135
15024WAT     H245315   1.067   3.260   6.054
15025WAT      O45316   7.271   7.948   0.112
15025WAT     H145317   7.213   7.943   0.031
15025WAT     H245318   7.355   7.896   0.097
15026WAT      O45319   2.400   9.083   2.332
15026WAT     H145320   2.436   9.159   2.385
15026WAT     H245321   2.477   9.025   2.301
15027WAT      O45322   2.140   7.583   8.546
15027WAT     H145323   2.140   7.634   8.460
15027WAT     H245324   2.106   7.642   8.619
15028WAT      O45325   5.655   7.491   0.816
15028WAT     H145326   5.634   7.410   0.762
15028WAT     H245327   5.573   7.548   0.824
15029WAT      O45328   7.485   7.824   0.325
15029WAT     H145329   7.511   7.814   0.229
15029WAT     H245330   7.394   7.785   0.339
15030WAT      O45331   7.317   1.520   8.048
15030WAT     H145332   7.326   1.588   8.121
15030WAT     H245333   7.408   1.495   8.016
15031WAT      O45334   6.502   3.163   6.332
15031WAT     H145335   6.499   3.262   6.348
15031WAT     H245336   6.576   3.124   6.388
15032WAT      O45337   4.881   9.123   2.900
15032WAT     H145338   4.814   9.172   2.844
15032WAT     H245339   4.920   9.047   2.848
15033WAT      O45340   6.734   5.352   6.572
15033WAT     H145341   6.820   5.374   6.619
15033WAT     H245342   6.672   5.306   6.636
15034WAT      O45343   7.613   1.093   9.820
15034WAT     H145344   7.560   1.107   9.904
15034WAT     H245345   7.573   1.147   9.746
15035WAT      O45346   9.689   9.107   6.910
15035WAT     H145347   9.680   9.206   6.919
15035WAT     H245348   9.697   9.067   7.002
15036WAT      O45349   5.272   9.460   5.733
15036WAT     H145350   5.244   9.521   5.659
15036WAT     H245351   5.220   9.375   5.729
15037WAT      O45352   1.418   4.394   2.315
15037WAT     H145353   1.344   4.459   2.295
15037WAT     H245354   1.462   4.367   2.229
15038WAT      O45355   5.748   0.281   8.182
15038WAT     H145356   5.772   0.196   8.229
15038WAT     H245357   5.648   0.290   8.181
15039WAT      O45358   9.430   2.010   3.907
15039WAT     H145359   9.445   2.019   4.006
15039WAT     H245360   9.353   2.066   3.880
15040WAT      O45361   1.705   0.159   8.462
15040WAT     H145362   1.740   0.078   8.509
15040WAT     H245363   1.744   0.162   8.370
15041WAT      O45364   3.121   4.287   2.174
15041WAT     H145365   3.167   4.201   2.153
15041WAT     H245366   3.024   4.280   2.150
15042WAT      O45367   7.585   4.607   1.975
15042WAT     H145368   7.673   4.654   1.983
15042WAT     H245369   7.600   4.511   1.954
15043WAT      O45370   8.012   5.584   9.360
15043WAT     H145371   8.063   5.612   9.278
15043WAT     H245372   8.013   5.484   9.367
15044WAT      O45373   9.080   0.172   1.500
15044WAT     H145374   9.133   0.193   1.582
15044WAT     H245375   8.985   0.152   1.525
15045WAT      O45376   8.433   2.957   1.064
15045WAT     H145377   8.414   3.051   1.035
15045WAT     H245378   8.392   2.893   0.999
15046WAT      O45379   1.222   8.425   2.501
15046WAT     H145380   1.244   8.521   2.520
15046WAT     H245381   1.260   8.399   2.412
15047WAT      O45382   2.719   4.441   9.493
15047WAT     H145383   2.746   4.413   9.586
15047WAT     H245384   2.652   4.514   9.498
15048WAT      O45385   2.296   2.100   3.681
15048WAT     H145386   2.223   2.162   3.707
15048WAT     H245387   2.333   2.127   3.592
15049WAT      O45388   6.051   5.257   6.010
15049WAT     H145389   5.984   5.329   5.992
15049WAT     H245390   6.015   5.194   6.078
15050WAT      O45391   1.501   8.711   8.209
15050WAT     H145392   1.450   8.690   8.292
15050WAT     H245393   1.570   8.640   8.193
15051WAT      O45394   2.675   6.413   6.866
15051WAT     H145395   2.751   6.361   6.827
15051WAT     H245396   2.632   6.467   6.794
15052WAT      O45397   3.977   1.243   9.474
15052WAT     H145398   4.037   1.315   9.439
15052WAT     H245399   4.032   1.172   9.517
15053WAT      O45400   3.016   1.490   9.469
15053WAT     H145401   3.104   1.508   9.423
15053WAT     H245402   3.032   1.474   9.566
15054WAT      O45403   1.654   2.508   9.312
15054WAT     H145404   1.720   2.433   9.308
15054WAT     H245405   1.584   2.494   9.242
15055WAT      O45406   3.578   2.438   4.746
15055WAT     H145407   3.589   2.453   4.844
15055WAT     H245408   3.495   2.385   4.729
15056WAT      O45409   5.837   3.603   6.601
15056WAT     H145410   5.801   3.559   6.518
15056WAT     H245411   5.799   3.558   6.681
15057WAT      O45412   6.643   8.708   3.759
15057WAT     H145413   6.645   8.807   3.777
15057WAT     H245414   6.688   8.689   3.672
15058WAT      O45415   9.582   7.861   0.970
15058WAT     H145416   9.575   7.882   0.873
15058WAT     H245417   9.675   7.879   1.002
15059WAT      O45418   0.338   6.521   6.976
15059WAT     H145419   0.375   6.563   6.893
15059WAT     H245420   0.325   6.592   7.045
15060WAT      O45421   5.881   3.792   7.800
15060WAT     H145422   5.849   3.735   7.876
15060WAT     H245423   5.811   3.795   7.729
15061WAT      O45424   3.123   7.021   6.922
15061WAT     H145425   3.184   7.052   6.850
15061WAT     H245426   3.079   6.935   6.893
15062WAT      O45427   4.077   9.291   1.015
15062WAT     H145428   4.063   9.193   1.003
15062WAT     H245429   3.989   9.335   1.038
15063WAT      O45430   2.820   4.489   6.274
15063WAT     H145431   2.788   4.395   6.283
15063WAT     H245432   2.881   4.512   6.349
15064WAT      O45433   2.073   2.244   2.449
15064WAT     H145434   2.134   2.173   2.485
15064WAT     H245435   2.109   2.334   2.471
15065WAT      O45436   0.564   4.209   4.785
15065WAT     H145437   0.645   4.160   4.818
15065WAT     H245438   0.484   4.149   4.790
15066WAT      O45439   4.417   6.305   8.430
15066WAT     H145440   4.386   6.342   8.343
15066WAT     H245441   4.364   6.223   8.453
15067WAT      O45442   8.669   7.145   2.299
15067WAT     H145443   8.735   7.072   2.283
15067WAT     H245444   8.678   7.214   2.228
15068WAT      O45445   5.485   1.620   3.519
15068WAT     H145446   5.458   1.581   3.607
15068WAT     H245447   5.498   1.719   3.529
15069WAT      O45448   6.842   2.716   4.460
15069WAT     H145449   6.912   2.786   4.457
15069WAT     H245450   6.882   2.627   4.438
15070WAT      O45451   2.938   2.159   8.809
15070WAT     H145452   3.014   2.131   8.750
15070WAT     H245453   2.968   2.159   8.904
15071WAT      O45454   1.693   7.422   4.264
15071WAT     H145455   1.700   7.342   4.324
15071WAT     H245456   1.639   7.399   4.184
15072WAT      O45457   1.950   6.649   7.446
15072WAT     H145458   2.004   6.733   7.455
15072WAT     H245459   1.949   6.621   7.350
15073WAT      O45460   2.309   3.725   6.784
15073WAT     H145461   2.227   3.782   6.773
15073WAT     H245462   2.380   3.777   6.832
15074WAT      O45463   6.787   9.030   1.462
15074WAT     H145464   6.826   9.055   1.551
15074WAT     H245465   6.731   9.106   1.429
15075WAT      O45466   3.238   9.533   5.702
15075WAT     H145467   3.246   9.440   5.738
15075WAT     H245468   3.150   9.542   5.655
15076WAT      O45469   8.775   0.446   4.201
15076WAT     H145470   8.809   0.446   4.295
15076WAT     H245471   8.687   0.399   4.197
15077WAT      O45472   5.040   7.196   0.897
15077WAT     H145473   4.972   7.231   0.833
15077WAT     H245474   5.038   7.096   0.897
15078WAT      O45475   3.370   6.423   4.358
15078WAT     H145476   3.306   6.351   4.386
15078WAT     H245477   3.332   6.512   4.382
15079WAT      O45478   2.555   8.581   8.041
15079WAT     H145479   2.647   8.550   8.064
15079WAT     H245480   2.519   8.637   8.115
15080WAT      O45481   8.455   1.481   2.017
15080WAT     H145482   8.501   1.427   1.946
15080WAT     H245483   8.483   1.577   2.008
15081WAT      O45484   8.797   1.831   4.515
15081WAT     H145485   8.765   1.887   4.592
15081WAT     H245486   8.889   1.797   4.535
15082WAT      O45487   2.238   2.373   7.714
15082WAT     H145488   2.287   2.301   7.665
15082WAT     H245489   2.258   2.366   7.812
15083WAT      O45490   8.501   2.502   0.608
15083WAT     H145491   8.593   2.501   0.646
15083WAT     H245492   8.434   2.507   0.682
15084WAT      O45493   0.621   3.611   6.903
15084WAT     H145494   0.535   3.614   6.955
15084WAT     H245495   0.695   3.647   6.959
15085WAT      O45496   3.721   9.109   2.817
15085WAT     H145497   3.800   9.146   2.767
15085WAT     H245498   3.708   9.013   2.791
15086WAT      O45499   2.145   4.062   4.229
15086WAT     H145500   2.216   4.020   4.173
15086WAT     H245501   2.187   4.120   4.299
15087WAT      O45502   3.831   7.402   3.905
15087WAT     H145503   3.851   7.481   3.963
15087WAT     H245504   3.821   7.433   3.810
15088WAT      O45505   8.376   2.103   5.495
15088WAT     H145506   8.465   2.059   5.484
15088WAT     H245507   8.360   2.167   5.419
15089WAT      O45508   0.445   6.459   6.030
15089WAT     H145509   0.509   6.393   5.990
15089WAT     H245510   0.480   6.490   6.119
15090WAT      O45511   5.598   1.144   8.356
15090WAT     H145512   5.653   1.165   8.275
15090WAT     H245513   5.650   1.168   8.438
15091WAT      O45514   8.491   9.308   6.270
15091WAT     H145515   8.471   9.392   6.320
15091WAT     H245516   8.550   9.249   6.325
15092WAT      O45517   9.820   1.354   9.268
15092WAT     H145518   9.857   1.296   9.341
15092WAT     H245519   9.817   1.449   9.298
15093WAT      O45520   0.724   2.901   4.217
15093WAT     H145521   0.734   2.970   4.145
15093WAT     H245522   0.784   2.924   4.294
15094WAT      O45523   2.575   6.205   5.288
15094WAT     H145524   2.673   6.189   5.273
15094WAT     H245525   2.539   6.258   5.211
15095WAT      O45526   4.462   0.918   9.214
15095WAT     H145527   4.363   0.928   9.217
15095WAT     H245528   4.486   0.823   9.196
15096WAT      O45529   6.037   4.098   9.363
15096WAT     H145530   6.042   4.018   9.422
15096WAT     H245531   5.993   4.073   9.276
15097WAT      O45532   3.757   5.593   3.642
15097WAT     H145533   3.779   5.659   3.714
15097WAT     H245534   3.697   5.636   3.574
15098WAT      O45535   5.870   9.099   7.754
15098WAT     H145536   5.942   9.059   7.697
15098WAT     H245537   5.787   9.111   7.698
15099WAT      O45538   8.147   3.750   7.308
15099WAT     H145539   8.148   3.741   7.209
15099WAT     H245540   8.222   3.697   7.348
15100WAT      O45541   4.687   6.808   0.125
15100WAT     H145542   4.678   6.843   0.031
15100WAT     H245543   4.627   6.729   0.137
15101WAT      O45544   0.297   2.920   2.816
15101WAT     H145545   0.371   2.891   2.876
15101WAT     H245546   0.323   2.905   2.721
15102WAT      O45547   9.791   4.283   9.642
15102WAT     H145548   9.829   4.262   9.552
15102WAT     H245549   9.719   4.352   9.633
15103WAT      O45550   5.378   8.186   3.465
15103WAT     H145551   5.432   8.210   3.545
15103WAT     H245552   5.434   8.199   3.383
15104WAT      O45553   2.495   6.127   4.597
15104WAT     H145554   2.422   6.176   4.644
15104WAT     H245555   2.471   6.030   4.590
15105WAT      O45556   4.390   1.022   0.470
15105WAT     H145557   4.441   1.101   0.435
15105WAT     H245558   4.436   0.985   0.550
15106WAT      O45559   1.877   7.090   6.646
15106WAT     H145560   1.968   7.097   6.606
15106WAT     H245561   1.832   7.007   6.612
15107WAT      O45562   6.304   0.149   3.433
15107WAT     H145563   6.313   0.162   3.334
15107WAT     H245564   6.217   0.188   3.464
15108WAT      O45565   9.728   9.408   0.699
15108WAT     H145566   9.630   9.397   0.716
15108WAT     H245567   9.765   9.324   0.660
15109WAT      O45568   2.444   8.671   8.252
15109WAT     H145569   2.381   8.736   8.210
15109WAT     H245570   2.393   8.589   8.280
15110WAT      O45571   6.155   4.020   1.415
15110WAT     H145572   6.149   4.106   1.466
15110WAT     H245573   6.243   4.016   1.367
15111WAT      O45574   9.456   7.335   2.627
15111WAT     H145575   9.365   7.376   2.614
15111WAT     H245576   9.526   7.401   2.600
15112WAT      O45577   0.390   4.517   2.945
15112WAT     H145578   0.395   4.422   2.977
15112WAT     H245579   0.391   4.578   3.024
15113WAT      O45580   8.593   7.760   3.880
15113WAT     H145581   8.499   7.760   3.913
15113WAT     H245582   8.614   7.671   3.839
15114WAT      O45583   4.732   7.130   8.353
15114WAT     H145584   4.747   7.056   8.419
15114WAT     H245585   4.816   7.182   8.341
15115WAT      O45586   7.926   1.754   9.715
15115WAT     H145587   7.907   1.847   9.747
15115WAT     H245588   7.844   1.715   9.672
15116WAT      O45589   0.423   5.567   8.500
15116WAT     H145590   0.453   5.496   8.436
15116WAT     H245591   0.356   5.529   8.563
15117WAT      O45592   8.551   4.418   8.730
15117WAT     H145593   8.608   4.348   8.774
15117WAT     H245594   8.511   4.381   8.647
15118WAT      O45595   0.349   4.692   6.463
15118WAT     H145596   0.374   4.666   6.557
15118WAT     H245597   0.423   4.747   6.424
15119WAT      O45598   7.961   9.534   8.627
15119WAT     H145599   8.036   9.488   8.580
15119WAT     H245600   7.967   9.516   8.725
15120WAT      O45601   4.291   8.525   0.071
15120WAT     H145602   4.327   8.432   0.063
15120WAT     H245603   4.366   8.589   0.086
15121WAT      O45604   1.621   8.099   8.047
15121WAT     H145605   1.680   8.177   8.024
15121WAT     H245606   1.604   8.044   7.966
15122WAT      O45607   3.679   2.971   3.902
15122WAT     H145608   3.751   2.994   3.967
15122WAT     H245609   3.695   2.880   3.865
15123WAT      O45610   8.250   4.105   7.206
15123WAT     H145611   8.156   4.137   7.219
15123WAT     H245612   8.249   4.008   7.182
15124WAT      O45613   6.876   2.022   5.977
15124WAT     H145614   6.915   1.936   5.943
15124WAT     H245615   6.947   2.074   6.025
15125WAT      O45616   0.694   4.212   0.935
15125WAT     H145617   0.640   4.130   0.955
15125WAT     H245618   0.657   4.256   0.852
15126WAT      O45619   9.542   7.411   0.724
15126WAT     H145620   9.532   7.359   0.808
15126WAT     H245621   9.503   7.360   0.647
15127WAT      O45622   9.559   1.427   9.110
15127WAT     H145623   9.590   1.521   9.127
15127WAT     H245624   9.606   1.365   9.173
15128WAT      O45625   2.791   5.519   9.373
15128WAT     H145626   2.852   5.476   9.307
15128WAT     H245627   2.710   5.462   9.387
15129WAT      O45628   7.405   5.026   6.033
15129WAT     H145629   7.376   4.931   6.042
15129WAT     H245630   7.400   5.053   5.937
15130WAT      O45631   0.873   5.616   0.100
15130WAT     H145632   0.781   5.615   0.141
15130WAT     H245633   0.897   5.709   0.075
15131WAT      O45634   5.017   1.306   4.258
15131WAT     H145635   4.960   1.387   4.247
15131WAT     H245636   4.987   1.254   4.338
15132WAT      O45637   2.233   8.458   8.318
15132WAT     H145638   2.233   8.475   8.416
15132WAT     H245639   2.274   8.368   8.300
15133WAT      O45640   6.345   7.974   3.406
15133WAT     H145641   6.413   7.900   3.411
15133WAT     H245642   6.254   7.935   3.418
15134WAT      O45643   9.140   2.157   4.396
15134WAT     H145644   9.190   2.200   4.320
15134WAT     H245645   9.058   2.113   4.360
15135WAT      O45646   3.538   6.483   4.717
15135WAT     H145647   3.491   6.397   4.697
15135WAT     H245648   3.582   6.477   4.806
15136WAT      O45649   3.538   0.225   4.295
15136WAT     H145650   3.531   0.304   4.356
15136WAT     H245651   3.446   0.198   4.265
15137WAT      O45652   1.545   7.809   7.245
15137WAT     H145653   1.572   7.857   7.329
15137WAT     H245654   1.620   7.750   7.215
15138WAT      O45655   1.379   6.296   5.189
15138WAT     H145656   1.296   6.325   5.140
15138WAT     H245657   1.453   6.282   5.123
15139WAT      O45658   5.495   8.930   2.059
15139WAT     H145659   5.546   9.008   2.097
15139WAT     H245660   5.553   8.882   1.993
15140WAT      O45661   1.574   6.802   2.105
15140WAT     H145662   1.671   6.776   2.100
15140WAT     H245663   1.533   6.791   2.014
15141WAT      O45664   8.640   7.964   5.773
15141WAT     H145665   8.638   7.864   5.768
15141WAT     H245666   8.734   7.995   5.786
15142WAT      O45667   0.536   9.572   4.584
15142WAT     H145668   0.591   9.548   4.664
15142WAT     H245669   0.455   9.514   4.580
15143WAT      O45670   1.748   0.281   2.600
15143WAT     H145671   1.750   0.346   2.676
15143WAT     H245672   1.781   0.327   2.517
15144WAT      O45673   9.052   8.347   3.513
15144WAT     H145674   9.061   8.434   3.465
15144WAT     H245675   9.132   8.333   3.571
15145WAT      O45676   6.068   3.097   3.376
15145WAT     H145677   5.975   3.111   3.410
15145WAT     H245678   6.119   3.040   3.440
15146WAT      O45679   5.253   8.802   8.698
15146WAT     H145680   5.231   8.898   8.712
15146WAT     H245681   5.182   8.745   8.739
15147WAT      O45682   5.652   5.348   1.168
15147WAT     H145683   5.609   5.419   1.223
15147WAT     H245684   5.673   5.269   1.225
15148WAT      O45685   0.009   1.885   5.296
15148WAT     H145686   0.001   1.814   5.366
15148WAT     H245687  -0.017   1.847   5.207
15149WAT      O45688   0.140   8.369   8.965
15149WAT     H145689   0.091   8.362   9.052
15149WAT     H245690   0.202   8.292   8.955
15150WAT      O45691   3.620   3.861   5.182
15150WAT     H145692   3.568   3.924   5.124
15150WAT     H245693   3.715   3.890   5.184
15151WAT      O45694   1.107   5.517   6.555
15151WAT     H145695   1.038   5.569   6.505
15151WAT     H245696   1.196   5.532   6.514
15152WAT      O45697   6.366   8.010   0.618
15152WAT     H145698   6.279   8.052   0.645
15152WAT     H245699   6.381   7.926   0.669
15153WAT      O45700   1.630   5.161   0.029
15153WAT     H145701   1.658   5.108   0.109
15153WAT     H245702   1.620   5.100  -0.050
15154WAT      O45703   3.315   1.636   1.789
15154WAT     H145704   3.403   1.589   1.780
15154WAT     H245705   3.281   1.624   1.883
15155WAT      O45706   4.052   4.699   8.620
15155WAT     H145707   4.078   4.654   8.534
15155WAT     H245708   3.977   4.650   8.662
15156WAT      O45709   3.212   6.926   3.703
15156WAT     H145710   3.126   6.927   3.651
15156WAT     H245711   3.289   6.920   3.640
15157WAT      O45712   7.541   1.232   3.407
15157WAT     H145713   7.636   1.261   3.419
15157WAT     H245714   7.526   1.146   3.457
15158WAT      O45715   9.506   7.162   2.424
15158WAT     H145716   9.457   7.075   2.431
15158WAT     H245717   9.504   7.209   2.512
15159WAT      O45718   1.109   8.595   7.343
15159WAT     H145719   1.074   8.673   7.395
15159WAT     H245720   1.177   8.626   7.277
15160WAT      O45721   2.558   9.388   2.185
15160WAT     H145722   2.558   9.309   2.124
15160WAT     H245723   2.545   9.358   2.279
15161WAT      O45724   2.330   0.164   0.403
15161WAT     H145725   2.265   0.177   0.479
15161WAT     H245726   2.283   0.119   0.327
15162WAT      O45727   9.034   1.511   6.621
15162WAT     H145728   9.088   1.594   6.633
15162WAT     H245729   8.937   1.536   6.613
15163WAT      O45730   5.281   4.363   9.635
15163WAT     H145731   5.370   4.393   9.670
15163WAT     H245732   5.269   4.396   9.541
15164WAT      O45733   6.832   9.153   0.998
15164WAT     H145734   6.866   9.083   1.061
15164WAT     H245735   6.761   9.113   0.939
15165WAT      O45736   6.694   1.363   5.405
15165WAT     H145737   6.787   1.348   5.438
15165WAT     H245738   6.691   1.350   5.306
15166WAT      O45739   5.059   4.708   4.227
15166WAT     H145740   5.077   4.625   4.174
15166WAT     H245741   5.061   4.787   4.165
15167WAT      O45742   4.871   4.612   2.508
15167WAT     H145743   4.882   4.564   2.595
15167WAT     H245744   4.940   4.683   2.499
15168WAT      O45745   3.597   6.789   5.430
15168WAT     H145746   3.667   6.810   5.498
15168WAT     H245747   3.580   6.690   5.428
15169WAT      O45748   5.310   8.549   1.570
15169WAT     H145749   5.398   8.579   1.532
15169WAT     H245750   5.240   8.556   1.499
15170WAT      O45751   2.310   4.634   5.053
15170WAT     H145752   2.300   4.642   5.152
15170WAT     H245753   2.285   4.541   5.025
15171WAT      O45754   4.327   7.407   2.902
15171WAT     H145755   4.421   7.437   2.917
15171WAT     H245756   4.315   7.383   2.805
15172WAT      O45757   5.082   4.263   9.380
15172WAT     H145758   5.107   4.167   9.370
15172WAT     H245759   4.990   4.270   9.418
15173WAT      O45760   5.418   6.822   2.466
15173WAT     H145761   5.481   6.745   2.469
15173WAT     H245762   5.426   6.868   2.377
15174WAT      O45763   1.011   8.514   3.011
15174WAT     H145764   0.996   8.436   2.949
15174WAT     H245765   1.041   8.593   2.957
15175WAT      O45766   0.511   1.151   5.022
15175WAT     H145767   0.552   1.064   4.995
15175WAT     H245768   0.567   1.226   4.988
15176WAT      O45769   1.042   9.074   1.745
15176WAT     H145770   0.989   9.004   1.698
15176WAT     H245771   1.137   9.045   1.752
15177WAT      O45772   5.743   1.046   8.924
15177WAT     H145773   5.821   1.109   8.934
15177WAT     H245774   5.769   0.956   8.958
15178WAT      O45775   7.588   0.706   6.430
15178WAT     H145776   7.625   0.625   6.476
15178WAT     H245777   7.534   0.759   6.495
15179WAT      O45778   8.126   0.403   8.137
15179WAT     H145779   8.215   0.437   8.108
15179WAT     H245780   8.138   0.341   8.215
15180WAT      O45781   4.888   2.561   0.608
15180WAT     H145782   4.942   2.477   0.601
15180WAT     H245783   4.839   2.563   0.695
15181WAT      O45784   4.975   1.578   8.960
15181WAT     H145785   5.045   1.586   9.032
15181WAT     H245786   5.007   1.513   8.891
15182WAT      O45787   0.306   6.146   5.789
15182WAT     H145788   0.394   6.138   5.835
15182WAT     H245789   0.291   6.241   5.761
15183WAT      O45790   2.288   1.702   4.137
15183WAT     H145791   2.375   1.726   4.181
15183WAT     H245792   2.241   1.634   4.194
15184WAT      O45793   8.446   8.242   7.568
15184WAT     H145794   8.486   8.297   7.642
15184WAT     H245795   8.355   8.211   7.596
15185WAT      O45796   3.258   5.738   4.742
15185WAT     H145797   3.354   5.753   4.768
15185WAT     H245798   3.207   5.704   4.820
15186WAT      O45799   6.333   5.162   4.942
15186WAT     H145800   6.346   5.066   4.918
15186WAT     H245801   6.241   5.191   4.914
15187WAT      O45802   2.705   3.079   4.004
15187WAT     H145803   2.777   3.145   4.027
15187WAT     H245804   2.746   2.989   3.990
15188WAT      O45805   2.741   2.075   7.879
15188WAT     H145806   2.770   2.160   7.836
15188WAT     H245807   2.785   2.066   7.968
15189WAT      O45808   0.215   9.307   1.048
15189WAT     H145809   0.205   9.323   1.146
15189WAT     H245810   0.211   9.394   1.000
15190WAT      O45811   0.369   1.280   0.069
15190WAT     H145812   0.366   1.367   0.019
15190WAT     H245813   0.451   1.278   0.126
15191WAT      O45814   8.240   6.743   3.799
15191WAT     H145815   8.202   6.829   3.766
15191WAT     H245816   8.199   6.666   3.749
15192WAT      O45817   0.081   0.106   7.663
15192WAT     H145818   0.178   0.097   7.684
15192WAT     H245819   0.062   0.060   7.576
15193WAT      O45820   0.561   0.757   3.284
15193WAT     H145821   0.520   0.681   3.234
15193WAT     H245822   0.637   0.795   3.231
15194WAT      O45823   2.827   8.435   2.170
15194WAT     H145824   2.808   8.533   2.158
15194WAT     H245825   2.762   8.382   2.116
15195WAT      O45826   3.647   1.788   4.309
15195WAT     H145827   3.633   1.748   4.218
15195WAT     H245828   3.713   1.733   4.360
15196WAT      O45829   2.744   0.919   3.323
15196WAT     H145830   2.719   0.923   3.226
15196WAT     H245831   2.833   0.873   3.332
15197WAT      O45832   0.294   8.460   1.385
15197WAT     H145833   0.378   8.473   1.333
15197WAT     H245834   0.313   8.470   1.483
15198WAT      O45835   7.225   2.157   6.404
15198WAT     H145836   7.316   2.155   6.446
15198WAT     H245837   7.215   2.078   6.343
15199WAT      O45838   9.771   2.911   0.210
15199WAT     H145839   9.705   2.902   0.285
15199WAT     H245840   9.773   3.006   0.179
15200WAT      O45841   0.895   3.017   1.542
15200WAT     H145842   0.948   3.013   1.457
15200WAT     H245843   0.958   3.018   1.620
15201WAT      O45844   1.517   1.599   1.157
15201WAT     H145845   1.580   1.671   1.185
15201WAT     H245846   1.564   1.538   1.093
15202WAT      O45847   0.208   9.143   1.818
15202WAT     H145848   0.208   9.140   1.718
15202WAT     H245849   0.219   9.237   1.849
15203WAT      O45850   3.525   0.158   2.357
15203WAT     H145851   3.435   0.178   2.318
15203WAT     H245852   3.522   0.172   2.456
15204WAT      O45853   7.201   5.322   3.591
15204WAT     H145854   7.180   5.303   3.495
15204WAT     H245855   7.267   5.396   3.596
15205WAT      O45856   3.128   2.001   0.414
15205WAT     H145857   3.047   2.013   0.471
15205WAT     H245858   3.185   2.083   0.420
15206WAT      O45859   1.268   4.212   3.304
15206WAT     H145860   1.225   4.294   3.342
15206WAT     H245861   1.365   4.231   3.285
15207WAT      O45862   5.349   4.495   7.988
15207WAT     H145863   5.444   4.472   7.964
15207WAT     H245864   5.287   4.449   7.924
15208WAT      O45865   1.766   3.450   3.345
15208WAT     H145866   1.694   3.384   3.367
15208WAT     H245867   1.826   3.460   3.424
15209WAT      O45868   7.740   2.330   3.729
15209WAT     H145869   7.722   2.232   3.731
15209WAT     H245870   7.807   2.353   3.800
15210WAT      O45871   8.894   3.521   0.853
15210WAT     H145872   8.908   3.454   0.779
15210WAT     H245873   8.980   3.566   0.874
15211WAT      O45874   1.336   9.599   6.121
15211WAT     H145875   1.401   9.623   6.049
15211WAT     H245876   1.275   9.527   6.088
15212WAT      O45877   6.528   8.286   5.004
15212WAT     H145878   6.530   8.202   5.057
15212WAT     H245879   6.520   8.364   5.065
15213WAT      O45880   5.185   3.512   0.828
15213WAT     H145881   5.165   3.415   0.818
15213WAT     H245882   5.131   3.564   0.762
15214WAT      O45883   5.392   2.376   2.265
15214WAT     H145884   5.426   2.392   2.358
15214WAT     H245885   5.366   2.463   2.223
15215WAT      O45886   1.883   7.749   2.541
15215WAT     H145887   1.912   7.841   2.568
15215WAT     H245888   1.790   7.733   2.573
15216WAT      O45889   4.259   1.519   2.475
15216WAT     H145890   4.224   1.547   2.386
15216WAT     H245891   4.337   1.458   2.462
15217WAT      O45892   6.757   5.435   7.802
15217WAT     H145893   6.686   5.433   7.872
15217WAT     H245894   6.714   5.445   7.712
15218WAT      O45895   4.839   3.701   2.463
15218WAT     H145896   4.874   3.716   2.370
15218WAT     H245897   4.813   3.605   2.473
15219WAT      O45898   5.869   0.211   8.993
15219WAT     H145899   5.953   0.253   9.027
15219WAT     H245900   5.805   0.197   9.069
15220WAT      O45901   4.963   8.275   5.142
15220WAT     H145902   4.872   8.255   5.105
15220WAT     H245903   4.987   8.208   5.211
15221WAT      O45904   6.413   7.445   7.367
15221WAT     H145905   6.372   7.414   7.453
15221WAT     H245906   6.356   7.415   7.290
15222WAT      O45907   2.741   4.723   7.005
15222WAT     H145908   2.654   4.745   6.960
15222WAT     H245909   2.726   4.648   7.070
15223WAT      O45910   7.517   1.401   7.863
15223WAT     H145911   7.607   1.427   7.828
15223WAT     H245912   7.528   1.341   7.942
15224WAT      O45913   6.246   7.821   2.847
15224WAT     H145914   6.161   7.872   2.860
15224WAT     H245915   6.263   7.809   2.749
15225WAT      O45916   6.154   3.878   9.036
15225WAT     H145917   6.203   3.941   8.976
15225WAT     H245918   6.208   3.795   9.050
15226WAT      O45919   9.742   4.666   5.210
15226WAT     H145920   9.822   4.654   5.152
15226WAT     H245921   9.661   4.631   5.163
15227WAT      O45922   6.145   8.262   1.426
15227WAT     H145923   6.147   8.269   1.526
15227WAT     H245924   6.093   8.340   1.389
15228WAT      O45925   8.392   1.446   3.534
15228WAT     H145926   8.364   1.521   3.474
15228WAT     H245927   8.321   1.376   3.536
15229WAT      O45928   4.390   1.475   7.358
15229WAT     H145929   4.387   1.433   7.267
15229WAT     H245930   4.440   1.561   7.353
15230WAT      O45931   8.696   9.778   5.651
15230WAT     H145932   8.625   9.832   5.606
15230WAT     H245933   8.709   9.812   5.744
15231WAT      O45934   4.244   6.333   6.180
15231WAT     H145935   4.266   6.414   6.235
15231WAT     H245936   4.146   6.331   6.161
15232WAT      O45937   2.521   9.051   5.231
15232WAT     H145938   2.540   8.960   5.194
15232WAT     H245939   2.597   9.113   5.209
15233WAT      O45940   7.595   6.951   3.132
15233WAT     H145941   7.578   7.042   3.169
15233WAT     H245942   7.524   6.929   3.065
15234WAT      O45943   5.320   0.476   5.891
15234WAT     H145944   5.275   0.565   5.895
15234WAT     H245945   5.371   0.459   5.976
15235WAT      O45946   9.606   5.251   5.761
15235WAT     H145947   9.508   5.255   5.778
15235WAT     H245948   9.647   5.178   5.816
15236WAT      O45949   5.016   7.869   0.441
15236WAT     H145950   5.032   7.856   0.343
15236WAT     H245951   4.951   7.944   0.454
15237WAT      O45952   6.024   2.934   6.504
15237WAT     H145953   5.937   2.888   6.522
15237WAT     H245954   6.072   2.948   6.590
15238WAT      O45955   9.471   6.705   9.212
15238WAT     H145956   9.523   6.790   9.210
15238WAT     H245957   9.517   6.640   9.273
15239WAT      O45958   9.301   5.983   5.838
15239WAT     H145959   9.328   5.952   5.929
15239WAT     H245960   9.236   6.059   5.846
15240WAT      O45961   0.553   6.080   1.413
15240WAT     H145962   0.496   6.013   1.366
15240WAT     H245963   0.508   6.169   1.412
15241WAT      O45964   5.575   5.083   7.657
15241WAT     H145965   5.490   5.136   7.655
15241WAT     H245966   5.652   5.145   7.674
15242WAT      O45967   8.669   1.312   2.690
15242WAT     H145968   8.681   1.335   2.594
15242WAT     H245969   8.613   1.383   2.734
15243WAT      O45970   5.999   5.088   6.201
15243WAT     H145971   6.082   5.053   6.245
15243WAT     H245972   5.921   5.080   6.263
15244WAT      O45973   7.756   8.467   1.139
15244WAT     H145974   7.749   8.520   1.055
15244WAT     H245975   7.728   8.523   1.217
15245WAT      O45976   0.060   5.435   1.444
15245WAT     H145977   0.060   5.534   1.449
15245WAT     H245978   0.132   5.398   1.503
15246WAT      O45979   7.995   2.863   5.392
15246WAT     H145980   8.072   2.922   5.367
15246WAT     H245981   7.940   2.845   5.310
15247WAT      O45982   9.267   2.423   6.328
15247WAT     H145983   9.198   2.430   6.401
15247WAT     H245984   9.314   2.335   6.334
15248WAT      O45985   4.757   7.824   7.813
15248WAT     H145986   4.722   7.896   7.754
15248WAT     H245987   4.853   7.805   7.790
15249WAT      O45988   1.294   3.511   7.098
15249WAT     H145989   1.287   3.412   7.084
15249WAT     H245990   1.266   3.559   7.015
15250WAT      O45991   5.764   5.791   2.026
15250WAT     H145992   5.828   5.850   2.075
15250WAT     H245993   5.780   5.696   2.054
15251WAT      O45994   9.552   5.254   9.619
15251WAT     H145995   9.591   5.314   9.690
15251WAT     H245996   9.562   5.158   9.647
15252WAT      O45997   3.445   2.830   8.180
15252WAT     H145998   3.375   2.797   8.244
15252WAT     H245999   3.535   2.795   8.208
15253WAT      O46000   7.927   2.537   4.948
15253WAT     H146001   8.009   2.481   4.960
15253WAT     H246002   7.848   2.478   4.938
15254WAT      O46003   9.614   4.881   1.296
15254WAT     H146004   9.610   4.857   1.393
15254WAT     H246005   9.524   4.870   1.255
15255WAT      O46006   7.494   7.637   8.919
15255WAT     H146007   7.532   7.730   8.910
15255WAT     H246008   7.493   7.612   9.016
15256WAT      O46009   0.747   3.373   2.448
15256WAT     H146010   0.755   3.472   2.456
15256WAT     H246011   0.785   3.344   2.360
15257WAT      O46012   4.420   4.938   3.084
15257WAT     H146013   4.515   4.969   3.097
15257WAT     H246014   4.410   4.898   2.993
15258WAT      O46015   0.637   0.256   6.875
15258WAT     H146016   0.730   0.234   6.846
15258WAT     H246017   0.638   0.342   6.927
15259WAT      O46018   4.025   4.727   7.028
15259WAT     H146019   4.057   4.673   7.105
15259WAT     H246020   4.059   4.821   7.036
15260WAT      O46021   9.829   5.536   4.292
15260WAT     H146022   9.878   5.554   4.378
15260WAT     H246023   9.731   5.544   4.308
15261WAT      O46024   0.701   5.686   5.830
15261WAT     H146025   0.642   5.605   5.823
15261WAT     H246026   0.797   5.657   5.830
15262WAT      O46027   5.565   5.078   2.051
15262WAT     H146028   5.652   5.126   2.039
15262WAT     H246029   5.552   5.058   2.148
15263WAT      O46030   6.844   9.582   8.910
15263WAT     H146031   6.885   9.504   8.958
15263WAT     H246032   6.877   9.584   8.816
15264WAT      O46033   4.571   4.104   7.069
15264WAT     H146034   4.617   4.167   7.007
15264WAT     H246035   4.499   4.056   7.020
15265WAT      O46036   9.673   9.052   3.670
15265WAT     H146037   9.682   9.094   3.760
15265WAT     H246038   9.618   8.969   3.677
15266WAT      O46039   8.210   4.926   8.282
15266WAT     H146040   8.246   4.856   8.343
15266WAT     H246041   8.122   4.896   8.245
15267WAT      O46042   3.012   7.428   0.275
15267WAT     H146043   2.948   7.477   0.216
15267WAT     H246044   3.101   7.474   0.273
15268WAT      O46045   7.376   7.521   1.281
15268WAT     H146046   7.332   7.500   1.194
15268WAT     H246047   7.315   7.577   1.337
15269WAT      O46048   7.865   8.755   4.919
15269WAT     H146049   7.902   8.729   5.008
15269WAT     H246050   7.812   8.839   4.928
15270WAT      O46051   4.328   3.789   1.306
15270WAT     H146052   4.274   3.729   1.247
15270WAT     H246053   4.341   3.878   1.260
15271WAT      O46054   3.938   0.204   9.804
15271WAT     H146055   3.999   0.228   9.879
15271WAT     H246056   3.909   0.287   9.756
15272WAT      O46057   7.751   7.859   2.075
15272WAT     H146058   7.667   7.903   2.107
15272WAT     H246059   7.815   7.928   2.042
15273WAT      O46060   3.641   0.470   6.958
15273WAT     H146061   3.702   0.508   7.028
15273WAT     H246062   3.617   0.541   6.892
15274WAT      O46063   2.393   6.151   8.506
15274WAT     H146064   2.307   6.167   8.459
15274WAT     H246065   2.458   6.224   8.483
15275WAT      O46066   8.053   5.115   1.719
15275WAT     H146067   8.029   5.192   1.779
15275WAT     H246068   8.114   5.053   1.767
15276WAT      O46069   8.150   7.953   5.902
15276WAT     H146070   8.179   7.858   5.894
15276WAT     H246071   8.059   7.964   5.861
15277WAT      O46072   8.668   8.468   8.292
15277WAT     H146073   8.716   8.402   8.350
15277WAT     H246074   8.724   8.489   8.212
15278WAT      O46075   6.208   8.589   9.547
15278WAT     H146076   6.167   8.560   9.634
15278WAT     H246077   6.308   8.587   9.556
15279WAT      O46078   5.292   6.315   8.008
15279WAT     H146079   5.302   6.404   7.962
15279WAT     H246080   5.199   6.306   8.043
15280WAT      O46081   8.170   0.573   0.093
15280WAT     H146082   8.108   0.650   0.079
15280WAT     H246083   8.121   0.497   0.135
15281WAT      O46084   1.960   4.346   2.386
15281WAT     H146085   2.054   4.347   2.420
15281WAT     H246086   1.905   4.283   2.443
15282WAT      O46087   0.343   6.771   4.356
15282WAT     H146088   0.320   6.787   4.452
15282WAT     H246089   0.340   6.858   4.306
15283WAT      O46090   4.690   2.395   4.374
15283WAT     H146091   4.636   2.463   4.423
15283WAT     H246092   4.667   2.399   4.277
15284WAT      O46093   5.888   6.784   4.812
15284WAT     H146094   5.925   6.729   4.888
15284WAT     H246095   5.789   6.773   4.809
15285WAT      O46096   8.461   4.746   4.496
15285WAT     H146097   8.477   4.770   4.401
15285WAT     H246098   8.545   4.709   4.536
15286WAT      O46099   0.554   7.428   8.710
15286WAT     H146100   0.559   7.388   8.801
15286WAT     H246101   0.625   7.387   8.652
15287WAT      O46102   6.939   6.459   4.421
15287WAT     H146103   6.860   6.419   4.466
15287WAT     H246104   7.009   6.389   4.406
15288WAT      O46105   5.592   0.444   7.309
15288WAT     H146106   5.583   0.533   7.265
15288WAT     H246107   5.599   0.455   7.408
15289WAT      O46108   3.415   0.590   2.311
15289WAT     H146109   3.513   0.612   2.305
15289WAT     H246110   3.377   0.633   2.393
15290WAT      O46111   8.653   5.424   8.857
15290WAT     H146112   8.697   5.369   8.787
15290WAT     H246113   8.581   5.479   8.816
15291WAT      O46114   0.547   6.057   6.197
15291WAT     H146115   0.634   6.086   6.158
15291WAT     H246116   0.528   6.112   6.279
15292WAT      O46117   5.531   9.829   0.635
15292WAT     H146118   5.561   9.896   0.568
15292WAT     H246119   5.492   9.750   0.588
15293WAT      O46120   0.381   6.833   1.101
15293WAT     H146121   0.295   6.786   1.079
15293WAT     H246122   0.457   6.769   1.089
15294WAT      O46123   3.829   3.649   7.952
15294WAT     H146124   3.766   3.635   7.876
15294WAT     H246125   3.895   3.720   7.927
15295WAT      O46126   2.799   4.575   7.871
15295WAT     H146127   2.843   4.665   7.862
15295WAT     H246128   2.712   4.585   7.919
15296WAT      O46129   0.846   2.326   0.198
15296WAT     H146130   0.791   2.365   0.124
15296WAT     H246131   0.792   2.322   0.282
15297WAT      O46132   6.428   4.062   3.647
15297WAT     H146133   6.362   4.009   3.700
15297WAT     H246134   6.381   4.108   3.572
15298WAT      O46135   4.541   5.275   9.616
15298WAT     H146136   4.565   5.286   9.520
15298WAT     H246137   4.614   5.312   9.673
15299WAT      O46138   0.792   0.940   1.775
15299WAT     H146139   0.867   0.992   1.735
15299WAT     H246140   0.718   1.003   1.799
15300WAT      O46141   4.652   5.920   2.608
15300WAT     H146142   4.727   5.858   2.628
15300WAT     H246143   4.639   5.926   2.509
15301WAT      O46144   6.063   7.177   6.876
15301WAT     H146145   6.090   7.179   6.972
15301WAT     H246146   6.010   7.259   6.854
15302WAT      O46147   2.592   1.753   9.594
15302WAT     H146148   2.526   1.810   9.644
15302WAT     H246149   2.561   1.742   9.500
15303WAT      O46150   0.448   2.826   8.148
15303WAT     H146151   0.498   2.813   8.234
15303WAT     H246152   0.439   2.923   8.129
15304WAT      O46153   6.085   6.079   8.038
15304WAT     H146154   6.101   6.053   7.943
15304WAT     H246155   6.167   6.124   8.074
15305WAT      O46156   4.448   4.671   6.762
15305WAT     H146157   4.463   4.746   6.826
15305WAT     H246158   4.354   4.637   6.771
15306WAT      O46159   2.401   4.823   2.259
15306WAT     H146160   2.459   4.772   2.195
15306WAT     H246161   2.368   4.761   2.330
15307WAT      O46162   4.233   4.363   9.260
15307WAT     H146163   4.190   4.414   9.186
15307WAT     H246164   4.327   4.339   9.234
15308WAT      O46165   6.935   2.520   8.443
15308WAT     H146166   6.881   2.510   8.527
15308WAT     H246167   7.030   2.541   8.467
15309WAT      O46168   6.585   0.272   4.001
15309WAT     H146169   6.637   0.213   3.939
15309WAT     H246170   6.626   0.363   4.002
15310WAT      O46171   3.706   8.388   1.874
15310WAT     H146172   3.678   8.320   1.806
15310WAT     H246173   3.681   8.356   1.965
15311WAT      O46174   2.013   0.842   9.594
15311WAT     H146175   2.035   0.907   9.666
15311WAT     H246176   2.035   0.750   9.624
15312WAT      O46177   2.608   3.625   1.424
15312WAT     H146178   2.632   3.561   1.497
15312WAT     H246179   2.671   3.612   1.347
15313WAT      O46180   9.642   5.372   8.050
15313WAT     H146181   9.721   5.394   8.107
15313WAT     H246182   9.575   5.321   8.105
15314WAT      O46183   2.439   6.390   8.142
15314WAT     H146184   2.396   6.303   8.117
15314WAT     H246185   2.448   6.447   8.060
15315WAT      O46186   1.981   2.293   6.959
15315WAT     H146187   1.898   2.274   6.906
15315WAT     H246188   2.001   2.215   7.018
15316WAT      O46189   8.899   8.495   2.003
15316WAT     H146190   8.941   8.502   2.093
15316WAT     H246191   8.969   8.506   1.932
15317WAT      O46192   2.597   7.117   0.617
15317WAT     H146193   2.532   7.159   0.680
15317WAT     H246194   2.690   7.142   0.643
15318WAT      O46195   0.584   6.754   5.270
15318WAT     H146196   0.537   6.750   5.359
15318WAT     H246197   0.529   6.807   5.206
15319WAT      O46198   1.637   6.349   1.796
15319WAT     H146199   1.545   6.387   1.797
15319WAT     H246200   1.634   6.253   1.768
15320WAT      O46201   1.484   8.160   3.695
15320WAT     H146202   1.459   8.252   3.666
15320WAT     H246203   1.480   8.098   3.616
15321WAT      O46204   9.695   8.861   0.135
15321WAT     H146205   9.623   8.912   0.087
15321WAT     H246206   9.783   8.906   0.120
15322WAT      O46207   8.292   2.599   8.259
15322WAT     H146208   8.305   2.580   8.161
15322WAT     H246209   8.203   2.643   8.272
15323WAT      O46210   4.733   1.310   7.633
15323WAT     H146211   4.828   1.291   7.656
15323WAT     H246212   4.673   1.250   7.686
15324WAT      O46213   0.835   8.051   8.349
15324WAT     H146214   0.879   8.010   8.429
15324WAT     H246215   0.782   8.131   8.377
15325WAT      O46216   8.365   2.252   2.990
15325WAT     H146217   8.445   2.294   3.032
15325WAT     H246218   8.283   2.275   3.043
15326WAT      O46219   2.671   2.255   7.152
15326WAT     H146220   2.603   2.277   7.081
15326WAT     H246221   2.718   2.171   7.128
15327WAT      O46222   4.933   8.532   2.691
15327WAT     H146223   4.954   8.584   2.774
15327WAT     H246224   4.855   8.574   2.644
15328WAT      O46225   8.540   1.637   8.987
15328WAT     H146226   8.516   1.540   8.989
15328WAT     H246227   8.518   1.678   9.076
15329WAT      O46228   5.086   4.983   9.646
15329WAT     H146229   5.075   4.921   9.569
15329WAT     H246230   5.115   4.931   9.727
15330WAT      O46231   2.603   1.804   6.919
15330WAT     H146232   2.636   1.884   6.968
15330WAT     H246233   2.504   1.813   6.903
15331WAT      O46234   5.623   3.660   5.298
15331WAT     H146235   5.627   3.748   5.250
15331WAT     H246236   5.664   3.590   5.240
15332WAT      O46237   4.160   1.839   8.658
15332WAT     H146238   4.065   1.816   8.639
15332WAT     H246239   4.164   1.919   8.718
15333WAT      O46240   3.377   8.882   0.082
15333WAT     H146241   3.403   8.872  -0.014
15333WAT     H246242   3.282   8.854   0.094
15334WAT      O46243   6.338   0.148   4.079
15334WAT     H146244   6.429   0.188   4.064
15334WAT     H246245   6.330   0.063   4.028
15335WAT      O46246   7.306   5.859   5.589
15335WAT     H146247   7.233   5.835   5.524
15335WAT     H246248   7.387   5.804   5.569
15336WAT      O46249   8.364   9.147   8.474
15336WAT     H146250   8.359   9.226   8.534
15336WAT     H246251   8.343   9.175   8.380
15337WAT      O46252   9.813   3.303   6.858
15337WAT     H146253   9.764   3.237   6.802
15337WAT     H246254   9.891   3.259   6.901
15338WAT      O46255   9.422   7.773   0.064
15338WAT     H146256   9.432   7.822   0.151
15338WAT     H246257   9.381   7.683   0.082
15339WAT      O46258   1.567   8.139   5.945
15339WAT     H146259   1.632   8.211   5.972
15339WAT     H246260   1.616   8.068   5.895
15340WAT      O46261   8.014   5.491   4.614
15340WAT     H146262   7.989   5.420   4.680
15340WAT     H246263   7.936   5.552   4.600
15341WAT      O46264   4.864   3.440   5.398
15341WAT     H146265   4.928   3.366   5.416
15341WAT     H246266   4.859   3.501   5.477
15342WAT      O46267   0.864   8.120   7.065
15342WAT     H146268   0.799   8.068   7.010
15342WAT     H246269   0.844   8.218   7.056
15343WAT      O46270   2.289   1.688   6.092
15343WAT     H146271   2.337   1.746   6.026
15343WAT     H246272   2.338   1.602   6.103
15344WAT      O46273   8.968   3.889   5.836
15344WAT     H146274   8.942   3.919   5.928
15344WAT     H246275   9.066   3.903   5.823
15345WAT      O46276   3.923   5.247   7.323
15345WAT     H146277   3.843   5.207   7.280
15345WAT     H246278   3.952   5.190   7.400
15346WAT      O46279   0.857   3.720   9.406
15346WAT     H146280   0.814   3.750   9.491
15346WAT     H246281   0.914   3.640   9.423
15347WAT      O46282   7.623   4.612   6.224
15347WAT     H146283   7.618   4.698   6.273
15347WAT     H246284   7.714   4.602   6.183
15348WAT      O46285   8.866   7.688   6.426
15348WAT     H146286   8.877   7.719   6.332
15348WAT     H246287   8.939   7.725   6.483
15349WAT      O46288   1.384   8.422   0.362
15349WAT     H146289   1.388   8.516   0.329
15349WAT     H246290   1.347   8.363   0.291
15350WAT      O46291   0.689   6.104   2.842
15350WAT     H146292   0.660   6.025   2.897
15350WAT     H246293   0.752   6.074   2.771
15351WAT      O46294   5.919   6.681   2.328
15351WAT     H146295   5.858   6.719   2.397
15351WAT     H246296   5.936   6.584   2.347
15352WAT      O46297   5.058   8.078   5.771
15352WAT     H146298   5.014   7.988   5.771
15352WAT     H246299   5.079   8.104   5.677
15353WAT      O46300   0.172   7.722   1.670
15353WAT     H146301   0.130   7.779   1.741
15353WAT     H246302   0.100   7.680   1.615
15354WAT      O46303   0.916   2.888   2.196
15354WAT     H146304   0.865   2.920   2.276
15354WAT     H246305   0.983   2.958   2.170
15355WAT      O46306   7.245   1.710   6.294
15355WAT     H146307   7.274   1.618   6.317
15355WAT     H246308   7.325   1.767   6.274
15356WAT      O46309   4.688   4.464   8.710
15356WAT     H146310   4.729   4.377   8.684
15356WAT     H246311   4.602   4.477   8.659
15357WAT      O46312   0.360   1.369   1.735
15357WAT     H146313   0.304   1.304   1.685
15357WAT     H246314   0.427   1.319   1.790
15358WAT      O46315   4.332   3.197   5.943
15358WAT     H146316   4.327   3.157   6.035
15358WAT     H246317   4.395   3.143   5.887
15359WAT      O46318   0.005   0.065   2.037
15359WAT     H146319   0.011   0.067   1.938
15359WAT     H246320   0.096   0.054   2.076
15360WAT      O46321   2.716   5.186   4.627
15360WAT     H146322   2.793   5.230   4.672
15360WAT     H246323   2.648   5.255   4.601
15361WAT      O46324   6.741   6.493   8.020
15361WAT     H146325   6.680   6.497   7.942
15361WAT     H246326   6.819   6.433   7.999
15362WAT      O46327   0.187   2.747   4.473
15362WAT     H146328   0.124   2.670   4.462
15362WAT     H246329   0.202   2.790   4.385
15363WAT      O46330   6.785   9.626   3.612
15363WAT     H146331   6.874   9.580   3.607
15363WAT     H246332   6.785   9.706   3.553
15364WAT      O46333   2.696   1.747   1.891
15364WAT     H146334   2.783   1.734   1.938
15364WAT     H246335   2.632   1.676   1.919
15365WAT      O46336   4.146   9.659   2.931
15365WAT     H146337   4.054   9.667   2.969
15365WAT     H246338   4.161   9.731   2.864
15366WAT      O46339   5.703   7.317   8.611
15366WAT     H146340   5.730   7.296   8.517
15366WAT     H246341   5.676   7.233   8.658
15367WAT      O46342   0.993   4.713   5.021
15367WAT     H146343   0.981   4.784   4.951
15367WAT     H246344   0.926   4.640   5.005
15368WAT      O46345   9.171   5.916   7.514
15368WAT     H146346   9.101   5.849   7.489
15368WAT     H246347   9.258   5.869   7.532
15369WAT      O46348   2.551   7.041   3.510
15369WAT     H146349   2.634   7.046   3.454
15369WAT     H246350   2.473   7.073   3.456
15370WAT      O46351   5.646   3.470   0.948
15370WAT     H146352   5.634   3.372   0.939
15370WAT     H246353   5.644   3.496   1.044
15371WAT      O46354   7.130   6.616   6.622
15371WAT     H146355   7.215   6.667   6.626
15371WAT     H246356   7.077   6.644   6.542
15372WAT      O46357   0.823   5.528   2.258
15372WAT     H146358   0.897   5.500   2.319
15372WAT     H246359   0.762   5.590   2.307
15373WAT      O46360   1.740   3.815   6.272
15373WAT     H146361   1.734   3.911   6.298
15373WAT     H246362   1.655   3.786   6.229
15374WAT      O46363   6.053   9.396   1.515
15374WAT     H146364   6.077   9.443   1.430
15374WAT     H246365   6.039   9.464   1.587
15375WAT      O46366   7.210   8.853   0.170
15375WAT     H146367   7.159   8.845   0.255
15375WAT     H246368   7.293   8.797   0.175
15376WAT      O46369   0.420   7.740   5.735
15376WAT     H146370   0.435   7.836   5.711
15376WAT     H246371   0.442   7.726   5.832
15377WAT      O46372   9.451   9.753   6.760
15377WAT     H146373   9.402   9.680   6.712
15377WAT     H246374   9.421   9.842   6.725
15378WAT      O46375   5.373   0.005   8.416
15378WAT     H146376   5.411  -0.014   8.325
15378WAT     H246377   5.280   0.040   8.407
15379WAT      O46378   3.509   1.891   3.828
15379WAT     H146379   3.537   1.885   3.924
15379WAT     H246380   3.567   1.956   3.780
15380WAT      O46381   3.932   5.289   3.229
15380WAT     H146382   3.989   5.356   3.277
15380WAT     H246383   3.902   5.328   3.142
15381WAT      O46384   3.163   7.544   6.000
15381WAT     H146385   3.141   7.615   5.933
15381WAT     H246386   3.110   7.461   5.980
15382WAT      O46387   0.452   4.315   5.313
15382WAT     H146388   0.427   4.262   5.395
15382WAT     H246389   0.375   4.317   5.250
15383WAT      O46390   6.512   9.487   5.685
15383WAT     H146391   6.472   9.574   5.656
15383WAT     H246392   6.610   9.488   5.667
15384WAT      O46393   5.225   8.581   6.593
15384WAT     H146394   5.156   8.648   6.566
15384WAT     H246395   5.199   8.540   6.680
15385WAT      O46396   0.365   6.689   6.701
15385WAT     H146397   0.297   6.734   6.759
15385WAT     H246398   0.392   6.752   6.628
15386WAT      O46399   2.192   5.084   5.836
15386WAT     H146400   2.266   5.021   5.863
15386WAT     H246401   2.174   5.148   5.910
15387WAT      O46402   8.028   0.125   9.772
15387WAT     H146403   7.970   0.046   9.794
15387WAT     H246404   8.109   0.124   9.831
15388WAT      O46405   5.549   5.492   7.487
15388WAT     H146406   5.622   5.431   7.453
15388WAT     H246407   5.589   5.563   7.545
15389WAT      O46408   3.367   0.425   3.488
15389WAT     H146409   3.328   0.508   3.527
15389WAT     H246410   3.293   0.364   3.459
15390WAT      O46411   5.189   6.466   9.765
15390WAT     H146412   5.274   6.470   9.713
15390WAT     H246413   5.204   6.412   9.848
15391WAT      O46414   2.142   6.911   8.502
15391WAT     H146415   2.071   6.841   8.502
15391WAT     H246416   2.195   6.904   8.587
15392WAT      O46417   9.664   0.148   2.113
15392WAT     H146418   9.642   0.245   2.104
15392WAT     H246419   9.759   0.133   2.087
15393WAT      O46420   0.599   7.312   4.950
15393WAT     H146421   0.588   7.331   4.852
15393WAT     H246422   0.692   7.280   4.968
15394WAT      O46423   2.381   2.859   5.963
15394WAT     H146424   2.366   2.876   5.866
15394WAT     H246425   2.480   2.862   5.982
15395WAT      O46426   8.861   2.346   9.075
15395WAT     H146427   8.852   2.421   9.010
15395WAT     H246428   8.771   2.309   9.096
15396WAT      O46429   3.537   6.896   7.761
15396WAT     H146430   3.601   6.861   7.692
15396WAT     H246431   3.450   6.848   7.752
15397WAT      O46432   7.689   3.152   0.928
15397WAT     H146433   7.605   3.184   0.973
15397WAT     H246434   7.766   3.207   0.960
15398WAT      O46435   5.899   9.430   4.775
15398WAT     H146436   5.856   9.439   4.685
15398WAT     H246437   5.831   9.396   4.840
15399WAT      O46438   7.684   7.223   5.022
15399WAT     H146439   7.606   7.252   4.967
15399WAT     H246440   7.695   7.124   5.015
15400WAT      O46441   3.393   0.043   3.073
15400WAT     H146442   3.477   0.097   3.083
15400WAT     H246443   3.317   0.092   3.115
15401WAT      O46444   0.131   9.049   7.094
15401WAT     H146445   0.103   9.143   7.072
15401WAT     H246446   0.057   9.003   7.141
15402WAT      O46447   6.746   4.440   6.667
15402WAT     H146448   6.720   4.510   6.600
15402WAT     H246449   6.844   4.421   6.660
15403WAT      O46450   9.602   7.136   5.670
15403WAT     H146451   9.607   7.122   5.571
15403WAT     H246452   9.689   7.110   5.712
15404WAT      O46453   3.194   1.073   1.279
15404WAT     H146454   3.267   1.031   1.334
15404WAT     H246455   3.211   1.172   1.274
15405WAT      O46456   9.653   3.611   4.035
15405WAT     H146457   9.706   3.631   3.953
15405WAT     H246458   9.623   3.696   4.078
15406WAT      O46459   5.181   3.994   8.804
15406WAT     H146460   5.112   3.976   8.734
15406WAT     H246461   5.195   3.911   8.858
15407WAT      O46462   1.910   8.325   9.061
15407WAT     H146463   1.977   8.265   9.018
15407WAT     H246464   1.825   8.275   9.078
15408WAT      O46465   8.421   6.785   0.265
15408WAT     H146466   8.386   6.719   0.332
15408WAT     H246467   8.483   6.849   0.311
15409WAT      O46468   0.154   6.449   5.568
15409WAT     H146469   0.065   6.404   5.558
15409WAT     H246470   0.219   6.386   5.611
15410WAT      O46471   0.071   0.815   3.988
15410WAT     H146472   0.043   0.808   3.892
15410WAT     H246473   0.032   0.899   4.028
15411WAT      O46474   1.013   1.545   5.220
15411WAT     H146475   0.963   1.476   5.272
15411WAT     H246476   1.108   1.547   5.251
15412WAT      O46477   3.198   2.729   0.499
15412WAT     H146478   3.105   2.735   0.462
15412WAT     H246479   3.259   2.690   0.430
15413WAT      O46480   4.598   0.995   7.420
15413WAT     H146481   4.588   1.092   7.399
15413WAT     H246482   4.515   0.946   7.392
15414WAT      O46483   6.361   8.708   4.859
15414WAT     H146484   6.459   8.693   4.874
15414WAT     H246485   6.347   8.793   4.808
15415WAT      O46486   7.544   7.787   0.055
15415WAT     H146487   7.508   7.819  -0.032
15415WAT     H246488   7.600   7.705   0.041
15416WAT      O46489   5.928   8.837   6.786
15416WAT     H146490   6.010   8.789   6.755
15416WAT     H246491   5.952   8.929   6.817
15417WAT      O46492   4.396   6.227   5.713
15417WAT     H146493   4.323   6.168   5.749
15417WAT     H246494   4.395   6.314   5.762
15418WAT      O46495   6.415   5.412   0.984
15418WAT     H146496   6.398   5.319   0.952
15418WAT     H246497   6.511   5.421   1.011
15419WAT      O46498   8.110   7.144   2.540
15419WAT     H146499   8.031   7.155   2.480
15419WAT     H246500   8.168   7.225   2.534
15420WAT      O46501   7.044   9.301   9.366
15420WAT     H146502   7.097   9.222   9.335
15420WAT     H246503   7.014   9.353   9.286
15421WAT      O46504   6.496   6.879   2.017
15421WAT     H146505   6.511   6.920   1.927
15421WAT     H246506   6.583   6.844   2.053
15422WAT      O46507   0.504   2.099   0.372
15422WAT     H146508   0.568   2.027   0.345
15422WAT     H246509   0.479   2.088   0.469
15423WAT      O46510   1.472   9.560   2.785
15423WAT     H146511   1.403   9.569   2.856
15423WAT     H246512   1.429   9.531   2.700
15424WAT      O46513   8.856   6.890   3.549
15424WAT     H146514   8.867   6.896   3.450
15424WAT     H246515   8.877   6.797   3.579
15425WAT      O46516   9.650   5.429   4.859
15425WAT     H146517   9.561   5.413   4.901
15425WAT     H246518   9.651   5.387   4.768
15426WAT      O46519   7.079   1.211   3.275
15426WAT     H146520   7.002   1.152   3.252
15426WAT     H246521   7.157   1.155   3.303
15427WAT      O46522   6.843   0.283   2.305
15427WAT     H146523   6.865   0.241   2.392
15427WAT     H246524   6.879   0.227   2.230
15428WAT      O46525   6.143   8.279   5.575
15428WAT     H146526   6.212   8.213   5.605
15428WAT     H246527   6.092   8.313   5.654
15429WAT      O46528   0.870   2.992   2.657
15429WAT     H146529   0.864   3.087   2.687
15429WAT     H246530   0.965   2.963   2.656
15430WAT      O46531   2.385   6.099   6.203
15430WAT     H146532   2.288   6.097   6.180
15430WAT     H246533   2.421   6.190   6.188
15431WAT      O46534   0.998   8.125   2.627
15431WAT     H146535   0.934   8.099   2.555
15431WAT     H246536   1.025   8.044   2.679
15432WAT      O46537   3.059   6.974   7.181
15432WAT     H146538   3.101   7.028   7.253
15432WAT     H246539   3.087   7.009   7.092
15433WAT      O46540   0.066   4.431   0.128
15433WAT     H146541  -0.002   4.488   0.082
15433WAT     H246542   0.143   4.414   0.066
15434WAT      O46543   4.901   3.601   4.945
15434WAT     H146544   4.963   3.577   5.020
15434WAT     H246545   4.822   3.651   4.982
15435WAT      O46546   3.073   0.508   3.290
15435WAT     H146547   3.000   0.549   3.235
15435WAT     H246548   3.034   0.438   3.350
15436WAT      O46549   9.751   0.963   0.781
15436WAT     H146550   9.765   0.883   0.722
15436WAT     H246551   9.745   0.933   0.876
15437WAT      O46552   9.099   0.754   8.901
15437WAT     H146553   9.183   0.701   8.916
15437WAT     H246554   9.095   0.830   8.966
15438WAT      O46555   5.091   4.369   6.020
15438WAT     H146556   5.039   4.320   6.090
15438WAT     H246557   5.030   4.426   5.966
15439WAT      O46558   8.347   6.059   8.609
15439WAT     H146559   8.374   5.995   8.537
15439WAT     H246560   8.280   6.123   8.572
15440WAT      O46561   8.565   2.898   4.833
15440WAT     H146562   8.526   2.854   4.752
15440WAT     H246563   8.552   2.997   4.827
15441WAT      O46564   4.926   7.332   8.222
15441WAT     H146565   4.990   7.358   8.295
15441WAT     H246566   4.978   7.305   8.141
15442WAT      O46567   5.788   1.420   7.175
15442WAT     H146568   5.767   1.468   7.090
15442WAT     H246569   5.764   1.478   7.252
15443WAT      O46570   3.685   1.055   4.811
15443WAT     H146571   3.622   0.977   4.810
15443WAT     H246572   3.751   1.043   4.885
15444WAT      O46573   5.276   4.878   3.672
15444WAT     H146574   5.318   4.954   3.722
15444WAT     H246575   5.240   4.911   3.585
15445WAT      O46576   9.685   9.667   8.593
15445WAT     H146577   9.672   9.581   8.543
15445WAT     H246578   9.612   9.731   8.569
15446WAT      O46579   4.187   0.372   6.172
15446WAT     H146580   4.259   0.427   6.129
15446WAT     H246581   4.134   0.430   6.234
15447WAT      O46582   1.719   0.940   0.983
15447WAT     H146583   1.713   1.031   0.942
15447WAT     H246584   1.684   0.943   1.076
15448WAT      O46585   5.868   7.130   1.161
15448WAT     H146586   5.860   7.209   1.222
15448WAT     H246587   5.964   7.118   1.134
15449WAT      O46588   8.772   9.063   8.924
15449WAT     H146589   8.721   9.093   9.005
15449WAT     H246590   8.844   9.129   8.904
15450WAT      O46591   7.354   4.405   3.842
15450WAT     H146592   7.326   4.339   3.912
15450WAT     H246593   7.320   4.375   3.753
15451WAT      O46594   5.419   7.903   7.601
15451WAT     H146595   5.446   7.872   7.510
15451WAT     H246596   5.498   7.944   7.647
15452WAT      O46597   6.378   1.571   6.768
15452WAT     H146598   6.467   1.564   6.813
15452WAT     H246599   6.391   1.611   6.677
15453WAT      O46600   2.148   4.633   4.014
15453WAT     H146601   2.080   4.581   4.066
15453WAT     H246602   2.114   4.650   3.922
15454WAT      O46603   8.415   0.174   2.879
15454WAT     H146604   8.332   0.178   2.935
15454WAT     H246605   8.483   0.118   2.925
15455WAT      O46606   5.595   4.876   1.846
15455WAT     H146607   5.693   4.879   1.825
15455WAT     H246608   5.574   4.946   1.915
15456WAT      O46609   0.295   0.776   5.502
15456WAT     H146610   0.274   0.688   5.543
15456WAT     H246611   0.235   0.792   5.424
15457WAT      O46612   3.461   9.674   1.407
15457WAT     H146613   3.445   9.676   1.308
15457WAT     H246614   3.380   9.709   1.454
15458WAT      O46615   8.362   1.084   3.123
15458WAT     H146616   8.268   1.065   3.152
15458WAT     H246617   8.367   1.084   3.024
15459WAT      O46618   2.821   9.448   6.246
15459WAT     H146619   2.751   9.511   6.212
15459WAT     H246620   2.794   9.354   6.226
15460WAT      O46621   5.309   1.759   9.688
15460WAT     H146622   5.229   1.748   9.629
15460WAT     H246623   5.299   1.702   9.769
15461WAT      O46624   0.139   4.147   1.108
15461WAT     H146625   0.142   4.164   1.206
15461WAT     H246626   0.054   4.183   1.069
15462WAT      O46627   2.162   3.844   6.037
15462WAT     H146628   2.156   3.937   6.073
15462WAT     H246629   2.071   3.811   6.014
15463WAT      O46630   9.547   6.336   2.739
15463WAT     H146631   9.593   6.408   2.792
15463WAT     H246632   9.547   6.362   2.642
15464WAT      O46633   2.034   7.578   3.207
15464WAT     H146634   1.982   7.551   3.126
15464WAT     H246635   2.129   7.594   3.183
15465WAT      O46636   4.277   7.171   3.591
15465WAT     H146637   4.372   7.202   3.593
15465WAT     H246638   4.224   7.217   3.662
15466WAT      O46639   4.496   6.473   2.109
15466WAT     H146640   4.418   6.425   2.068
15466WAT     H246641   4.475   6.495   2.204
15467WAT      O46642   4.977   2.810   3.795
15467WAT     H146643   4.978   2.731   3.856
15467WAT     H246644   5.039   2.880   3.831
15468WAT      O46645   6.954   0.978   2.525
15468WAT     H146646   6.890   0.963   2.449
15468WAT     H246647   6.916   1.046   2.587
15469WAT      O46648   7.638   2.515   4.355
15469WAT     H146649   7.625   2.416   4.364
15469WAT     H246650   7.567   2.552   4.295
15470WAT      O46651   8.286   7.089   3.906
15470WAT     H146652   8.274   7.076   4.005
15470WAT     H246653   8.379   7.062   3.880
15471WAT      O46654   7.408   2.690   3.659
15471WAT     H146655   7.317   2.648   3.663
15471WAT     H246656   7.404   2.781   3.699
15472WAT      O46657   1.703   6.454   9.875
15472WAT     H146658   1.774   6.386   9.856
15472WAT     H246659   1.721   6.537   9.823
15473WAT      O46660   8.898   1.909   0.144
15473WAT     H146661   8.971   1.957   0.095
15473WAT     H246662   8.904   1.811   0.126
15474WAT      O46663   6.670   8.652   8.822
15474WAT     H146664   6.658   8.750   8.808
15474WAT     H246665   6.581   8.608   8.835
15475WAT      O46666   8.306   5.456   7.680
15475WAT     H146667   8.237   5.440   7.750
15475WAT     H246668   8.368   5.529   7.711
15476WAT      O46669   5.221   1.049   3.554
15476WAT     H146670   5.293   1.085   3.495
15476WAT     H246671   5.212   1.106   3.635
15477WAT      O46672   6.161   1.547   0.520
15477WAT     H146673   6.121   1.556   0.611
15477WAT     H246674   6.096   1.579   0.451
15478WAT      O46675   7.891   5.423   9.037
15478WAT     H146676   7.886   5.523   9.037
15478WAT     H246677   7.904   5.391   8.943
15479WAT      O46678   0.085   0.904   2.779
15479WAT     H146679   0.095   0.939   2.686
15479WAT     H246680  -0.008   0.919   2.811
15480WAT      O46681   2.225   6.667   6.845
15480WAT     H146682   2.157   6.736   6.822
15480WAT     H246683   2.200   6.580   6.802
15481WAT      O46684   1.875   2.902   4.865
15481WAT     H146685   1.887   2.966   4.940
15481WAT     H246686   1.885   2.808   4.898
15482WAT      O46687   3.313   1.917   5.652
15482WAT     H146688   3.281   1.910   5.557
15482WAT     H246689   3.410   1.892   5.657
15483WAT      O46690   0.944   5.545   0.443
15483WAT     H146691   1.036   5.583   0.447
15483WAT     H246692   0.934   5.488   0.362
15484WAT      O46693   3.072   5.310   9.572
15484WAT     H146694   3.049   5.377   9.643
15484WAT     H246695   3.170   5.289   9.576
15485WAT      O46696   8.924   2.717   6.171
15485WAT     H146697   8.946   2.812   6.148
15485WAT     H246698   8.849   2.685   6.113
15486WAT      O46699   8.897   7.987   3.552
15486WAT     H146700   8.994   8.001   3.536
15486WAT     H246701   8.852   8.075   3.566
15487WAT      O46702   0.489   0.031   6.484
15487WAT     H146703   0.584   0.000   6.486
15487WAT     H246704   0.462   0.062   6.576
15488WAT      O46705   1.134   7.126   7.708
15488WAT     H146706   1.095   7.158   7.794
15488WAT     H246707   1.060   7.102   7.645
15489WAT      O46708   2.996   9.172   2.705
15489WAT     H146709   3.034   9.130   2.788
15489WAT     H246710   2.964   9.265   2.727
15490WAT      O46711   6.978   2.352   5.932
15490WAT     H146712   7.037   2.301   5.869
15490WAT     H246713   6.882   2.337   5.909
15491WAT      O46714   5.794   5.370   7.407
15491WAT     H146715   5.882   5.415   7.390
15491WAT     H246716   5.801   5.273   7.384
15492WAT      O46717   0.472   2.579   3.274
15492WAT     H146718   0.528   2.651   3.314
15492WAT     H246719   0.431   2.524   3.346
15493WAT      O46720   4.626   7.487   9.546
15493WAT     H146721   4.593   7.581   9.554
15493WAT     H246722   4.726   7.488   9.535
15494WAT      O46723   2.132   1.206   1.681
15494WAT     H146724   2.069   1.284   1.684
15494WAT     H246725   2.181   1.199   1.768
15495WAT      O46726   5.793   8.393   0.178
15495WAT     H146727   5.856   8.322   0.210
15495WAT     H246728   5.699   8.360   0.184
15496WAT      O46729   5.737   8.873   4.501
15496WAT     H146730   5.743   8.802   4.571
15496WAT     H246731   5.662   8.853   4.438
15497WAT      O46732   7.300   0.857   7.742
15497WAT     H146733   7.359   0.922   7.791
15497WAT     H246734   7.208   0.859   7.783
15498WAT      O46735   0.560   4.617   4.948
15498WAT     H146736   0.655   4.634   4.975
15498WAT     H246737   0.499   4.664   5.012
15499WAT      O46738   0.310   1.474   6.343
15499WAT     H146739   0.372   1.466   6.422
15499WAT     H246740   0.217   1.454   6.372
15500WAT      O46741   7.728   5.061   9.022
15500WAT     H146742   7.762   5.074   8.929
15500WAT     H246743   7.764   5.132   9.082
15501WAT      O46744   3.106   3.811   5.105
15501WAT     H146745   3.055   3.894   5.126
15501WAT     H246746   3.130   3.763   5.190
15502WAT      O46747   8.754   6.557   8.792
15502WAT     H146748   8.825   6.600   8.847
15502WAT     H246749   8.688   6.626   8.763
15503WAT      O46750   8.887   9.739   8.059
15503WAT     H146751   8.880   9.641   8.076
15503WAT     H246752   8.859   9.759   7.965
15504WAT      O46753   0.565   0.907   5.760
15504WAT     H146754   0.605   0.828   5.713
15504WAT     H246755   0.480   0.933   5.715
15505WAT      O46756   1.872   7.998   5.968
15505WAT     H146757   1.929   7.936   6.022
15505WAT     H246758   1.828   7.948   5.894
15506WAT      O46759   4.049   9.680   0.950
15506WAT     H146760   3.960   9.657   0.912
15506WAT     H246761   4.059   9.780   0.952
15507WAT      O46762   8.617   4.299   7.074
15507WAT     H146763   8.642   4.373   7.011
15507WAT     H246764   8.697   4.273   7.128
15508WAT      O46765   0.214   6.739   7.991
15508WAT     H146766   0.272   6.706   7.916
15508WAT     H246767   0.125   6.693   7.988
15509WAT      O46768   4.996   1.751   2.179
15509WAT     H146769   4.965   1.675   2.235
15509WAT     H246770   5.015   1.719   2.086
15510WAT      O46771   5.505   9.387   9.579
15510WAT     H146772   5.472   9.300   9.615
15510WAT     H246773   5.542   9.374   9.487
15511WAT      O46774   4.981   7.516   1.758
15511WAT     H146775   4.946   7.598   1.712
15511WAT     H246776   4.910   7.446   1.759
15512WAT      O46777   5.477   6.945   0.024
15512WAT     H146778   5.561   6.917   0.072
15512WAT     H246779   5.494   6.949  -0.074
15513WAT      O46780   4.798   5.512   9.194
15513WAT     H146781   4.846   5.428   9.168
15513WAT     H246782   4.787   5.515   9.293
15514WAT      O46783   4.094   1.518   9.679
15514WAT     H146784   4.086   1.546   9.584
15514WAT     H246785   4.098   1.598   9.738
15515WAT      O46786   2.829   1.595   8.066
15515WAT     H146787   2.808   1.638   7.978
15515WAT     H246788   2.847   1.498   8.052
15516WAT      O46789   6.813   0.460   8.448
15516WAT     H146790   6.763   0.389   8.398
15516WAT     H246791   6.779   0.550   8.418
15517WAT      O46792   5.132   2.541   8.485
15517WAT     H146793   5.154   2.451   8.523
15517WAT     H246794   5.215   2.596   8.478
15518WAT      O46795   0.447   2.597   5.969
15518WAT     H146796   0.380   2.583   5.896
15518WAT     H246797   0.493   2.685   5.955
15519WAT      O46798   7.685   4.693   7.186
15519WAT     H146799   7.654   4.785   7.211
15519WAT     H246800   7.637   4.663   7.104
15520WAT      O46801   8.142   3.610   6.966
15520WAT     H146802   8.164   3.652   6.878
15520WAT     H246803   8.113   3.515   6.951
15521WAT      O46804   4.001   4.813   2.645
15521WAT     H146805   4.026   4.813   2.742
15521WAT     H246806   4.050   4.887   2.598
15522WAT      O46807   8.821   9.808   8.497
15522WAT     H146808   8.733   9.828   8.540
15522WAT     H246809   8.810   9.731   8.433
15523WAT      O46810   1.165   8.592   6.300
15523WAT     H146811   1.100   8.669   6.305
15523WAT     H246812   1.180   8.569   6.204
15524WAT      O46813   9.082   3.213   2.090
15524WAT     H146814   9.091   3.252   2.182
15524WAT     H246815   9.164   3.159   2.069
15525WAT      O46816   4.383   5.933   8.254
15525WAT     H146817   4.333   6.020   8.252
15525WAT     H246818   4.380   5.895   8.346
15526WAT      O46819   8.336   5.305   9.692
15526WAT     H146820   8.357   5.314   9.790
15526WAT     H246821   8.270   5.375   9.666
15527WAT      O46822   7.136   6.658   8.196
15527WAT     H146823   7.183   6.740   8.163
15527WAT     H246824   7.168   6.578   8.146
15528WAT      O46825   8.701   7.684   6.726
15528WAT     H146826   8.730   7.589   6.739
15528WAT     H246827   8.635   7.709   6.796
15529WAT      O46828   4.024   8.891   7.843
15529WAT     H146829   3.962   8.866   7.917
15529WAT     H246830   4.012   8.829   7.766
15530WAT      O46831   2.803   0.527   7.816
15530WAT     H146832   2.799   0.627   7.821
15530WAT     H246833   2.715   0.492   7.785
15531WAT      O46834   2.323   9.713   4.129
15531WAT     H146835   2.268   9.758   4.198
15531WAT     H246836   2.333   9.773   4.049
15532WAT      O46837   7.262   4.308   1.269
15532WAT     H146838   7.355   4.339   1.290
15532WAT     H246839   7.205   4.387   1.246
15533WAT      O46840   8.550   4.997   0.662
15533WAT     H146841   8.592   4.911   0.634
15533WAT     H246842   8.621   5.065   0.679
15534WAT      O46843   4.221   5.693   7.793
15534WAT     H146844   4.192   5.717   7.700
15534WAT     H246845   4.240   5.776   7.845
15535WAT      O46846   4.878   1.330   3.062
15535WAT     H146847   4.970   1.358   3.037
15535WAT     H246848   4.812   1.397   3.028
15536WAT      O46849   7.373   2.362   9.632
15536WAT     H146850   7.294   2.302   9.619
15536WAT     H246851   7.402   2.359   9.727
15537WAT      O46852   0.253   3.654   7.314
15537WAT     H146853   0.195   3.735   7.311
15537WAT     H246854   0.255   3.617   7.407
15538WAT      O46855   5.251   6.621   0.978
15538WAT     H146856   5.240   6.716   1.008
15538WAT     H246857   5.181   6.564   1.020
15539WAT      O46858   2.131   8.006   0.486
15539WAT     H146859   2.092   7.954   0.410
15539WAT     H246860   2.149   8.099   0.456
15540WAT      O46861   4.702   8.459   6.005
15540WAT     H146862   4.781   8.520   6.003
15540WAT     H246863   4.733   8.365   6.012
15541WAT      O46864   0.697   7.091   1.936
15541WAT     H146865   0.795   7.102   1.955
15541WAT     H246866   0.664   7.173   1.889
15542WAT      O46867   9.221   0.329   0.844
15542WAT     H146868   9.286   0.331   0.768
15542WAT     H246869   9.131   0.303   0.809
15543WAT      O46870   8.049   2.478   5.887
15543WAT     H146871   7.978   2.433   5.942
15543WAT     H246872   8.015   2.567   5.856
15544WAT      O46873   9.854   2.461   1.047
15544WAT     H146874   9.775   2.449   0.988
15544WAT     H246875   9.869   2.377   1.100
15545WAT      O46876   7.358   8.722   2.193
15545WAT     H146877   7.396   8.696   2.282
15545WAT     H246878   7.303   8.805   2.203
15546WAT      O46879   2.646   3.086   1.385
15546WAT     H146880   2.742   3.106   1.365
15546WAT     H246881   2.620   3.130   1.471
15547WAT      O46882   6.821   3.728   8.722
15547WAT     H146883   6.896   3.756   8.782
15547WAT     H246884   6.828   3.630   8.701
15548WAT      O46885   3.263   7.081   6.726
15548WAT     H146886   3.361   7.063   6.724
15548WAT     H246887   3.230   7.098   6.633
15549WAT      O46888   2.743   5.264   5.946
15549WAT     H146889   2.736   5.175   5.901
15549WAT     H246890   2.668   5.323   5.914
15550WAT      O46891   8.742   1.897   7.970
15550WAT     H146892   8.806   1.915   7.895
15550WAT     H246893   8.673   1.832   7.941
15551WAT      O46894   7.779   3.274   5.073
15551WAT     H146895   7.803   3.328   4.992
15551WAT     H246896   7.838   3.301   5.149
15552WAT      O46897   8.466   4.046   9.169
15552WAT     H146898   8.451   3.976   9.099
15552WAT     H246899   8.384   4.054   9.226
15553WAT      O46900   4.627   9.067   2.345
15553WAT     H146901   4.673   9.031   2.426
15553WAT     H246902   4.610   9.164   2.357
15554WAT      O46903   6.250   1.760   8.460
15554WAT     H146904   6.254   1.818   8.542
15554WAT     H246905   6.235   1.665   8.487
15555WAT      O46906   1.806   7.000   8.195
15555WAT     H146907   1.859   7.023   8.277
15555WAT     H246908   1.773   6.906   8.203
15556WAT      O46909   3.224   1.267   4.339
15556WAT     H146910   3.179   1.180   4.317
15556WAT     H246911   3.323   1.252   4.345
15557WAT      O46912   2.736   7.268   6.191
15557WAT     H146913   2.675   7.332   6.236
15557WAT     H246914   2.829   7.306   6.189
15558WAT      O46915   2.265   7.013   9.689
15558WAT     H146916   2.347   6.963   9.715
15558WAT     H246917   2.289   7.105   9.660
15559WAT      O46918   3.711   8.782   6.646
15559WAT     H146919   3.638   8.849   6.660
15559WAT     H246920   3.694   8.732   6.562
15560WAT      O46921   7.102   7.759   0.629
15560WAT     H146922   7.169   7.833   0.627
15560WAT     H246923   7.081   7.735   0.724
15561WAT      O46924   7.238   6.281   2.854
15561WAT     H146925   7.209   6.376   2.866
15561WAT     H246926   7.305   6.257   2.924
15562WAT      O46927   3.908   8.720   3.466
15562WAT     H146928   3.856   8.636   3.480
15562WAT     H246929   3.985   8.702   3.406
15563WAT      O46930   9.811   8.594   0.066
15563WAT     H146931   9.885   8.534   0.034
15563WAT     H246932   9.846   8.688   0.074
15564WAT      O46933   2.595   9.604   6.484
15564WAT     H146934   2.640   9.521   6.516
15564WAT     H246935   2.537   9.583   6.406
15565WAT      O46936   9.555   1.269   9.394
15565WAT     H146937   9.470   1.243   9.348
15565WAT     H246938   9.629   1.208   9.365
15566WAT      O46939   6.502   0.892   8.397
15566WAT     H146940   6.482   0.963   8.330
15566WAT     H246941   6.527   0.934   8.484
15567WAT      O46942   6.465   5.175   7.867
15567WAT     H146943   6.502   5.091   7.906
15567WAT     H246944   6.371   5.188   7.899
15568WAT      O46945   0.293   4.483   9.831
15568WAT     H146946   0.240   4.461   9.749
15568WAT     H246947   0.389   4.458   9.816
15569WAT      O46948   1.554   7.192   5.693
15569WAT     H146949   1.555   7.216   5.596
15569WAT     H246950   1.460   7.198   5.728
15570WAT      O46951   4.565   8.511   8.060
15570WAT     H146952   4.652   8.543   8.098
15570WAT     H246953   4.507   8.589   8.040
15571WAT      O46954   7.977   4.818   7.861
15571WAT     H146955   8.015   4.882   7.794
15571WAT     H246956   8.049   4.753   7.889
15572WAT      O46957   2.948   8.829   5.203
15572WAT     H146958   2.961   8.865   5.111
15572WAT     H246959   2.878   8.758   5.201
15573WAT      O46960   5.248   3.945   0.282
15573WAT     H146961   5.230   3.922   0.187
15573WAT     H246962   5.340   3.982   0.291
15574WAT      O46963   8.289   6.976   9.249
15574WAT     H146964   8.259   6.897   9.303
15574WAT     H246965   8.330   6.943   9.163
15575WAT      O46966   6.569   7.673   9.813
15575WAT     H146967   6.492   7.730   9.840
15575WAT     H246968   6.595   7.695   9.719
15576WAT      O46969   2.736   7.363   4.427
15576WAT     H146970   2.701   7.457   4.422
15576WAT     H246971   2.695   7.317   4.506
15577WAT      O46972   2.093   6.441   7.837
15577WAT     H146973   1.996   6.456   7.820
15577WAT     H246974   2.127   6.509   7.902
15578WAT      O46975   4.823   1.408   7.127
15578WAT     H146976   4.866   1.421   7.216
15578WAT     H246977   4.758   1.482   7.110
15579WAT      O46978   8.598   0.112   9.411
15579WAT     H146979   8.582   0.204   9.376
15579WAT     H246980   8.554   0.102   9.501
15580WAT      O46981   1.275   6.551   4.617
15580WAT     H146982   1.177   6.532   4.632
15580WAT     H246983   1.329   6.495   4.680
15581WAT      O46984   8.256   7.538   0.417
15581WAT     H146985   8.278   7.527   0.514
15581WAT     H246986   8.279   7.631   0.388
15582WAT      O46987   3.906   8.914   6.528
15582WAT     H146988   3.985   8.854   6.517
15582WAT     H246989   3.841   8.874   6.593
15583WAT      O46990   5.096   5.965   7.588
15583WAT     H146991   5.095   5.962   7.688
15583WAT     H246992   5.148   6.045   7.558
15584WAT      O46993   0.507   0.472   5.650
15584WAT     H146994   0.590   0.434   5.691
15584WAT     H246995   0.526   0.563   5.615
15585WAT      O46996   5.118   7.270   2.269
15585WAT     H146997   5.138   7.367   2.275
15585WAT     H246998   5.060   7.252   2.190
15586WAT      O46999   7.911   9.565   0.310
15586WAT     H147000   7.820   9.534   0.283
15586WAT     H247001   7.980   9.500   0.279
15587WAT      O47002   4.354   2.710   3.544
15587WAT     H147003   4.281   2.652   3.580
15587WAT     H247004   4.429   2.652   3.512
15588WAT      O47005   0.575   5.571   0.171
15588WAT     H147006   0.491   5.600   0.217
15588WAT     H247007   0.569   5.596   0.074
15589WAT      O47008   4.468   6.238   6.128
15589WAT     H147009   4.374   6.272   6.136
15589WAT     H247010   4.471   6.165   6.060
15590WAT      O47011   8.425   4.426   0.678
15590WAT     H147012   8.440   4.418   0.580
15590WAT     H247013   8.467   4.349   0.725
15591WAT      O47014   9.542   1.794   4.352
15591WAT     H147015   9.554   1.697   4.373
15591WAT     H247016   9.602   1.819   4.275
15592WAT      O47017   7.844   2.246   7.163
15592WAT     H147018   7.903   2.166   7.167
15592WAT     H247019   7.820   2.276   7.255
15593WAT      O47020   4.837   4.413   0.833
15593WAT     H147021   4.780   4.343   0.877
15593WAT     H247022   4.820   4.411   0.735
15594WAT      O47023   8.284   2.870   7.129
15594WAT     H147024   8.285   2.932   7.207
15594WAT     H247025   8.277   2.775   7.161
15595WAT      O47026   4.115   9.690   9.118
15595WAT     H147027   4.119   9.664   9.021
15595WAT     H247028   4.117   9.608   9.175
15596WAT      O47029   2.383   6.747   7.245
15596WAT     H147030   2.395   6.834   7.293
15596WAT     H247031   2.306   6.697   7.285
15597WAT      O47032   0.251   8.745   5.136
15597WAT     H147033   0.244   8.650   5.106
15597WAT     H247034   0.174   8.766   5.197
15598WAT      O47035   1.451   6.009   0.158
15598WAT     H147036   1.376   5.944   0.143
15598WAT     H247037   1.483   6.002   0.253
15599WAT      O47038   0.133   8.429   9.868
15599WAT     H147039   0.205   8.445   9.936
15599WAT     H247040   0.143   8.494   9.793
15600WAT      O47041   8.147   3.698   6.012
15600WAT     H147042   8.246   3.688   6.023
15600WAT     H247043   8.112   3.622   5.958
15601WAT      O47044   4.577   6.608   4.455
15601WAT     H147045   4.576   6.650   4.364
15601WAT     H247046   4.553   6.511   4.448
15602WAT      O47047   9.334   6.376   2.327
15602WAT     H147048   9.264   6.311   2.356
15602WAT     H247049   9.306   6.419   2.242
15603WAT      O47050   0.669   7.634   6.948
15603WAT     H147051   0.748   7.599   6.899
15603WAT     H247052   0.616   7.693   6.888
15604WAT      O47053   2.827   2.067   5.625
15604WAT     H147054   2.810   2.130   5.550
15604WAT     H247055   2.914   2.090   5.669
15605WAT      O47056   6.859   2.331   2.992
15605WAT     H147057   6.872   2.421   3.033
15605WAT     H247058   6.946   2.298   2.956
15606WAT      O47059   8.231   5.455   4.312
15606WAT     H147060   8.156   5.465   4.377
15606WAT     H247061   8.263   5.361   4.312
15607WAT      O47062   7.959   0.497   1.577
15607WAT     H147063   7.878   0.479   1.521
15607WAT     H247064   8.029   0.427   1.559
15608WAT      O47065   2.114   5.919   6.891
15608WAT     H147066   2.185   5.962   6.836
15608WAT     H247067   2.060   5.990   6.936
15609WAT      O47068   1.966   2.347   0.285
15609WAT     H147069   2.006   2.350   0.377
15609WAT     H247070   2.025   2.396   0.222
15610WAT      O47071   4.370   8.264   9.874
15610WAT     H147072   4.401   8.267   9.779
15610WAT     H247073   4.330   8.175   9.894
15611WAT      O47074   8.054   2.834   2.880
15611WAT     H147075   8.103   2.895   2.943
15611WAT     H247076   8.041   2.745   2.923
15612WAT      O47077   3.521   1.958   4.094
15612WAT     H147078   3.586   1.924   4.162
15612WAT     H247079   3.427   1.939   4.125
15613WAT      O47080   4.079   1.333   2.578
15613WAT     H147081   4.150   1.404   2.573
15613WAT     H247082   4.110   1.252   2.528
15614WAT      O47083   3.986   5.678   2.092
15614WAT     H147084   3.893   5.642   2.096
15614WAT     H247085   4.039   5.627   2.024
15615WAT      O47086   5.403   9.724   9.817
15615WAT     H147087   5.450   9.792   9.873
15615WAT     H247088   5.327   9.768   9.769
15616WAT      O47089   5.057   1.115   5.676
15616WAT     H147090   5.001   1.155   5.603
15616WAT     H247091   5.134   1.066   5.635
15617WAT      O47092   5.440   7.091   3.463
15617WAT     H147093   5.395   7.073   3.550
15617WAT     H247094   5.454   7.190   3.452
15618WAT      O47095   0.830   7.107   4.678
15618WAT     H147096   0.765   7.182   4.695
15618WAT     H247097   0.911   7.120   4.735
15619WAT      O47098   0.879   1.113   1.197
15619WAT     H147099   0.962   1.149   1.156
15619WAT     H247100   0.831   1.186   1.246
15620WAT      O47101   8.485   9.326   7.155
15620WAT     H147102   8.496   9.410   7.102
15620WAT     H247103   8.554   9.323   7.227
15621WAT      O47104   6.284   1.898   7.757
15621WAT     H147105   6.258   1.825   7.694
15621WAT     H247106   6.316   1.859   7.843
15622WAT      O47107   1.954   3.520   7.636
15622WAT     H147108   1.874   3.490   7.586
15622WAT     H247109   1.937   3.611   7.674
15623WAT      O47110   7.331   4.667   0.403
15623WAT     H147111   7.408   4.613   0.369
15623WAT     H247112   7.334   4.669   0.503
15624WAT      O47113   4.398   5.210   6.887
15624WAT     H147114   4.314   5.250   6.925
15624WAT     H247115   4.387   5.196   6.789
15625WAT      O47116   1.843   8.287   5.704
15625WAT     H147117   1.762   8.277   5.762
15625WAT     H247118   1.900   8.362   5.740
15626WAT      O47119   9.067   8.452   6.092
15626WAT     H147120   9.099   8.377   6.034
15626WAT     H247121   9.119   8.453   6.177
15627WAT      O47122   8.419   1.807   6.655
15627WAT     H147123   8.347   1.863   6.695
15627WAT     H247124   8.436   1.727   6.713
15628WAT      O47125   6.835   3.389   4.837
15628WAT     H147126   6.786   3.454   4.894
15628WAT     H247127   6.776   3.360   4.762
15629WAT      O47128   7.973   1.371   5.318
15629WAT     H147129   7.996   1.275   5.338
15629WAT     H247130   8.006   1.429   5.392
15630WAT      O47131   5.015   4.330   6.582
15630WAT     H147132   5.093   4.287   6.538
15630WAT     H247133   4.962   4.261   6.632
15631WAT      O47134   3.377   7.097   5.233
15631WAT     H147135   3.457   7.156   5.231
15631WAT     H247136   3.393   7.021   5.297
15632WAT      O47137   5.215   0.859   8.340
15632WAT     H147138   5.139   0.924   8.340
15632WAT     H247139   5.217   0.810   8.427
15633WAT      O47140   3.190   5.368   0.088
15633WAT     H147141   3.204   5.435   0.160
15633WAT     H247142   3.261   5.297   0.093
15634WAT      O47143   4.906   4.668   9.612
15634WAT     H147144   4.973   4.628   9.675
15634WAT     H247145   4.951   4.691   9.526
15635WAT      O47146   5.895   0.234   9.617
15635WAT     H147147   5.831   0.159   9.634
15635WAT     H247148   5.969   0.202   9.559
15636WAT      O47149   2.510   1.599   7.829
15636WAT     H147150   2.447   1.612   7.906
15636WAT     H247151   2.573   1.677   7.825
15637WAT      O47152   2.206   6.523   2.722
15637WAT     H147153   2.212   6.583   2.643
15637WAT     H247154   2.128   6.461   2.712
15638WAT      O47155   9.620   8.604   4.282
15638WAT     H147156   9.541   8.551   4.249
15638WAT     H247157   9.588   8.684   4.332
15639WAT      O47158   9.682   4.955   5.115
15639WAT     H147159   9.716   5.048   5.099
15639WAT     H247160   9.748   4.888   5.082
15640WAT      O47161   4.801   1.895   6.295
15640WAT     H147162   4.792   1.993   6.317
15640WAT     H247163   4.793   1.883   6.196
15641WAT      O47164   4.367   5.487   5.421
15641WAT     H147165   4.446   5.522   5.370
15641WAT     H247166   4.397   5.453   5.510
15642WAT      O47167   9.632   4.135   4.155
15642WAT     H147168   9.684   4.108   4.236
15642WAT     H247169   9.549   4.184   4.184
15643WAT      O47170   2.367   1.585   8.059
15643WAT     H147171   2.455   1.600   8.103
15643WAT     H247172   2.305   1.539   8.122
15644WAT      O47173   6.815   6.571   4.921
15644WAT     H147174   6.739   6.528   4.970
15644WAT     H247175   6.879   6.610   4.987
15645WAT      O47176   2.831   2.231   3.484
15645WAT     H147177   2.743   2.278   3.490
15645WAT     H247178   2.845   2.176   3.566
15646WAT      O47179   1.297   8.708   5.614
15646WAT     H147180   1.320   8.798   5.576
15646WAT     H247181   1.381   8.657   5.633
15647WAT      O47182   4.051   9.691   2.257
15647WAT     H147183   4.002   9.762   2.206
15647WAT     H247184   3.987   9.647   2.321
15648WAT      O47185   8.844   9.812   9.338
15648WAT     H147186   8.930   9.846   9.375
15648WAT     H247187   8.768   9.867   9.374
15649WAT      O47188   7.581   6.564   4.927
15649WAT     H147189   7.544   6.476   4.957
15649WAT     H247190   7.546   6.637   4.987
15650WAT      O47191   7.625   7.521   1.731
15650WAT     H147192   7.690   7.580   1.684
15650WAT     H247193   7.559   7.576   1.782
15651WAT      O47194   8.037   7.608   4.033
15651WAT     H147195   7.964   7.540   4.023
15651WAT     H247196   8.120   7.574   3.990
15652WAT      O47197   0.767   6.042   5.319
15652WAT     H147198   0.682   6.001   5.287
15652WAT     H247199   0.833   5.969   5.340
15653WAT      O47200   2.895   0.308   5.022
15653WAT     H147201   2.883   0.352   5.111
15653WAT     H247202   2.865   0.370   4.950
15654WAT      O47203   4.701   0.970   1.872
15654WAT     H147204   4.615   1.019   1.880
15654WAT     H247205   4.736   0.978   1.778
15655WAT      O47206   1.880   3.499   8.809
15655WAT     H147207   1.955   3.470   8.868
15655WAT     H247208   1.866   3.432   8.736
15656WAT      O47209   0.272   6.878   1.818
15656WAT     H147210   0.319   6.956   1.775
15656WAT     H247211   0.213   6.912   1.892
15657WAT      O47212   1.054   1.016   8.718
15657WAT     H147213   1.085   1.020   8.813
15657WAT     H247214   0.993   0.938   8.706
15658WAT      O47215   1.845   1.410   2.653
15658WAT     H147216   1.887   1.442   2.737
15658WAT     H247217   1.765   1.353   2.674
15659WAT      O47218   8.924   0.603   4.780
15659WAT     H147219   8.907   0.638   4.687
15659WAT     H247220   8.881   0.664   4.847
15660WAT      O47221   6.593   2.389   5.404
15660WAT     H147222   6.586   2.365   5.501
15660WAT     H247223   6.689   2.400   5.379
15661WAT      O47224   4.447   0.476   1.099
15661WAT     H147225   4.535   0.482   1.052
15661WAT     H247226   4.375   0.460   1.031
15662WAT      O47227   0.767   2.561   2.984
15662WAT     H147228   0.813   2.585   2.899
15662WAT     H247229   0.825   2.498   3.036
15663WAT      O47230   1.849   2.120   3.449
15663WAT     H147231   1.811   2.130   3.357
15663WAT     H247232   1.917   2.047   3.449
15664WAT      O47233   1.541   5.122   1.386
15664WAT     H147234   1.617   5.065   1.417
15664WAT     H247235   1.461   5.104   1.444
15665WAT      O47236   5.767   3.872   1.838
15665WAT     H147237   5.842   3.934   1.814
15665WAT     H247238   5.692   3.924   1.878
15666WAT      O47239   3.045   8.755   9.306
15666WAT     H147240   3.014   8.831   9.249
15666WAT     H247241   3.024   8.668   9.261
15667WAT      O47242   5.161   0.614   6.151
15667WAT     H147243   5.140   0.518   6.167
15667WAT     H247244   5.142   0.637   6.055
15668WAT      O47245   2.610   9.356   2.871
15668WAT     H147246   2.520   9.330   2.834
15668WAT     H247247   2.622   9.455   2.863
15669WAT      O47248   4.686   5.186   2.308
15669WAT     H147249   4.739   5.115   2.260
15669WAT     H247250   4.735   5.273   2.301
15670WAT      O47251   7.656   7.216   6.786
15670WAT     H147252   7.557   7.220   6.803
15670WAT     H247253   7.673   7.163   6.703
15671WAT      O47254   9.784   1.072   9.825
15671WAT     H147255   9.743   1.051   9.737
15671WAT     H247256   9.796   0.988   9.878
15672WAT      O47257   4.999   8.409   4.184
15672WAT     H147258   4.929   8.350   4.143
15672WAT     H247259   5.045   8.461   4.112
15673WAT      O47260   0.062   2.246   1.175
15673WAT     H147261   0.046   2.149   1.155
15673WAT     H247262   0.160   2.266   1.168
15674WAT      O47263   1.593   4.880   4.626
15674WAT     H147264   1.571   4.929   4.710
15674WAT     H247265   1.631   4.944   4.559
15675WAT      O47266   7.248   9.575   8.705
15675WAT     H147267   7.157   9.591   8.668
15675WAT     H247268   7.307   9.653   8.685
15676WAT      O47269   6.473   7.283   5.845
15676WAT     H147270   6.434   7.229   5.919
15676WAT     H247271   6.572   7.271   5.843
15677WAT      O47272   2.755   7.985   6.762
15677WAT     H147273   2.851   7.976   6.737
15677WAT     H247274   2.735   8.081   6.785
15678WAT      O47275   3.280   4.037   7.403
15678WAT     H147276   3.188   4.077   7.413
15678WAT     H247277   3.281   3.979   7.321
15679WAT      O47278   4.768   6.102   6.171
15679WAT     H147279   4.749   6.048   6.089
15679WAT     H247280   4.803   6.192   6.144
15680WAT      O47281   5.861   2.380   8.510
15680WAT     H147282   5.861   2.306   8.577
15680WAT     H247283   5.923   2.357   8.434
15681WAT      O47284   0.754   0.341   5.720
15681WAT     H147285   0.817   0.418   5.722
15681WAT     H247286   0.805   0.256   5.734
15682WAT      O47287   1.339   1.205   6.421
15682WAT     H147288   1.277   1.208   6.343
15682WAT     H247289   1.418   1.263   6.403
15683WAT      O47290   7.534   6.441   1.798
15683WAT     H147291   7.559   6.501   1.874
15683WAT     H247292   7.435   6.440   1.788
15684WAT      O47293   8.170   1.005   5.986
15684WAT     H147294   8.121   1.082   6.026
15684WAT     H247295   8.105   0.939   5.948
15685WAT      O47296   4.557   7.560   1.109
15685WAT     H147297   4.635   7.622   1.105
15685WAT     H247298   4.475   7.608   1.078
15686WAT      O47299   5.279   3.226   6.013
15686WAT     H147300   5.320   3.313   5.984
15686WAT     H247301   5.349   3.154   6.008
15687WAT      O47302   0.591   9.269   2.094
15687WAT     H147303   0.554   9.247   2.185
15687WAT     H247304   0.552   9.206   2.027
15688WAT      O47305   6.199   4.765   5.127
15688WAT     H147306   6.272   4.748   5.194
15688WAT     H247307   6.237   4.813   5.048
15689WAT      O47308   3.867   3.936   8.563
15689WAT     H147309   3.864   4.035   8.551
15689WAT     H247310   3.923   3.914   8.643
15690WAT      O47311   7.359   6.278   3.573
15690WAT     H147312   7.393   6.357   3.625
15690WAT     H247313   7.331   6.307   3.482
15691WAT      O47314   7.005   6.330   2.214
15691WAT     H147315   6.996   6.385   2.297
15691WAT     H247316   6.938   6.256   2.215
15692WAT      O47317   7.425   9.663   4.547
15692WAT     H147318   7.407   9.761   4.550
15692WAT     H247319   7.523   9.648   4.532
15693WAT      O47320   8.483   2.124   5.019
15693WAT     H147321   8.424   2.053   5.059
15693WAT     H247322   8.446   2.152   4.931
15694WAT      O47323   4.473   6.576   6.051
15694WAT     H147324   4.416   6.555   6.131
15694WAT     H247325   4.570   6.571   6.077
15695WAT      O47326   9.835   5.368   7.021
15695WAT     H147327   9.805   5.294   7.082
15695WAT     H247328   9.850   5.331   6.929
15696WAT      O47329   1.881   0.186   4.141
15696WAT     H147330   1.787   0.159   4.119
15696WAT     H247331   1.940   0.105   4.141
15697WAT      O47332   7.503   0.084   7.964
15697WAT     H147333   7.529   0.000   7.917
15697WAT     H247334   7.538   0.082   8.058
15698WAT      O47335   9.613   7.450   4.803
15698WAT     H147336   9.635   7.362   4.762
15698WAT     H247337   9.589   7.438   4.899
15699WAT      O47338   0.850   8.183   4.269
15699WAT     H147339   0.923   8.211   4.207
15699WAT     H247340   0.829   8.257   4.332
15700WAT      O47341   8.755   3.118   9.416
15700WAT     H147342   8.669   3.132   9.365
15700WAT     H247343   8.748   3.035   9.470
15701WAT      O47344   5.591   6.854   1.727
15701WAT     H147345   5.509   6.879   1.779
15701WAT     H247346   5.651   6.933   1.719
15702WAT      O47347   8.791   6.294   4.178
15702WAT     H147348   8.778   6.338   4.267
15702WAT     H247349   8.887   6.268   4.167
15703WAT      O47350   0.705   0.591   3.026
15703WAT     H147351   0.739   0.681   3.054
15703WAT     H247352   0.654   0.600   2.941
15704WAT      O47353   1.411   7.062   6.951
15704WAT     H147354   1.504   7.077   6.916
15704WAT     H247355   1.405   6.971   6.993
15705WAT      O47356   0.235   4.464   6.336
15705WAT     H147357   0.291   4.524   6.394
15705WAT     H247358   0.220   4.507   6.247
15706WAT      O47359   5.771   2.843   7.582
15706WAT     H147360   5.840   2.783   7.544
15706WAT     H247361   5.713   2.879   7.509
15707WAT      O47362   0.029   5.617   0.470
15707WAT     H147363   0.031   5.717   0.476
15707WAT     H247364   0.121   5.581   0.487
15708WAT      O47365   9.827   8.209   0.267
15708WAT     H147366   9.792   8.192   0.175
15708WAT     H247367   9.895   8.139   0.290
15709WAT      O47368   2.026   6.323   2.642
15709WAT     H147369   2.004   6.245   2.702
15709WAT     H247370   2.027   6.293   2.547
15710WAT      O47371   1.076   6.353   2.347
15710WAT     H147372   1.090   6.436   2.400
15710WAT     H247373   1.043   6.280   2.407
15711WAT      O47374   8.509   1.207   4.504
15711WAT     H147375   8.456   1.235   4.424
15711WAT     H247376   8.508   1.281   4.571
15712WAT      O47377   6.019   0.136   6.333
15712WAT     H147378   5.993   0.124   6.237
15712WAT     H247379   5.991   0.056   6.386
15713WAT      O47380   9.225   4.208   8.673
15713WAT     H147381   9.304   4.165   8.629
15713WAT     H247382   9.257   4.266   8.748
15714WAT      O47383   4.285   0.031   6.139
15714WAT     H147384   4.264   0.125   6.163
15714WAT     H247385   4.340  -0.012   6.211
15715WAT      O47386   1.707   7.700   4.207
15715WAT     H147387   1.653   7.634   4.258
15715WAT     H247388   1.797   7.662   4.186
15716WAT      O47389   4.372   6.537   6.787
15716WAT     H147390   4.376   6.475   6.708
15716WAT     H247391   4.325   6.621   6.760
15717WAT      O47392   8.129   8.186   1.009
15717WAT     H147393   8.031   8.205   1.008
15717WAT     H247394   8.153   8.136   1.092
15718WAT      O47395   1.493   3.656   4.680
15718WAT     H147396   1.417   3.653   4.616
15718WAT     H247397   1.536   3.566   4.685
15719WAT      O47398   3.504   9.464   4.845
15719WAT     H147399   3.506   9.562   4.864
15719WAT     H247400   3.463   9.416   4.922
15720WAT      O47401   6.702   7.875   0.959
15720WAT     H147402   6.783   7.913   0.914
15720WAT     H247403   6.628   7.867   0.892
15721WAT      O47404   4.474   1.496   4.255
15721WAT     H147405   4.554   1.438   4.271
15721WAT     H247406   4.445   1.486   4.160
15722WAT      O47407   4.622   3.797   0.200
15722WAT     H147408   4.577   3.724   0.251
15722WAT     H247409   4.721   3.779   0.197
15723WAT      O47410   0.851   9.486   9.640
15723WAT     H147411   0.806   9.543   9.709
15723WAT     H247412   0.933   9.532   9.607
15724WAT      O47413   6.520   2.877   3.392
15724WAT     H147414   6.523   2.960   3.448
15724WAT     H247415   6.584   2.886   3.315
15725WAT      O47416   8.930   9.463   4.082
15725WAT     H147417   8.953   9.366   4.075
15725WAT     H247418   8.934   9.504   3.991
15726WAT      O47419   9.201   8.859   2.646
15726WAT     H147420   9.276   8.923   2.634
15726WAT     H247421   9.236   8.766   2.645
15727WAT      O47422   7.461   4.188   7.969
15727WAT     H147423   7.461   4.239   7.883
15727WAT     H247424   7.423   4.097   7.954
15728WAT      O47425   5.057   5.499   0.272
15728WAT     H147426   5.049   5.512   0.371
15728WAT     H247427   5.032   5.405   0.249
15729WAT      O47428   3.139   3.697   2.234
15729WAT     H147429   3.044   3.689   2.202
15729WAT     H247430   3.149   3.779   2.290
15730WAT      O47431   1.431   2.522   2.707
15730WAT     H147432   1.514   2.515   2.651
15730WAT     H247433   1.358   2.466   2.666
15731WAT      O47434   7.219   6.283   6.090
15731WAT     H147435   7.228   6.303   5.992
15731WAT     H247436   7.286   6.214   6.116
15732WAT      O47437   6.436   1.442   4.386
15732WAT     H147438   6.403   1.382   4.458
15732WAT     H247439   6.520   1.406   4.347
15733WAT      O47440   7.110   1.846   4.294
15733WAT     H147441   7.196   1.802   4.318
15733WAT     H247442   7.099   1.848   4.195
15734WAT      O47443   4.413   6.807   1.132
15734WAT     H147444   4.458   6.892   1.159
15734WAT     H247445   4.478   6.749   1.083
15735WAT      O47446   0.074   9.103   0.952
15735WAT     H147447   0.055   9.136   0.860
15735WAT     H247448   0.129   9.172   1.001
15736WAT      O47449   1.682   3.197   2.716
15736WAT     H147450   1.602   3.180   2.657
15736WAT     H247451   1.712   3.111   2.757
15737WAT      O47452   5.078   5.620   1.601
15737WAT     H147453   4.986   5.646   1.572
15737WAT     H247454   5.126   5.701   1.637
15738WAT      O47455   9.747   9.687   2.139
15738WAT     H147456   9.732   9.669   2.236
15738WAT     H247457   9.780   9.780   2.126
15739WAT      O47458   7.396   6.546   3.025
15739WAT     H147459   7.401   6.586   3.116
15739WAT     H247460   7.409   6.447   3.031
15740WAT      O47461   6.426   9.470   3.888
15740WAT     H147462   6.389   9.386   3.928
15740WAT     H247463   6.526   9.463   3.883
15741WAT      O47464   6.515   2.601   1.952
15741WAT     H147465   6.556   2.517   1.987
15741WAT     H247466   6.485   2.658   2.028
15742WAT      O47467   1.689   8.884   7.665
15742WAT     H147468   1.693   8.839   7.754
15742WAT     H247469   1.613   8.846   7.612
15743WAT      O47470   9.734   2.342   2.571
15743WAT     H147471   9.719   2.365   2.667
15743WAT     H247472   9.760   2.245   2.563
15744WAT      O47473   9.488   3.809   6.347
15744WAT     H147474   9.520   3.719   6.319
15744WAT     H247475   9.445   3.804   6.437
15745WAT      O47476   2.365   6.695   0.173
15745WAT     H147477   2.313   6.660   0.251
15745WAT     H247478   2.318   6.774   0.135
15746WAT      O47479   2.853   6.199   1.361
15746WAT     H147480   2.771   6.146   1.385
15746WAT     H247481   2.861   6.277   1.422
15747WAT      O47482   7.652   5.213   8.704
15747WAT     H147483   7.744   5.181   8.726
15747WAT     H247484   7.632   5.296   8.757
15748WAT      O47485   5.034   6.678   9.811
15748WAT     H147486   5.104   6.748   9.823
15748WAT     H247487   5.077   6.589   9.795
15749WAT      O47488   1.449   5.356   3.704
15749WAT     H147489   1.431   5.258   3.708
15749WAT     H247490   1.403   5.401   3.781
15750WAT      O47491   4.337   9.385   6.666
15750WAT     H147492   4.430   9.416   6.649
15750WAT     H247493   4.339   9.299   6.717
15751WAT      O47494   3.981   6.474   8.794
15751WAT     H147495   4.029   6.439   8.874
15751WAT     H247496   3.971   6.401   8.727
15752WAT      O47497   9.689   1.228   5.002
15752WAT     H147498   9.690   1.154   4.935
15752WAT     H247499   9.667   1.191   5.092
15753WAT      O47500   9.466   3.037   8.728
15753WAT     H147501   9.535   3.084   8.783
15753WAT     H247502   9.391   3.100   8.707
15754WAT      O47503   7.673   2.591   1.841
15754WAT     H147504   7.610   2.558   1.912
15754WAT     H247505   7.741   2.520   1.823
15755WAT      O47506   5.403   6.136   4.291
15755WAT     H147507   5.483   6.194   4.305
15755WAT     H247508   5.426   6.041   4.312
15756WAT      O47509   9.678   7.837   4.186
15756WAT     H147510   9.680   7.739   4.203
15756WAT     H247511   9.769   7.868   4.159
15757WAT      O47512   7.124   6.758   2.192
15757WAT     H147513   7.092   6.692   2.123
15757WAT     H247514   7.045   6.797   2.239
15758WAT      O47515   0.709   9.155   0.684
15758WAT     H147516   0.686   9.133   0.590
15758WAT     H247517   0.710   9.071   0.739
15759WAT      O47518   2.536   4.750   4.137
15759WAT     H147519   2.547   4.673   4.201
15759WAT     H247520   2.607   4.818   4.154
15760WAT      O47521   5.249   2.522   2.979
15760WAT     H147522   5.156   2.545   2.951
15760WAT     H247523   5.248   2.435   3.027
15761WAT      O47524   0.340   5.807   6.593
15761WAT     H147525   0.391   5.826   6.509
15761WAT     H247526   0.243   5.796   6.572
15762WAT      O47527   7.952   1.731   3.037
15762WAT     H147528   7.901   1.659   2.990
15762WAT     H247529   8.034   1.754   2.984
15763WAT      O47530   5.057   7.429   4.834
15763WAT     H147531   5.017   7.500   4.776
15763WAT     H247532   4.984   7.372   4.873
15764WAT      O47533   3.074   2.617   3.843
15764WAT     H147534   3.110   2.588   3.754
15764WAT     H247535   3.142   2.599   3.914
15765WAT      O47536   6.587   8.235   8.570
15765WAT     H147537   6.562   8.278   8.484
15765WAT     H247538   6.507   8.193   8.611
15766WAT      O47539   3.347   9.560   9.682
15766WAT     H147540   3.404   9.536   9.603
15766WAT     H247541   3.260   9.597   9.649
15767WAT      O47542   1.577   2.341   0.889
15767WAT     H147543   1.659   2.336   0.946
15767WAT     H247544   1.497   2.315   0.943
15768WAT      O47545   9.049   3.393   7.896
15768WAT     H147546   9.111   3.314   7.895
15768WAT     H247547   8.992   3.389   7.978
15769WAT      O47548   1.428   1.017   7.857
15769WAT     H147549   1.408   1.092   7.793
15769WAT     H247550   1.441   1.054   7.949
15770WAT      O47551   1.240   6.239   6.729
15770WAT     H147552   1.304   6.302   6.685
15770WAT     H247553   1.285   6.151   6.744
15771WAT      O47554   4.685   1.930   4.314
15771WAT     H147555   4.646   2.022   4.328
15771WAT     H247556   4.631   1.863   4.364
15772WAT      O47557   9.770   7.659   4.754
15772WAT     H147558   9.694   7.724   4.758
15772WAT     H247559   9.736   7.567   4.769
15773WAT      O47560   0.229   8.761   4.297
15773WAT     H147561   0.131   8.757   4.314
15773WAT     H247562   0.264   8.850   4.324
15774WAT      O47563   3.243   7.166   8.558
15774WAT     H147564   3.269   7.116   8.641
15774WAT     H247565   3.185   7.107   8.501
15775WAT      O47566   7.957   8.959   7.078
15775WAT     H147567   7.951   8.864   7.109
15775WAT     H247568   7.873   8.983   7.029
15776WAT      O47569   5.773   7.339   3.332
15776WAT     H147570   5.864   7.298   3.330
15776WAT     H247571   5.710   7.283   3.277
15777WAT      O47572   6.030   5.598   7.291
15777WAT     H147573   5.983   5.546   7.220
15777WAT     H247574   6.038   5.694   7.262
15778WAT      O47575   0.303   4.544   1.980
15778WAT     H147576   0.227   4.481   1.963
15778WAT     H247577   0.273   4.617   2.040
15779WAT      O47578   5.284   6.217   6.748
15779WAT     H147579   5.305   6.285   6.818
15779WAT     H247580   5.366   6.164   6.727
15780WAT      O47581   1.232   7.640   1.773
15780WAT     H147582   1.197   7.682   1.690
15780WAT     H247583   1.192   7.686   1.853
15781WAT      O47584   1.751   8.131   3.752
15781WAT     H147585   1.656   8.129   3.722
15781WAT     H247586   1.766   8.211   3.810
15782WAT      O47587   6.332   9.615   4.624
15782WAT     H147588   6.412   9.656   4.580
15782WAT     H247589   6.272   9.575   4.555
15783WAT      O47590   7.707   6.638   2.332
15783WAT     H147591   7.694   6.567   2.400
15783WAT     H247592   7.661   6.722   2.362
15784WAT      O47593   7.003   3.169   6.093
15784WAT     H147594   7.003   3.134   5.999
15784WAT     H247595   6.948   3.252   6.097
15785WAT      O47596   4.838   0.367   6.785
15785WAT     H147597   4.794   0.390   6.698
15785WAT     H247598   4.893   0.444   6.816
15786WAT      O47599   8.409   6.034   2.216
15786WAT     H147600   8.351   5.969   2.167
15786WAT     H247601   8.354   6.114   2.241
15787WAT      O47602   2.728   3.221   3.401
15787WAT     H147603   2.726   3.321   3.399
15787WAT     H247604   2.761   3.191   3.490
15788WAT      O47605   8.884   7.076   1.622
15788WAT     H147606   8.816   7.090   1.550
15788WAT     H247607   8.951   7.007   1.592
15789WAT      O47608   0.825   8.878   1.924
15789WAT     H147609   0.749   8.829   1.966
15789WAT     H247610   0.892   8.812   1.890
15790WAT      O47611   0.635   1.543   3.252
15790WAT     H147612   0.618   1.598   3.334
15790WAT     H247613   0.644   1.603   3.173
15791WAT      O47614   7.834   3.799   5.288
15791WAT     H147615   7.769   3.869   5.259
15791WAT     H247616   7.920   3.842   5.316
15792WAT      O47617   7.650   9.450   6.244
15792WAT     H147618   7.686   9.374   6.190
15792WAT     H247619   7.708   9.465   6.324
15793WAT      O47620   8.207   5.030   6.985
15793WAT     H147621   8.257   5.023   7.071
15793WAT     H247622   8.190   5.126   6.963
15794WAT      O47623   3.909   8.211   9.742
15794WAT     H147624   3.842   8.203   9.816
15794WAT     H247625   3.965   8.293   9.756
15795WAT      O47626   0.372   8.814   6.795
15795WAT     H147627   0.434   8.871   6.848
15795WAT     H247628   0.296   8.783   6.854
15796WAT      O47629   5.572   2.216   2.123
15796WAT     H147630   5.501   2.267   2.172
15796WAT     H247631   5.656   2.271   2.121
15797WAT      O47632   5.126   4.838   0.312
15797WAT     H147633   5.157   4.762   0.255
15797WAT     H247634   5.082   4.803   0.395
15798WAT      O47635   8.528   9.812   3.349
15798WAT     H147636   8.509   9.814   3.447
15798WAT     H247637   8.443   9.823   3.298
15799WAT      O47638   6.593   6.601   0.141
15799WAT     H147639   6.683   6.570   0.174
15799WAT     H247640   6.606   6.677   0.078
15800WAT      O47641   9.046   5.601   2.501
15800WAT     H147642   8.979   5.672   2.477
15800WAT     H247643   9.087   5.623   2.590
15801WAT      O47644   8.828   1.642   0.139
15801WAT     H147645   8.769   1.641   0.058
15801WAT     H247646   8.776   1.672   0.218
15802WAT      O47647   7.283   5.702   0.367
15802WAT     H147648   7.227   5.770   0.415
15802WAT     H247649   7.335   5.747   0.294
15803WAT      O47650   9.642   8.885   4.969
15803WAT     H147651   9.619   8.970   4.922
15803WAT     H247652   9.738   8.863   4.952
15804WAT      O47653   7.902   3.925   9.186
15804WAT     H147654   7.972   3.996   9.177
15804WAT     H247655   7.901   3.892   9.281
15805WAT      O47656   8.713   5.602   7.970
15805WAT     H147657   8.796   5.545   7.976
15805WAT     H247658   8.739   5.696   7.949
15806WAT      O47659   7.362   6.558   2.196
15806WAT     H147660   7.297   6.634   2.205
15806WAT     H247661   7.330   6.496   2.125
15807WAT      O47662   9.638   3.656   9.151
15807WAT     H147663   9.541   3.678   9.139
15807WAT     H247664   9.661   3.657   9.249
15808WAT      O47665   4.009   2.552   7.116
15808WAT     H147666   3.948   2.630   7.129
15808WAT     H247667   4.093   2.566   7.169
15809WAT      O47668   0.275   6.622   3.927
15809WAT     H147669   0.360   6.582   3.962
15809WAT     H247670   0.291   6.658   3.835
15810WAT      O47671   7.866   8.513   3.400
15810WAT     H147672   7.881   8.608   3.372
15810WAT     H247673   7.816   8.512   3.487
15811WAT      O47674   5.766   4.278   3.367
15811WAT     H147675   5.821   4.195   3.373
15811WAT     H247676   5.824   4.355   3.340
15812WAT      O47677   0.987   4.564   0.058
15812WAT     H147678   0.890   4.584   0.071
15812WAT     H247679   1.040   4.601   0.134
15813WAT      O47680   1.450   3.902   3.591
15813WAT     H147681   1.422   3.914   3.495
15813WAT     H247682   1.402   3.824   3.630
15814WAT      O47683   7.577   6.749   8.034
15814WAT     H147684   7.554   6.784   7.943
15814WAT     H247685   7.675   6.732   8.040
15815WAT      O47686   4.442   2.481   0.903
15815WAT     H147687   4.447   2.567   0.954
15815WAT     H247688   4.460   2.499   0.806
15816WAT      O47689   9.163   9.044   0.067
15816WAT     H147690   9.235   9.108   0.094
15816WAT     H247691   9.096   9.091   0.011
15817WAT      O47692   2.795   6.868   0.925
15817WAT     H147693   2.715   6.816   0.955
15817WAT     H247694   2.839   6.821   0.849
15818WAT      O47695   3.478   8.942   6.592
15818WAT     H147696   3.444   9.002   6.664
15818WAT     H247697   3.406   8.927   6.524
15819WAT      O47698   7.524   3.533   1.558
15819WAT     H147699   7.434   3.499   1.586
15819WAT     H247700   7.566   3.583   1.634
15820WAT      O47701   3.836   7.967   2.296
15820WAT     H147702   3.769   7.977   2.369
15820WAT     H247703   3.928   7.987   2.332
15821WAT      O47704   6.166   6.779   0.391
15821WAT     H147705   6.107   6.761   0.469
15821WAT     H247706   6.114   6.765   0.306
15822WAT      O47707   1.817   8.243   3.144
15822WAT     H147708   1.896   8.239   3.083
15822WAT     H247709   1.749   8.308   3.108
15823WAT      O47710   9.174   7.659   3.682
15823WAT     H147711   9.163   7.610   3.595
15823WAT     H247712   9.208   7.596   3.751
15824WAT      O47713   4.084   8.094   2.000
15824WAT     H147714   3.985   8.100   2.012
15824WAT     H247715   4.121   8.024   2.061
15825WAT      O47716   3.827   4.853   3.283
15825WAT     H147717   3.864   4.904   3.361
15825WAT     H247718   3.781   4.915   3.221
15826WAT      O47719   8.691   6.035   6.038
15826WAT     H147720   8.601   6.056   6.000
15826WAT     H247721   8.728   6.116   6.083
15827WAT      O47722   6.340   1.258   9.605
15827WAT     H147723   6.363   1.195   9.680
15827WAT     H247724   6.382   1.226   9.521
15828WAT      O47725   3.017   7.124   1.689
15828WAT     H147726   3.065   7.211   1.698
15828WAT     H247727   2.934   7.126   1.745
15829WAT      O47728   2.603   0.808   7.593
15829WAT     H147729   2.660   0.826   7.674
15829WAT     H247730   2.648   0.741   7.534
15830WAT      O47731   7.186   1.581   6.871
15830WAT     H147732   7.186   1.520   6.949
15830WAT     H247733   7.157   1.532   6.789
15831WAT      O47734   4.420   9.305   7.438
15831WAT     H147735   4.492   9.238   7.458
15831WAT     H247736   4.346   9.260   7.388
15832WAT      O47737   6.673   1.902   4.677
15832WAT     H147738   6.758   1.850   4.672
15832WAT     H247739   6.596   1.844   4.651
15833WAT      O47740   9.858   4.102   6.567
15833WAT     H147741   9.888   4.177   6.508
15833WAT     H247742   9.760   4.086   6.553
15834WAT      O47743   8.749   8.535   4.122
15834WAT     H147744   8.707   8.481   4.195
15834WAT     H247745   8.706   8.512   4.034
15835WAT      O47746   1.716   9.379   0.038
15835WAT     H147747   1.708   9.444   0.113
15835WAT     H247748   1.734   9.288   0.075
15836WAT      O47749   8.445   5.126   5.384
15836WAT     H147750   8.472   5.031   5.392
15836WAT     H247751   8.519   5.185   5.416
15837WAT      O47752   8.305   8.064   5.444
15837WAT     H147753   8.278   7.976   5.482
15837WAT     H247754   8.381   8.101   5.496
15838WAT      O47755   8.919   7.485   4.104
15838WAT     H147756   8.986   7.512   4.174
15838WAT     H247757   8.849   7.555   4.097
15839WAT      O47758   4.491   5.584   4.060
15839WAT     H147759   4.443   5.666   4.090
15839WAT     H247760   4.456   5.555   3.971
15840WAT      O47761   8.037   9.535   1.787
15840WAT     H147762   7.991   9.544   1.876
15840WAT     H247763   8.018   9.615   1.731
15841WAT      O47764   9.456   6.527   7.980
15841WAT     H147765   9.526   6.568   7.922
15841WAT     H247766   9.458   6.570   8.070
15842WAT      O47767   4.597   1.289   6.220
15842WAT     H147768   4.513   1.340   6.202
15842WAT     H247769   4.653   1.287   6.137
15843WAT      O47770   0.993   6.214   0.097
15843WAT     H147771   1.021   6.292   0.153
15843WAT     H247772   0.983   6.133   0.154
15844WAT      O47773   0.756   0.099   8.957
15844WAT     H147774   0.846   0.064   8.980
15844WAT     H247775   0.733   0.175   9.018
15845WAT      O47776   8.805   6.798   7.495
15845WAT     H147777   8.783   6.861   7.568
15845WAT     H247778   8.848   6.848   7.419
15846WAT      O47779   3.828   5.317   0.661
15846WAT     H147780   3.840   5.219   0.674
15846WAT     H247781   3.730   5.338   0.658
15847WAT      O47782   0.930   4.297   7.095
15847WAT     H147783   0.851   4.285   7.154
15847WAT     H247784   0.993   4.221   7.107
15848WAT      O47785   1.096   9.831   3.544
15848WAT     H147786   1.067   9.757   3.484
15848WAT     H247787   1.018   9.864   3.597
15849WAT      O47788   9.691   1.230   3.932
15849WAT     H147789   9.706   1.269   4.023
15849WAT     H247790   9.630   1.289   3.880
15850WAT      O47791   9.818   6.261   2.616
15850WAT     H147792   9.732   6.291   2.658
15850WAT     H247793   9.831   6.164   2.633
15851WAT      O47794   9.409   7.623   3.075
15851WAT     H147795   9.314   7.628   3.106
15851WAT     H247796   9.412   7.633   2.976
15852WAT      O47797   8.484   7.083   1.204
15852WAT     H147798   8.440   7.107   1.291
15852WAT     H247799   8.547   7.007   1.219
15853WAT      O47800   4.155   8.657   6.732
15853WAT     H147801   4.206   8.654   6.819
15853WAT     H247802   4.218   8.641   6.657
15854WAT      O47803   8.637   6.586   0.048
15854WAT     H147804   8.561   6.643   0.018
15854WAT     H247805   8.635   6.499  -0.002
15855WAT      O47806   7.436   4.199   6.612
15855WAT     H147807   7.351   4.187   6.662
15855WAT     H247808   7.487   4.276   6.650
15856WAT      O47809   4.110   2.357   0.779
15856WAT     H147810   4.172   2.326   0.851
15856WAT     H247811   4.025   2.391   0.820
15857WAT      O47812   3.756   9.350   0.915
15857WAT     H147813   3.668   9.396   0.902
15857WAT     H247814   3.800   9.385   0.997
15858WAT      O47815   9.145   3.672   4.942
15858WAT     H147816   9.232   3.649   4.984
15858WAT     H247817   9.125   3.607   4.868
15859WAT      O47818   4.335   1.600   8.406
15859WAT     H147819   4.335   1.669   8.478
15859WAT     H247820   4.430   1.573   8.387
15860WAT      O47821   2.283   3.372   1.557
15860WAT     H147822   2.304   3.466   1.531
15860WAT     H247823   2.294   3.313   1.477
15861WAT      O47824   5.373   0.843   2.276
15861WAT     H147825   5.312   0.792   2.337
15861WAT     H247826   5.320   0.911   2.224
15862WAT      O47827   1.344   4.346   1.886
15862WAT     H147828   1.393   4.424   1.924
15862WAT     H247829   1.287   4.376   1.810
15863WAT      O47830   8.480   9.478   0.271
15863WAT     H147831   8.426   9.534   0.208
15863WAT     H247832   8.434   9.390   0.284
15864WAT      O47833   9.597   4.952   6.133
15864WAT     H147834   9.581   4.859   6.100
15864WAT     H247835   9.553   4.965   6.221
15865WAT      O47836   7.895   0.698   9.262
15865WAT     H147837   7.838   0.636   9.208
15865WAT     H247838   7.887   0.676   9.359
15866WAT      O47839   9.348   2.751   8.069
15866WAT     H147840   9.418   2.734   8.000
15866WAT     H247841   9.347   2.675   8.134
15867WAT      O47842   2.516   0.750   5.818
15867WAT     H147843   2.592   0.700   5.775
15867WAT     H247844   2.429   0.707   5.791
15868WAT      O47845   2.864   9.704   4.832
15868WAT     H147846   2.940   9.639   4.826
15868WAT     H247847   2.895   9.786   4.880
15869WAT      O47848   7.079   7.904   1.225
15869WAT     H147849   7.002   7.967   1.239
15869WAT     H247850   7.165   7.954   1.234
15870WAT      O47851   5.225   6.656   6.137
15870WAT     H147852   5.303   6.696   6.089
15870WAT     H247853   5.192   6.721   6.206
15871WAT      O47854   0.426   5.474   2.522
15871WAT     H147855   0.393   5.438   2.435
15871WAT     H247856   0.351   5.518   2.571
15872WAT      O47857   6.840   0.684   5.900
15872WAT     H147858   6.840   0.629   5.984
15872WAT     H247859   6.920   0.743   5.899
15873WAT      O47860   9.297   9.334   8.540
15873WAT     H147861   9.334   9.426   8.527
15873WAT     H247862   9.316   9.279   8.458
15874WAT      O47863   2.471   4.195   1.652
15874WAT     H147864   2.461   4.220   1.556
15874WAT     H247865   2.487   4.096   1.660
15875WAT      O47866   2.265   3.128   8.492
15875WAT     H147867   2.261   3.145   8.590
15875WAT     H247868   2.173   3.116   8.456
15876WAT      O47869   7.894   2.499   4.468
15876WAT     H147870   7.808   2.492   4.416
15876WAT     H247871   7.933   2.590   4.456
15877WAT      O47872   2.557   1.205   0.528
15877WAT     H147873   2.542   1.144   0.451
15877WAT     H247874   2.623   1.276   0.502
15878WAT      O47875   5.828   5.104   5.374
15878WAT     H147876   5.903   5.044   5.348
15878WAT     H247877   5.865   5.190   5.411
15879WAT      O47878   7.621   6.714   2.673
15879WAT     H147879   7.568   6.765   2.604
15879WAT     H247880   7.710   6.758   2.685
15880WAT      O47881   6.012   5.995   0.659
15880WAT     H147882   6.033   6.093   0.666
15880WAT     H247883   5.929   5.975   0.712
15881WAT      O47884   3.895   3.639   6.117
15881WAT     H147885   3.918   3.630   6.214
15881WAT     H247886   3.883   3.736   6.095
15882WAT      O47887   3.159   2.626   9.373
15882WAT     H147888   3.161   2.699   9.441
15882WAT     H247889   3.161   2.665   9.281
15883WAT      O47890   0.798   3.988   6.538
15883WAT     H147891   0.705   4.008   6.570
15883WAT     H247892   0.820   3.892   6.559
15884WAT      O47893   6.672   9.225   0.699
15884WAT     H147894   6.608   9.212   0.775
15884WAT     H247895   6.686   9.139   0.652
15885WAT      O47896   3.907   1.323   5.186
15885WAT     H147897   3.862   1.237   5.159
15885WAT     H247898   3.994   1.332   5.138
15886WAT      O47899   6.934   8.559   8.799
15886WAT     H147900   6.964   8.559   8.894
15886WAT     H247901   6.834   8.566   8.795
15887WAT      O47902   9.712   5.449   1.891
15887WAT     H147903   9.678   5.411   1.977
15887WAT     H247904   9.805   5.417   1.876
15888WAT      O47905   8.295   0.169   4.665
15888WAT     H147906   8.242   0.094   4.705
15888WAT     H247907   8.356   0.133   4.594
15889WAT      O47908   6.320   1.792   8.006
15889WAT     H147909   6.417   1.799   7.983
15889WAT     H247910   6.310   1.746   8.094
15890WAT      O47911   9.810   8.479   9.335
15890WAT     H147912   9.767   8.525   9.257
15890WAT     H247913   9.847   8.547   9.398
15891WAT      O47914   3.746   5.667   2.434
15891WAT     H147915   3.830   5.715   2.460
15891WAT     H247916   3.739   5.582   2.486
15892WAT      O47917   4.695   9.042   1.722
15892WAT     H147918   4.638   9.013   1.645
15892WAT     H247919   4.757   8.969   1.747
15893WAT      O47920   6.674   0.283   6.754
15893WAT     H147921   6.691   0.191   6.787
15893WAT     H247922   6.691   0.288   6.656
15894WAT      O47923   3.004   4.236   0.905
15894WAT     H147924   2.949   4.220   0.988
15894WAT     H247925   3.006   4.153   0.850
15895WAT      O47926   1.453   2.060   2.286
15895WAT     H147927   1.418   1.967   2.297
15895WAT     H247928   1.537   2.058   2.233
15896WAT      O47929   9.216   7.504   9.835
15896WAT     H147930   9.136   7.456   9.798
15896WAT     H247931   9.214   7.599   9.805
15897WAT      O47932   3.487   1.259   4.325
15897WAT     H147933   3.501   1.298   4.234
15897WAT     H247934   3.510   1.161   4.322
15898WAT      O47935   6.547   6.141   0.371
15898WAT     H147936   6.515   6.086   0.294
15898WAT     H247937   6.630   6.190   0.344
15899WAT      O47938   8.447   9.551   5.970
15899WAT     H147939   8.427   9.561   5.873
15899WAT     H247940   8.501   9.468   5.985
15900WAT      O47941   0.367   5.846   6.902
15900WAT     H147942   0.284   5.792   6.920
15900WAT     H247943   0.341   5.930   6.855
15901WAT      O47944   0.681   4.062   5.362
15901WAT     H147945   0.771   4.106   5.373
15901WAT     H247946   0.618   4.099   5.430
15902WAT      O47947   6.034   8.664   0.985
15902WAT     H147948   5.986   8.750   0.966
15902WAT     H247949   6.108   8.651   0.919
15903WAT      O47950   1.400   7.793   5.140
15903WAT     H147951   1.405   7.730   5.061
15903WAT     H247952   1.465   7.763   5.209
15904WAT      O47953   4.894   8.470   6.774
15904WAT     H147954   4.969   8.465   6.840
15904WAT     H247955   4.860   8.378   6.755
15905WAT      O47956   3.841   1.573   3.968
15905WAT     H147957   3.748   1.607   3.955
15905WAT     H247958   3.878   1.611   4.053
15906WAT      O47959   5.787   6.278   3.034
15906WAT     H147960   5.714   6.325   2.983
15906WAT     H247961   5.874   6.293   2.989
15907WAT      O47962   1.643   8.553   7.305
15907WAT     H147963   1.620   8.485   7.235
15907WAT     H247964   1.641   8.644   7.264
15908WAT      O47965   2.297   5.543   3.955
15908WAT     H147966   2.294   5.635   3.993
15908WAT     H247967   2.379   5.496   3.987
15909WAT      O47968   8.038   8.596   8.492
15909WAT     H147969   8.000   8.516   8.539
15909WAT     H247970   7.990   8.678   8.522
15910WAT      O47971   0.443   1.851   8.687
15910WAT     H147972   0.385   1.775   8.656
15910WAT     H247973   0.412   1.936   8.644
15911WAT      O47974   5.804   3.350   1.164
15911WAT     H147975   5.863   3.311   1.093
15911WAT     H247976   5.828   3.446   1.179
15912WAT      O47977   3.310   9.284   6.634
15912WAT     H147978   3.293   9.224   6.555
15912WAT     H247979   3.376   9.241   6.695
15913WAT      O47980   9.456   4.332   5.181
15913WAT     H147981   9.412   4.406   5.232
15913WAT     H247982   9.444   4.246   5.231
15914WAT      O47983   4.306   7.590   0.232
15914WAT     H147984   4.231   7.576   0.168
15914WAT     H247985   4.270   7.617   0.321
15915WAT      O47986   4.431   1.204   4.472
15915WAT     H147987   4.444   1.105   4.458
15915WAT     H247988   4.474   1.254   4.397
15916WAT      O47989   7.281   1.129   8.679
15916WAT     H147990   7.241   1.037   8.678
15916WAT     H247991   7.379   1.123   8.663
15917WAT      O47992   7.455   5.210   2.919
15917WAT     H147993   7.449   5.126   2.866
15917WAT     H247994   7.547   5.221   2.955
15918WAT      O47995   5.349   7.127   6.079
15918WAT     H147996   5.355   7.225   6.058
15918WAT     H247997   5.357   7.074   5.995
15919WAT      O47998   2.359   8.694   5.209
15919WAT     H147999   2.447   8.742   5.205
15919WAT     H248000   2.343   8.645   5.123
15920WAT      O48001   8.083   4.337   2.302
15920WAT     H148002   8.010   4.322   2.235
15920WAT     H248003   8.095   4.254   2.357
15921WAT      O48004   8.901   8.635   0.698
15921WAT     H148005   8.919   8.538   0.683
15921WAT     H248006   8.811   8.646   0.739
15922WAT      O48007   9.504   4.321   2.208
15922WAT     H148008   9.457   4.406   2.231
15922WAT     H248009   9.523   4.270   2.291
15923WAT      O48010   2.843   7.408   8.997
15923WAT     H148011   2.746   7.392   8.982
15923WAT     H248012   2.856   7.490   9.051
15924WAT      O48013   4.806   1.780   0.264
15924WAT     H148014   4.709   1.770   0.242
15924WAT     H248015   4.842   1.693   0.296
15925WAT      O48016   5.017   6.019   2.694
15925WAT     H148017   4.988   5.937   2.646
15925WAT     H248018   4.937   6.075   2.718
15926WAT      O48019   6.826   0.909   2.293
15926WAT     H148020   6.739   0.861   2.283
15926WAT     H248021   6.857   0.939   2.203
15927WAT      O48022   3.343   8.242   9.632
15927WAT     H148023   3.317   8.335   9.608
15927WAT     H248024   3.265   8.181   9.617
15928WAT      O48025   2.246   1.131   6.115
15928WAT     H148026   2.177   1.202   6.128
15928WAT     H248027   2.205   1.052   6.070
15929WAT      O48028   8.803   7.709   5.973
15929WAT     H148029   8.853   7.783   5.928
15929WAT     H248030   8.818   7.623   5.924
15930WAT      O48031   1.142   2.873   7.843
15930WAT     H148032   1.063   2.916   7.887
15930WAT     H248033   1.111   2.807   7.775
15931WAT      O48034   7.930   8.279   3.871
15931WAT     H148035   7.926   8.234   3.782
15931WAT     H248036   7.951   8.376   3.859
15932WAT      O48037   5.979   1.390   9.689
15932WAT     H148038   6.004   1.329   9.614
15932WAT     H248039   6.005   1.347   9.776
15933WAT      O48040   8.951   7.522   0.961
15933WAT     H148041   8.984   7.504   0.869
15933WAT     H248042   8.902   7.609   0.963
15934WAT      O48043   9.170   2.278   1.181
15934WAT     H148044   9.075   2.307   1.176
15934WAT     H248045   9.223   2.326   1.110
15935WAT      O48046   3.262   1.589   9.413
15935WAT     H148047   3.277   1.681   9.450
15935WAT     H248048   3.341   1.531   9.435
15936WAT      O48049   6.003   3.192   6.865
15936WAT     H148050   6.054   3.111   6.836
15936WAT     H248051   5.951   3.228   6.788
15937WAT      O48052   7.326   3.370   0.546
15937WAT     H148053   7.236   3.413   0.533
15937WAT     H248054   7.392   3.440   0.574
15938WAT      O48055   9.420   5.504   7.632
15938WAT     H148056   9.351   5.442   7.669
15938WAT     H248057   9.510   5.460   7.635
15939WAT      O48058   6.868   5.585   3.575
15939WAT     H148059   6.890   5.524   3.651
15939WAT     H248060   6.809   5.659   3.607
15940WAT      O48061   5.955   6.956   7.573
15940WAT     H148062   6.014   7.037   7.576
15940WAT     H248063   6.011   6.874   7.564
15941WAT      O48064   5.044   6.250   1.477
15941WAT     H148065   4.951   6.270   1.444
15941WAT     H248066   5.059   6.152   1.477
15942WAT      O48067   9.259   3.478   5.501
15942WAT     H148068   9.357   3.461   5.508
15942WAT     H248069   9.212   3.393   5.477
15943WAT      O48070   4.296   4.332   3.459
15943WAT     H148071   4.233   4.405   3.485
15943WAT     H248072   4.279   4.252   3.517
15944WAT      O48073   1.071   5.357   5.036
15944WAT     H148074   1.014   5.317   4.963
15944WAT     H248075   1.165   5.367   5.003
15945WAT      O48076   4.698   1.568   4.050
15945WAT     H148077   4.616   1.527   4.010
15945WAT     H248078   4.737   1.633   3.984
15946WAT      O48079   6.470   7.203   2.791
15946WAT     H148080   6.387   7.252   2.814
15946WAT     H248081   6.490   7.214   2.693
15947WAT      O48082   2.417   8.199   5.913
15947WAT     H148083   2.482   8.145   5.967
15947WAT     H248084   2.410   8.161   5.821
15948WAT      O48085   2.381   7.460   2.393
15948WAT     H148086   2.317   7.507   2.332
15948WAT     H248087   2.347   7.467   2.488
15949WAT      O48088   0.255   3.977   7.291
15949WAT     H148089   0.195   3.964   7.370
15949WAT     H248090   0.204   4.020   7.217
15950WAT      O48091   3.163   2.873   0.100
15950WAT     H148092   3.144   2.933   0.022
15950WAT     H248093   3.106   2.901   0.178
15951WAT      O48094   8.949   8.969   2.061
15951WAT     H148095   8.895   8.889   2.086
15951WAT     H248096   8.917   9.048   2.114
15952WAT      O48097   8.819   9.494   5.999
15952WAT     H148098   8.778   9.552   6.068
15952WAT     H248099   8.764   9.412   5.987
15953WAT      O48100   2.131   1.011   8.602
15953WAT     H148101   2.104   1.098   8.561
15953WAT     H248102   2.079   0.937   8.559
15954WAT      O48103   0.635   7.043   8.566
15954WAT     H148104   0.705   6.972   8.555
15954WAT     H248105   0.585   7.027   8.651
15955WAT      O48106   3.277   0.214   0.186
15955WAT     H148107   3.357   0.274   0.197
15955WAT     H248108   3.203   0.245   0.246
15956WAT      O48109   8.752   4.574   6.932
15956WAT     H148110   8.797   4.620   7.009
15956WAT     H248111   8.672   4.626   6.905
15957WAT      O48112   2.172   9.226   3.281
15957WAT     H148113   2.085   9.238   3.234
15957WAT     H248114   2.246   9.254   3.221
15958WAT      O48115   7.497   0.156   5.416
15958WAT     H148116   7.573   0.143   5.352
15958WAT     H248117   7.439   0.074   5.417
15959WAT      O48118   3.092   4.902   0.866
15959WAT     H148119   3.041   4.847   0.933
15959WAT     H248120   3.033   4.921   0.787
15960WAT      O48121   9.555   1.771   3.380
15960WAT     H148122   9.654   1.759   3.382
15960WAT     H248123   9.533   1.858   3.336
15961WAT      O48124   2.554   2.799   4.649
15961WAT     H148125   2.584   2.872   4.586
15961WAT     H248126   2.627   2.779   4.714
15962WAT      O48127   1.741   9.767   9.100
15962WAT     H148128   1.784   9.677   9.110
15962WAT     H248129   1.694   9.791   9.185
15963WAT      O48130   0.102   5.167   1.123
15963WAT     H148131   0.064   5.083   1.161
15963WAT     H248132   0.044   5.244   1.148
15964WAT      O48133   0.281   5.857   7.988
15964WAT     H148134   0.356   5.840   7.924
15964WAT     H248135   0.211   5.913   7.944
15965WAT      O48136   2.012   5.820   8.683
15965WAT     H148137   2.018   5.738   8.739
15965WAT     H248138   2.043   5.899   8.735
15966WAT      O48139   0.705   3.217   6.957
15966WAT     H148140   0.634   3.177   7.014
15966WAT     H248141   0.663   3.269   6.882
15967WAT      O48142   2.618   6.930   4.039
15967WAT     H148143   2.586   6.846   3.997
15967WAT     H248144   2.667   6.985   3.972
15968WAT      O48145   5.332   2.913   3.686
15968WAT     H148146   5.399   2.842   3.709
15968WAT     H248147   5.379   2.991   3.644
15969WAT      O48148   6.719   5.456   5.352
15969WAT     H148149   6.657   5.533   5.340
15969WAT     H248150   6.755   5.427   5.263
15970WAT      O48151   1.886   8.365   1.112
15970WAT     H148152   1.814   8.432   1.130
15970WAT     H248153   1.934   8.390   1.028
15971WAT      O48154   8.968   9.321   4.730
15971WAT     H148155   9.030   9.359   4.662
15971WAT     H248156   8.968   9.222   4.724
15972WAT      O48157   1.275   0.167   2.597
15972WAT     H148158   1.258   0.265   2.613
15972WAT     H248159   1.356   0.156   2.539
15973WAT      O48160   3.946   7.520   9.053
15973WAT     H148161   3.923   7.425   9.035
15973WAT     H248162   4.029   7.544   9.002
15974WAT      O48163   1.936   6.186   4.944
15974WAT     H148164   1.999   6.122   4.901
15974WAT     H248165   1.846   6.144   4.954
15975WAT      O48166   5.998   7.416   7.375
15975WAT     H148167   6.092   7.429   7.343
15975WAT     H248168   5.942   7.493   7.347
15976WAT      O48169   2.541   1.849   1.399
15976WAT     H148170   2.550   1.811   1.492
15976WAT     H248171   2.483   1.931   1.403
15977WAT      O48172   8.913   1.269   9.396
15977WAT     H148173   8.896   1.315   9.483
15977WAT     H248174   8.826   1.239   9.356
15978WAT      O48175   4.916   3.912   3.185
15978WAT     H148176   4.989   3.956   3.132
15978WAT     H248177   4.949   3.891   3.277
15979WAT      O48178   3.617   3.253   3.197
15979WAT     H148179   3.635   3.162   3.158
15979WAT     H248180   3.564   3.242   3.281
15980WAT      O48181   6.152   8.694   0.714
15980WAT     H148182   6.245   8.728   0.726
15980WAT     H248183   6.154   8.607   0.664
15981WAT      O48184   0.744   7.183   9.239
15981WAT     H148185   0.685   7.243   9.292
15981WAT     H248186   0.719   7.188   9.142
15982WAT      O48187   0.250   6.668   5.116
15982WAT     H148188   0.333   6.674   5.060
15982WAT     H248189   0.267   6.606   5.193
15983WAT      O48190   9.091   4.255   9.695
15983WAT     H148191   9.014   4.191   9.692
15983WAT     H248192   9.158   4.230   9.625
15984WAT      O48193   4.991   3.785   0.501
15984WAT     H148194   4.998   3.867   0.445
15984WAT     H248195   5.082   3.753   0.526
15985WAT      O48196   8.695   6.073   0.148
15985WAT     H148197   8.774   6.132   0.167
15985WAT     H248198   8.728   5.981   0.125
15986WAT      O48199   9.126   5.958   8.819
15986WAT     H148200   9.148   5.904   8.738
15986WAT     H248201   9.142   5.902   8.901
15987WAT      O48202   8.363   3.082   8.592
15987WAT     H148203   8.380   3.103   8.688
15987WAT     H248204   8.302   3.152   8.553
15988WAT      O48205   0.450   8.432   2.089
15988WAT     H148206   0.478   8.451   2.183
15988WAT     H248207   0.424   8.336   2.080
15989WAT      O48208   0.374   4.262   2.489
15989WAT     H148209   0.373   4.162   2.498
15989WAT     H248210   0.461   4.298   2.522
15990WAT      O48211   9.470   6.681   5.382
15990WAT     H148212   9.567   6.656   5.381
15990WAT     H248213   9.450   6.737   5.462
15991WAT      O48214   4.952   9.464   1.748
15991WAT     H148215   4.929   9.397   1.677
15991WAT     H248216   4.924   9.556   1.717
15992WAT      O48217   6.102   8.531   0.396
15992WAT     H148218   6.010   8.568   0.403
15992WAT     H248219   6.140   8.515   0.487
15993WAT      O48220   9.859   3.162   2.083
15993WAT     H148221   9.906   3.078   2.055
15993WAT     H248222   9.851   3.164   2.183
15994WAT      O48223   6.246   2.358   1.894
15994WAT     H148224   6.344   2.357   1.876
15994WAT     H248225   6.202   2.284   1.843
15995WAT      O48226   0.338   6.237   4.490
15995WAT     H148227   0.340   6.236   4.589
15995WAT     H248228   0.429   6.255   4.454
15996WAT      O48229   6.373   2.021   5.883
15996WAT     H148230   6.422   2.105   5.904
15996WAT     H248231   6.279   2.042   5.859
15997WAT      O48232   0.578   6.576   7.137
15997WAT     H148233   0.569   6.515   7.059
15997WAT     H248234   0.668   6.618   7.136
15998WAT      O48235   0.989   7.003   1.906
15998WAT     H148236   0.984   7.057   1.822
15998WAT     H248237   1.081   7.007   1.943
15999WAT      O48238   5.934   1.878   1.060
15999WAT     H148239   5.904   1.799   1.114
15999WAT     H248240   5.973   1.846   0.973
16000WAT      O48241   9.436   1.155   9.615
16000WAT     H148242   9.439   1.217   9.536
16000WAT     H248243   9.513   1.092   9.612
16001WAT      O48244   3.464   1.027   6.600
16001WAT     H148245   3.447   0.955   6.532
16001WAT     H248246   3.510   0.987   6.679
16002WAT      O48247   0.972   9.605   1.025
16002WAT     H148248   0.958   9.601   0.926
16002WAT     H248249   0.928   9.526   1.067
16003WAT      O48250   4.163   2.006   9.169
16003WAT     H148251   4.188   2.004   9.266
16003WAT     H248252   4.239   1.968   9.115
16004WAT      O48253   7.944   0.147   4.739
16004WAT     H148254   7.953   0.241   4.773
16004WAT     H248255   8.022   0.093   4.770
16005WAT      O48256   1.899   5.313   4.509
16005WAT     H148257   1.893   5.217   4.481
16005WAT     H248258   1.916   5.370   4.429
16006WAT      O48259   9.259   4.356   6.929
16006WAT     H148260   9.210   4.347   7.016
16006WAT     H248261   9.278   4.452   6.911
16007WAT      O48262   1.806   9.180   0.207
16007WAT     H148263   1.840   9.099   0.254
16007WAT     H248264   1.721   9.210   0.250
16008WAT      O48265   0.366   7.211   2.041
16008WAT     H148266   0.415   7.295   2.066
16008WAT     H248267   0.338   7.163   2.123
16009WAT      O48268   8.763   6.360   0.916
16009WAT     H148269   8.679   6.401   0.952
16009WAT     H248270   8.830   6.431   0.898
16010WAT      O48271   5.298   7.863   0.515
16010WAT     H148272   5.332   7.771   0.496
16010WAT     H248273   5.203   7.871   0.485
16011WAT      O48274   4.211   3.916   0.124
16011WAT     H148275   4.212   3.974   0.043
16011WAT     H248276   4.297   3.924   0.173
16012WAT      O48277   7.916   2.903   7.692
16012WAT     H148278   7.847   2.902   7.619
16012WAT     H248279   7.872   2.927   7.778
16013WAT      O48280   3.515   2.902   0.369
16013WAT     H148281   3.473   2.812   0.367
16013WAT     H248282   3.587   2.907   0.300
16014WAT      O48283   2.416   6.254   5.495
16014WAT     H148284   2.471   6.230   5.414
16014WAT     H248285   2.477   6.265   5.574
16015WAT      O48286   3.575   6.369   9.010
16015WAT     H148287   3.606   6.275   9.024
16015WAT     H248288   3.647   6.433   9.037
16016WAT      O48289   7.906   6.734   8.680
16016WAT     H148290   7.978   6.795   8.714
16016WAT     H248291   7.948   6.656   8.634
16017WAT      O48292   7.926   7.975   1.542
16017WAT     H148293   8.025   7.988   1.536
16017WAT     H248294   7.888   8.041   1.607
16018WAT      O48295   2.921   5.463   6.381
16018WAT     H148296   2.871   5.383   6.413
16018WAT     H248297   3.017   5.455   6.406
16019WAT      O48298   6.887   5.569   4.614
16019WAT     H148299   6.833   5.486   4.599
16019WAT     H248300   6.984   5.548   4.602
16020WAT      O48301   8.959   7.839   7.014
16020WAT     H148302   9.010   7.857   6.930
16020WAT     H248303   8.869   7.881   7.009
16021WAT      O48304   8.405   8.838   6.046
16021WAT     H148305   8.502   8.847   6.071
16021WAT     H248306   8.348   8.887   6.112
16022WAT      O48307   0.382   5.889   4.228
16022WAT     H148308   0.285   5.877   4.249
16022WAT     H248309   0.392   5.948   4.148
16023WAT      O48310   0.529   7.289   3.172
16023WAT     H148311   0.436   7.281   3.136
16023WAT     H248312   0.527   7.339   3.259
16024WAT      O48313   3.099   7.765   3.394
16024WAT     H148314   3.002   7.740   3.400
16024WAT     H248315   3.153   7.686   3.366
16025WAT      O48316   1.324   9.590   4.081
16025WAT     H148317   1.289   9.654   4.149
16025WAT     H248318   1.250   9.530   4.050
16026WAT      O48319   7.621   7.200   0.039
16026WAT     H148320   7.642   7.109   0.073
16026WAT     H248321   7.522   7.214   0.040
16027WAT      O48322   2.232   4.065   0.417
16027WAT     H148323   2.258   4.086   0.323
16027WAT     H248324   2.148   4.010   0.417
16028WAT      O48325   9.265   5.348   7.848
16028WAT     H148326   9.320   5.399   7.914
16028WAT     H248327   9.202   5.288   7.898
16029WAT      O48328   1.993   5.347   6.359
16029WAT     H148329   1.964   5.387   6.446
16029WAT     H248330   2.069   5.284   6.375
16030WAT      O48331   6.743   8.505   1.519
16030WAT     H148332   6.734   8.536   1.424
16030WAT     H248333   6.711   8.410   1.526
16031WAT      O48334   0.883   5.592   3.814
16031WAT     H148335   0.796   5.589   3.864
16031WAT     H248336   0.955   5.551   3.871
16032WAT      O48337   9.587   8.246   8.761
16032WAT     H148338   9.598   8.306   8.681
16032WAT     H248339   9.490   8.241   8.785
16033WAT      O48340   5.031   0.761   6.362
16033WAT     H148341   5.088   0.726   6.288
16033WAT     H248342   4.948   0.706   6.371
16034WAT      O48343   8.228   3.179   0.737
16034WAT     H148344   8.191   3.267   0.707
16034WAT     H248345   8.154   3.122   0.773
16035WAT      O48346   4.520   1.922   1.574
16035WAT     H148347   4.535   1.938   1.476
16035WAT     H248348   4.570   1.991   1.627
16036WAT      O48349   3.132   8.369   5.591
16036WAT     H148350   3.088   8.317   5.518
16036WAT     H248351   3.092   8.343   5.679
16037WAT      O48352   2.318   4.307   4.260
16037WAT     H148353   2.346   4.353   4.175
16037WAT     H248354   2.364   4.218   4.265
16038WAT      O48355   8.293   2.017   0.572
16038WAT     H148356   8.233   1.982   0.644
16038WAT     H248357   8.261   1.984   0.483
16039WAT      O48358   5.002   0.206   4.977
16039WAT     H148359   4.946   0.166   5.050
16039WAT     H248360   4.977   0.163   4.890
16040WAT      O48361   1.164   7.506   4.805
16040WAT     H148362   1.237   7.566   4.773
16040WAT     H248363   1.181   7.413   4.774
16041WAT      O48364   3.845   1.618   0.548
16041WAT     H148365   3.839   1.632   0.449
16041WAT     H248366   3.851   1.707   0.593
16042WAT      O48367   6.991   1.750   8.754
16042WAT     H148368   6.991   1.843   8.718
16042WAT     H248369   6.963   1.686   8.683
16043WAT      O48370   6.658   4.653   2.303
16043WAT     H148371   6.605   4.721   2.355
16043WAT     H248372   6.664   4.568   2.355
16044WAT      O48373   4.103   0.265   0.744
16044WAT     H148374   4.104   0.211   0.660
16044WAT     H248375   4.026   0.329   0.742
16045WAT      O48376   6.189   4.850   0.459
16045WAT     H148377   6.180   4.947   0.480
16045WAT     H248378   6.134   4.827   0.379
16046WAT      O48379   9.335   1.259   9.271
16046WAT     H148380   9.257   1.319   9.287
16046WAT     H248381   9.373   1.277   9.180
16047WAT      O48382   1.523   5.405   7.847
16047WAT     H148383   1.569   5.433   7.763
16047WAT     H248384   1.562   5.319   7.880
16048WAT      O48385   6.346   6.967   0.307
16048WAT     H148386   6.325   7.062   0.284
16048WAT     H248387   6.270   6.927   0.359
16049WAT      O48388   2.887   9.610   0.571
16049WAT     H148389   2.870   9.616   0.670
16049WAT     H248390   2.819   9.665   0.523
16050WAT      O48391   1.708   0.074   1.746
16050WAT     H148392   1.663   0.125   1.819
16050WAT     H248393   1.653   0.081   1.663
16051WAT      O48394   8.464   3.725   3.019
16051WAT     H148395   8.547   3.770   2.985
16051WAT     H248396   8.481   3.689   3.110
16052WAT      O48397   9.291   6.981   4.185
16052WAT     H148398   9.329   6.956   4.274
16052WAT     H248399   9.295   7.080   4.174
16053WAT      O48400   6.380   8.401   3.067
16053WAT     H148401   6.286   8.394   3.031
16053WAT     H248402   6.428   8.474   3.018
16054WAT      O48403   6.655   4.673   4.022
16054WAT     H148404   6.704   4.757   4.042
16054WAT     H248405   6.585   4.658   4.092
16055WAT      O48406   3.190   5.764   8.162
16055WAT     H148407   3.283   5.780   8.128
16055WAT     H248408   3.124   5.790   8.091
16056WAT      O48409   8.139   6.659   1.672
16056WAT     H148410   8.170   6.657   1.767
16056WAT     H248411   8.049   6.616   1.665
16057WAT      O48412   1.666   8.733   4.915
16057WAT     H148413   1.628   8.790   4.988
16057WAT     H248414   1.633   8.639   4.928
16058WAT      O48415   8.020   2.738   4.798
16058WAT     H148416   7.984   2.667   4.858
16058WAT     H248417   7.999   2.715   4.703
16059WAT      O48418   1.686   5.883   4.365
16059WAT     H148419   1.665   5.950   4.294
16059WAT     H248420   1.613   5.815   4.369
16060WAT      O48421   0.871   6.580   7.287
16060WAT     H148422   0.878   6.660   7.347
16060WAT     H248423   0.827   6.506   7.337
16061WAT      O48424   6.636   1.672   4.155
16061WAT     H148425   6.654   1.574   4.145
16061WAT     H248426   6.660   1.719   4.071
16062WAT      O48427   1.277   7.815   4.534
16062WAT     H148428   1.245   7.847   4.445
16062WAT     H248429   1.338   7.736   4.522
16063WAT      O48430   6.272   7.074   1.390
16063WAT     H148431   6.263   7.171   1.368
16063WAT     H248432   6.243   7.058   1.485
16064WAT      O48433   6.969   4.702   5.567
16064WAT     H148434   6.900   4.644   5.609
16064WAT     H248435   6.926   4.782   5.526
16065WAT      O48436   3.482   7.686   7.293
16065WAT     H148437   3.406   7.673   7.230
16065WAT     H248438   3.568   7.687   7.242
16066WAT      O48439   5.118   4.801   9.864
16066WAT     H148440   5.171   4.797   9.949
16066WAT     H248441   5.073   4.713   9.850
16067WAT      O48442   8.761   5.233   7.975
16067WAT     H148443   8.850   5.225   8.020
16067WAT     H248444   8.689   5.240   8.045
16068WAT      O48445   5.786   8.503   8.399
16068WAT     H148446   5.812   8.570   8.329
16068WAT     H248447   5.687   8.502   8.408
16069WAT      O48448   9.084   7.398   7.330
16069WAT     H148449   9.075   7.402   7.430
16069WAT     H248450   9.048   7.482   7.290
16070WAT      O48451   9.446   4.363   8.443
16070WAT     H148452   9.373   4.382   8.377
16070WAT     H248453   9.452   4.264   8.457
16071WAT      O48454   4.593   5.526   8.989
16071WAT     H148455   4.534   5.447   9.005
16071WAT     H248456   4.662   5.530   9.062
16072WAT      O48457   7.586   6.810   7.764
16072WAT     H148458   7.617   6.905   7.769
16072WAT     H248459   7.661   6.753   7.729
16073WAT      O48460   1.265   1.078   6.669
16073WAT     H148461   1.339   1.099   6.734
16073WAT     H248462   1.281   1.130   6.585
16074WAT      O48463   3.232   1.517   6.921
16074WAT     H148464   3.236   1.522   7.021
16074WAT     H248465   3.211   1.607   6.884
16075WAT      O48466   2.658   7.857   7.868
16075WAT     H148467   2.643   7.857   7.967
16075WAT     H248468   2.714   7.936   7.843
16076WAT      O48469   2.471   5.151   5.461
16076WAT     H148470   2.528   5.233   5.457
16076WAT     H248471   2.529   5.070   5.462
16077WAT      O48472   1.015   1.880   8.483
16077WAT     H148473   1.095   1.863   8.540
16077WAT     H248474   0.953   1.943   8.530
16078WAT      O48475   8.252   9.134   4.989
16078WAT     H148476   8.161   9.132   5.031
16078WAT     H248477   8.258   9.063   4.919
16079WAT      O48478   5.257   7.977   3.570
16079WAT     H148479   5.317   8.048   3.534
16079WAT     H248480   5.225   8.002   3.661
16080WAT      O48481   0.210   4.294   8.142
16080WAT     H148482   0.221   4.229   8.066
16080WAT     H248483   0.127   4.347   8.128
16081WAT      O48484   1.533   5.721   8.211
16081WAT     H148485   1.548   5.625   8.190
16081WAT     H248486   1.500   5.768   8.129
16082WAT      O48487   7.390   1.067   0.574
16082WAT     H148488   7.479   1.113   0.564
16082WAT     H248489   7.367   1.059   0.670
16083WAT      O48490   1.686   8.037   0.939
16083WAT     H148491   1.659   8.116   0.994
16083WAT     H248492   1.628   7.959   0.962
16084WAT      O48493   6.725   3.627   0.965
16084WAT     H148494   6.765   3.557   1.023
16084WAT     H248495   6.649   3.671   1.012
16085WAT      O48496   5.176   8.485   2.935
16085WAT     H148497   5.218   8.417   2.875
16085WAT     H248498   5.209   8.471   3.029
16086WAT      O48499   7.706   0.259   9.051
16086WAT     H148500   7.642   0.208   9.109
16086WAT     H248501   7.738   0.200   8.977
16087WAT      O48502   3.405   8.767   0.751
16087WAT     H148503   3.470   8.729   0.686
16087WAT     H248504   3.323   8.710   0.754
16088WAT      O48505   2.144   3.106   4.489
16088WAT     H148506   2.088   3.043   4.543
16088WAT     H248507   2.240   3.095   4.515
16089WAT      O48508   6.894   4.581   7.206
16089WAT     H148509   6.832   4.657   7.224
16089WAT     H248510   6.976   4.589   7.263
16090WAT      O48511   9.204   6.207   1.618
16090WAT     H148512   9.203   6.298   1.576
16090WAT     H248513   9.176   6.138   1.550
16091WAT      O48514   2.414   7.509   0.766
16091WAT     H148515   2.364   7.595   0.771
16091WAT     H248516   2.511   7.525   0.782
16092WAT      O48517   9.473   6.569   8.782
16092WAT     H148518   9.424   6.550   8.697
16092WAT     H248519   9.488   6.484   8.832
16093WAT      O48520   1.023   1.817   9.269
16093WAT     H148521   1.107   1.824   9.322
16093WAT     H248522   0.974   1.734   9.296
16094WAT      O48523   6.972   1.040   0.877
16094WAT     H148524   7.038   0.994   0.936
16094WAT     H248525   6.971   0.995   0.787
16095WAT      O48526   8.149   9.211   3.489
16095WAT     H148527   8.237   9.183   3.452
16095WAT     H248528   8.160   9.239   3.585
16096WAT      O48529   5.529   4.021   0.183
16096WAT     H148530   5.573   3.935   0.209
16096WAT     H248531   5.521   4.026   0.083
16097WAT      O48532   6.568   9.034   0.885
16097WAT     H148533   6.601   8.969   0.818
16097WAT     H248534   6.476   9.007   0.916
16098WAT      O48535   0.801   1.820   7.402
16098WAT     H148536   0.884   1.848   7.354
16098WAT     H248537   0.778   1.888   7.472
16099WAT      O48538   8.608   4.753   5.774
16099WAT     H148539   8.699   4.727   5.742
16099WAT     H248540   8.606   4.852   5.792
16100WAT      O48541   4.634   4.619   9.616
16100WAT     H148542   4.591   4.702   9.650
16100WAT     H248543   4.732   4.635   9.604
16101WAT      O48544   7.754   3.380   9.721
16101WAT     H148545   7.826   3.450   9.722
16101WAT     H248546   7.739   3.350   9.627
16102WAT      O48547   4.254   7.343   2.629
16102WAT     H148548   4.313   7.273   2.588
16102WAT     H248549   4.160   7.331   2.595
16103WAT      O48550   5.779   9.775   3.945
16103WAT     H148551   5.740   9.867   3.955
16103WAT     H248552   5.844   9.775   3.869
16104WAT      O48553   6.917   8.065   3.189
16104WAT     H148554   6.956   8.119   3.264
16104WAT     H248555   6.991   8.020   3.139
16105WAT      O48556   3.833   1.457   4.628
16105WAT     H148557   3.773   1.377   4.637
16105WAT     H248558   3.916   1.431   4.580
16106WAT      O48559   0.507   8.268   1.586
16106WAT     H148560   0.452   8.190   1.614
16106WAT     H248561   0.453   8.352   1.593
16107WAT      O48562   2.791   6.547   4.879
16107WAT     H148563   2.733   6.552   4.960
16107WAT     H248564   2.740   6.502   4.805
16108WAT      O48565   8.354   5.417   1.238
16108WAT     H148566   8.302   5.498   1.265
16108WAT     H248567   8.298   5.336   1.249
16109WAT      O48568   2.231   5.308   1.213
16109WAT     H148569   2.294   5.339   1.284
16109WAT     H248570   2.150   5.367   1.211
16110WAT      O48571   6.462   4.272   5.422
16110WAT     H148572   6.485   4.280   5.519
16110WAT     H248573   6.527   4.211   5.377
16111WAT      O48574   8.840   3.036   6.522
16111WAT     H148575   8.787   3.099   6.579
16111WAT     H248576   8.823   2.942   6.552
16112WAT      O48577   9.480   4.992   7.992
16112WAT     H148578   9.575   5.022   7.985
16112WAT     H248579   9.461   4.925   7.920
16113WAT      O48580   3.442   9.526   6.541
16113WAT     H148581   3.381   9.449   6.557
16113WAT     H248582   3.433   9.558   6.447
16114WAT      O48583   1.929   0.228   3.464
16114WAT     H148584   1.832   0.215   3.481
16114WAT     H248585   1.947   0.325   3.446
16115WAT      O48586   4.890   1.930   7.991
16115WAT     H148587   4.986   1.907   8.007
16115WAT     H248588   4.839   1.847   7.965
16116WAT      O48589   5.948   4.444   2.283
16116WAT     H148590   6.011   4.366   2.287
16116WAT     H248591   5.931   4.477   2.376
16117WAT      O48592   3.071   5.746   4.518
16117WAT     H148593   3.031   5.829   4.557
16117WAT     H248594   3.133   5.704   4.585
16118WAT      O48595   8.172   4.280   3.176
16118WAT     H148596   8.105   4.305   3.246
16118WAT     H248597   8.211   4.191   3.198
16119WAT      O48598   0.112   2.704   9.415
16119WAT     H148599   0.084   2.671   9.325
16119WAT     H248600   0.073   2.794   9.432
16120WAT      O48601   7.036   3.036   5.542
16120WAT     H148602   7.135   3.052   5.539
16120WAT     H248603   6.988   3.123   5.531
16121WAT      O48604   7.475   1.861   2.488
16121WAT     H148605   7.519   1.898   2.569
16121WAT     H248606   7.490   1.763   2.482
16122WAT      O48607   9.872   5.475   8.147
16122WAT     H148608   9.880   5.532   8.065
16122WAT     H248609   9.917   5.387   8.132
16123WAT      O48610   1.222   5.816   8.948
16123WAT     H148611   1.228   5.717   8.953
16123WAT     H248612   1.156   5.842   8.877
16124WAT      O48613   7.318   7.228   0.047
16124WAT     H148614   7.335   7.145   0.101
16124WAT     H248615   7.256   7.206  -0.028
16125WAT      O48616   3.746   9.385   5.929
16125WAT     H148617   3.679   9.445   5.971
16125WAT     H248618   3.700   9.316   5.873
16126WAT      O48619   5.552   4.248   9.374
16126WAT     H148620   5.565   4.229   9.471
16126WAT     H248621   5.469   4.303   9.361
16127WAT      O48622   8.574   1.971   7.733
16127WAT     H148623   8.480   1.997   7.710
16127WAT     H248624   8.625   2.052   7.761
16128WAT      O48625   9.011   4.283   6.631
16128WAT     H148626   8.995   4.315   6.538
16128WAT     H248627   8.961   4.197   6.645
16129WAT      O48628   6.804   6.459   6.904
16129WAT     H148629   6.745   6.494   6.832
16129WAT     H248630   6.815   6.360   6.893
16130WAT      O48631   7.583   9.248   4.405
16130WAT     H148632   7.542   9.287   4.487
16130WAT     H248633   7.663   9.301   4.379
16131WAT      O48634   3.996   5.524   6.336
16131WAT     H148635   3.969   5.430   6.357
16131WAT     H248636   4.071   5.552   6.397
16132WAT      O48637   0.205   5.336   6.645
16132WAT     H148638   0.291   5.385   6.635
16132WAT     H248639   0.194   5.271   6.570
16133WAT      O48640   8.571   2.977   7.735
16133WAT     H148641   8.647   2.931   7.689
16133WAT     H248642   8.492   2.979   7.674
16134WAT      O48643   5.513   3.148   7.627
16134WAT     H148644   5.542   3.120   7.536
16134WAT     H248645   5.448   3.081   7.664
16135WAT      O48646   0.882   0.622   6.822
16135WAT     H148647   0.885   0.628   6.921
16135WAT     H248648   0.957   0.564   6.790
16136WAT      O48649   7.192   8.598   5.601
16136WAT     H148650   7.274   8.644   5.565
16136WAT     H248651   7.216   8.505   5.629
16137WAT      O48652   4.348   5.539   4.350
16137WAT     H148653   4.317   5.633   4.337
16137WAT     H248654   4.446   5.539   4.373
16138WAT      O48655   9.150   1.641   7.666
16138WAT     H148656   9.180   1.729   7.629
16138WAT     H248657   9.051   1.641   7.676
16139WAT      O48658   5.980   9.590   3.388
16139WAT     H148659   6.063   9.641   3.410
16139WAT     H248660   5.994   9.493   3.408
16140WAT      O48661   5.744   2.815   3.082
16140WAT     H148662   5.728   2.831   3.179
16140WAT     H248663   5.775   2.900   3.039
16141WAT      O48664   7.232   6.210   5.809
16141WAT     H148665   7.236   6.115   5.839
16141WAT     H248666   7.234   6.213   5.709
16142WAT      O48667   2.024   3.866   8.311
16142WAT     H148668   2.053   3.962   8.307
16142WAT     H248669   2.096   3.808   8.273
16143WAT      O48670   0.677   0.593   6.597
16143WAT     H148671   0.746   0.610   6.667
16143WAT     H248672   0.587   0.583   6.640
16144WAT      O48673   0.126   1.420   7.128
16144WAT     H148674   0.073   1.439   7.210
16144WAT     H248675   0.097   1.333   7.089
16145WAT      O48676   0.040   8.058   9.505
16145WAT     H148677   0.021   8.074   9.602
16145WAT     H248678   0.124   8.104   9.480
16146WAT      O48679   8.252   3.214   1.826
16146WAT     H148680   8.268   3.184   1.920
16146WAT     H248681   8.326   3.274   1.797
16147WAT      O48682   2.424   7.744   6.335
16147WAT     H148683   2.324   7.748   6.342
16147WAT     H248684   2.463   7.738   6.427
16148WAT      O48685   0.604   1.078   1.183
16148WAT     H148686   0.560   1.125   1.259
16148WAT     H248687   0.703   1.093   1.186
16149WAT      O48688   5.935   6.743   9.487
16149WAT     H148689   5.857   6.800   9.459
16149WAT     H248690   6.003   6.800   9.533
16150WAT      O48691   7.854   1.483   1.313
16150WAT     H148692   7.819   1.392   1.294
16150WAT     H248693   7.948   1.490   1.280
16151WAT      O48694   1.150   4.159   7.456
16151WAT     H148695   1.107   4.133   7.543
16151WAT     H248696   1.164   4.077   7.401
16152WAT      O48697   4.614   6.739   4.217
16152WAT     H148698   4.713   6.745   4.231
16152WAT     H248699   4.594   6.673   4.145
16153WAT      O48700   7.612   6.445   7.748
16153WAT     H148701   7.668   6.525   7.726
16153WAT     H248702   7.624   6.420   7.844
16154WAT      O48703   9.501   5.430   1.687
16154WAT     H148704   9.555   5.443   1.770
16154WAT     H248705   9.409   5.401   1.711
16155WAT      O48706   2.566   6.197   5.963
16155WAT     H148707   2.513   6.282   5.968
16155WAT     H248708   2.508   6.124   5.927
16156WAT      O48709   7.764   7.818   4.299
16156WAT     H148710   7.695   7.836   4.230
16156WAT     H248711   7.758   7.888   4.371
16157WAT      O48712   3.408   9.834   7.508
16157WAT     H148713   3.367   9.745   7.531
16157WAT     H248714   3.379   9.902   7.575
16158WAT      O48715   1.697   6.651   7.529
16158WAT     H148716   1.777   6.610   7.486
16158WAT     H248717   1.710   6.750   7.537
16159WAT      O48718   2.218   1.842   4.976
16159WAT     H148719   2.126   1.804   4.970
16159WAT     H248720   2.284   1.775   4.941
16160WAT      O48721   7.237   2.314   6.980
16160WAT     H148722   7.153   2.283   7.025
16160WAT     H248723   7.222   2.318   6.881
16161WAT      O48724   8.401   5.537   3.730
16161WAT     H148725   8.449   5.516   3.645
16161WAT     H248726   8.464   5.527   3.807
16162WAT      O48727   3.069   5.885   2.092
16162WAT     H148728   3.167   5.895   2.109
16162WAT     H248729   3.032   5.813   2.151
16163WAT      O48730   8.213   3.800   9.606
16163WAT     H148731   8.180   3.751   9.525
16163WAT     H248732   8.153   3.877   9.626
16164WAT      O48733   8.215   6.768   4.598
16164WAT     H148734   8.252   6.677   4.578
16164WAT     H248735   8.187   6.772   4.694
16165WAT      O48736   3.575   1.303   0.549
16165WAT     H148737   3.563   1.307   0.449
16165WAT     H248738   3.555   1.211   0.581
16166WAT      O48739   1.475   0.919   7.357
16166WAT     H148740   1.519   0.835   7.327
16166WAT     H248741   1.434   0.966   7.278
16167WAT      O48742   2.248   1.292   4.834
16167WAT     H148743   2.269   1.351   4.913
16167WAT     H248744   2.301   1.324   4.755
16168WAT      O48745   9.487   5.687   3.442
16168WAT     H148746   9.462   5.640   3.358
16168WAT     H248747   9.571   5.740   3.428
16169WAT      O48748   6.088   9.571   8.619
16169WAT     H148749   6.011   9.507   8.626
16169WAT     H248750   6.173   9.519   8.612
16170WAT      O48751   7.520   6.247   2.133
16170WAT     H148752   7.437   6.302   2.124
16170WAT     H248753   7.551   6.219   2.042
16171WAT      O48754   4.986   2.922   2.991
16171WAT     H148755   4.976   2.873   2.904
16171WAT     H248756   4.994   2.856   3.066
16172WAT      O48757   4.389   6.227   0.613
16172WAT     H148758   4.318   6.236   0.544
16172WAT     H248759   4.374   6.144   0.667
16173WAT      O48760   3.742   2.737   0.693
16173WAT     H148761   3.742   2.834   0.672
16173WAT     H248762   3.717   2.723   0.789
16174WAT      O48763   8.751   3.312   1.949
16174WAT     H148764   8.785   3.330   2.041
16174WAT     H248765   8.809   3.244   1.905
16175WAT      O48766   0.207   9.449   7.771
16175WAT     H148767   0.169   9.360   7.795
16175WAT     H248768   0.143   9.497   7.711
16176WAT      O48769   9.336   2.317   1.831
16176WAT     H148770   9.391   2.295   1.911
16176WAT     H248771   9.273   2.391   1.853
16177WAT      O48772   2.446   4.975   4.649
16177WAT     H148773   2.426   4.926   4.734
16177WAT     H248774   2.543   5.001   4.649
16178WAT      O48775   9.853   4.418   8.626
16178WAT     H148776   9.806   4.475   8.693
16178WAT     H248777   9.847   4.322   8.652
16179WAT      O48778   9.357   0.069   7.343
16179WAT     H148779   9.379   0.032   7.253
16179WAT     H248780   9.441   0.080   7.396
16180WAT      O48781   1.835   8.678   5.680
16180WAT     H148782   1.846   8.756   5.743
16180WAT     H248783   1.865   8.594   5.725
16181WAT      O48784   7.062   1.724   0.360
16181WAT     H148785   7.146   1.760   0.321
16181WAT     H248786   7.025   1.653   0.300
16182WAT      O48787   0.708   7.662   0.589
16182WAT     H148788   0.722   7.750   0.633
16182WAT     H248789   0.710   7.589   0.657
16183WAT      O48790   7.195   9.599   6.971
16183WAT     H148791   7.245   9.668   6.920
16183WAT     H248792   7.097   9.609   6.953
16184WAT      O48793   4.319   9.196   4.851
16184WAT     H148794   4.398   9.215   4.908
16184WAT     H248795   4.346   9.135   4.776
16185WAT      O48796   0.377   4.929   9.144
16185WAT     H148797   0.339   4.838   9.156
16185WAT     H248798   0.396   4.970   9.233
16186WAT      O48799   4.360   3.060   3.835
16186WAT     H148800   4.363   3.136   3.770
16186WAT     H248801   4.453   3.025   3.849
16187WAT      O48802   5.879   1.880   1.401
16187WAT     H148803   5.871   1.805   1.336
16187WAT     H248804   5.788   1.916   1.422
16188WAT      O48805   3.283   5.618   9.216
16188WAT     H148806   3.301   5.549   9.146
16188WAT     H248807   3.188   5.649   9.210
16189WAT      O48808   2.992   4.528   6.496
16189WAT     H148809   2.914   4.537   6.558
16189WAT     H248810   3.056   4.462   6.533
16190WAT      O48811   3.574   6.125   8.054
16190WAT     H148812   3.603   6.119   8.149
16190WAT     H248813   3.519   6.045   8.030
16191WAT      O48814   1.675   9.233   0.680
16191WAT     H148815   1.763   9.187   0.687
16191WAT     H248816   1.607   9.170   0.642
16192WAT      O48817   9.386   0.604   5.577
16192WAT     H148818   9.331   0.664   5.518
16192WAT     H248819   9.359   0.618   5.672
16193WAT      O48820   5.313   6.679   2.015
16193WAT     H148821   5.323   6.637   1.925
16193WAT     H248822   5.401   6.713   2.046
16194WAT      O48823   5.015   1.091   2.347
16194WAT     H148824   5.020   1.035   2.430
16194WAT     H248825   5.075   1.052   2.277
16195WAT      O48826   7.072   8.394   3.751
16195WAT     H148827   7.051   8.315   3.693
16195WAT     H248828   6.999   8.405   3.818
16196WAT      O48829   0.453   8.793   2.050
16196WAT     H148830   0.538   8.748   2.077
16196WAT     H248831   0.392   8.727   2.008
16197WAT      O48832   0.156   4.190   3.064
16197WAT     H148833   0.089   4.264   3.062
16197WAT     H248834   0.113   4.107   3.100
16198WAT      O48835   0.988   7.203   1.712
16198WAT     H148836   1.072   7.249   1.683
16198WAT     H248837   0.910   7.264   1.699
16199WAT      O48838   7.756   3.601   5.956
16199WAT     H148839   7.766   3.528   5.888
16199WAT     H248840   7.659   3.622   5.967
16200WAT      O48841   7.496   9.249   5.259
16200WAT     H148842   7.442   9.211   5.333
16200WAT     H248843   7.470   9.205   5.172
16201WAT      O48844   1.858   8.004   6.822
16201WAT     H148845   1.758   8.010   6.832
16201WAT     H248846   1.897   8.096   6.827
16202WAT      O48847   0.719   4.829   6.060
16202WAT     H148848   0.768   4.916   6.066
16202WAT     H248849   0.770   4.766   6.002
16203WAT      O48850   5.207   8.160   4.642
16203WAT     H148851   5.207   8.206   4.731
16203WAT     H248852   5.181   8.226   4.571
16204WAT      O48853   3.878   2.227   3.228
16204WAT     H148854   3.930   2.219   3.313
16204WAT     H248855   3.804   2.160   3.228
16205WAT      O48856   0.492   6.804   5.944
16205WAT     H148857   0.428   6.745   5.894
16205WAT     H248858   0.524   6.877   5.883
16206WAT      O48859   8.719   7.679   4.141
16206WAT     H148860   8.690   7.721   4.055
16206WAT     H248861   8.657   7.707   4.214
16207WAT      O48862   2.842   8.079   7.872
16207WAT     H148863   2.891   8.119   7.949
16207WAT     H248864   2.806   8.153   7.814
16208WAT      O48865   1.317   3.405   0.842
16208WAT     H148866   1.288   3.409   0.746
16208WAT     H248867   1.309   3.311   0.875
16209WAT      O48868   2.013   6.854   1.528
16209WAT     H148869   1.928   6.897   1.559
16209WAT     H248870   2.040   6.784   1.594
16210WAT      O48871   9.710   2.330   7.092
16210WAT     H148872   9.808   2.315   7.077
16210WAT     H248873   9.695   2.375   7.180
16211WAT      O48874   0.936   0.109   8.023
16211WAT     H148875   0.994   0.183   8.059
16211WAT     H248876   0.954   0.025   8.074
16212WAT      O48877   2.785   7.674   8.505
16212WAT     H148878   2.706   7.730   8.531
16212WAT     H248879   2.807   7.691   8.409
16213WAT      O48880   2.302   7.076   8.936
16213WAT     H148881   2.348   7.123   8.860
16213WAT     H248882   2.362   7.079   9.016
16214WAT      O48883   5.067   5.685   2.038
16214WAT     H148884   5.006   5.727   1.970
16214WAT     H248885   5.097   5.596   2.005
16215WAT      O48886   2.288   7.403   0.511
16215WAT     H148887   2.344   7.445   0.583
16215WAT     H248888   2.338   7.325   0.472
16216WAT      O48889   3.195   0.265   9.556
16216WAT     H148890   3.117   0.203   9.553
16216WAT     H248891   3.248   0.247   9.639
16217WAT      O48892   1.675   7.255   6.510
16217WAT     H148893   1.575   7.253   6.515
16217WAT     H248894   1.713   7.180   6.564
16218WAT      O48895   7.628   4.964   3.273
16218WAT     H148896   7.663   5.055   3.251
16218WAT     H248897   7.688   4.920   3.339
16219WAT      O48898   3.635   1.527   7.472
16219WAT     H148899   3.610   1.523   7.375
16219WAT     H248900   3.712   1.590   7.485
16220WAT      O48901   7.153   8.341   8.339
16220WAT     H148902   7.242   8.344   8.385
16220WAT     H248903   7.086   8.392   8.393
16221WAT      O48904   1.826   2.297   2.369
16221WAT     H148905   1.914   2.264   2.402
16221WAT     H248906   1.815   2.273   2.273
16222WAT      O48907   8.716   8.781   5.185
16222WAT     H148908   8.714   8.865   5.238
16222WAT     H248909   8.810   8.761   5.157
16223WAT      O48910   0.252   7.856   7.928
16223WAT     H148911   0.253   7.758   7.908
16223WAT     H248912   0.346   7.890   7.928
16224WAT      O48913   4.415   2.275   1.494
16224WAT     H148914   4.473   2.208   1.447
16224WAT     H248915   4.321   2.265   1.462
16225WAT      O48916   9.450   0.935   7.091
16225WAT     H148917   9.398   0.854   7.118
16225WAT     H248918   9.387   1.010   7.073
16226WAT      O48919   8.321   3.101   6.504
16226WAT     H148920   8.368   3.167   6.444
16226WAT     H248921   8.270   3.151   6.574
16227WAT      O48922   4.302   0.157   6.537
16227WAT     H148923   4.293   0.208   6.623
16227WAT     H248924   4.334   0.065   6.557
16228WAT      O48925   4.272   1.254   6.474
16228WAT     H148926   4.291   1.352   6.488
16228WAT     H248927   4.227   1.242   6.386
16229WAT      O48928   5.929   6.615   4.230
16229WAT     H148929   5.864   6.670   4.281
16229WAT     H248930   5.902   6.519   4.234
16230WAT      O48931   6.295   0.717   7.536
16230WAT     H148932   6.331   0.719   7.443
16230WAT     H248933   6.201   0.681   7.535
16231WAT      O48934   7.265   2.993   6.259
16231WAT     H148935   7.213   3.051   6.321
16231WAT     H248936   7.235   2.898   6.270
16232WAT      O48937   3.967   8.444   6.675
16232WAT     H148938   3.997   8.537   6.693
16232WAT     H248939   3.995   8.416   6.583
16233WAT      O48940   3.438   8.103   3.510
16233WAT     H148941   3.474   8.080   3.420
16233WAT     H248942   3.501   8.069   3.581
16234WAT      O48943   8.006   3.811   0.312
16234WAT     H148944   8.055   3.896   0.292
16234WAT     H248945   8.036   3.740   0.250
16235WAT      O48946   7.626   6.293   7.484
16235WAT     H148947   7.590   6.326   7.572
16235WAT     H248948   7.725   6.281   7.491
16236WAT      O48949   7.748   2.956   6.782
16236WAT     H148950   7.663   2.906   6.768
16236WAT     H248951   7.744   3.043   6.734
16237WAT      O48952   8.852   1.393   7.436
16237WAT     H148953   8.883   1.461   7.502
16237WAT     H248954   8.900   1.405   7.349
16238WAT      O48955   0.104   1.018   4.922
16238WAT     H148956   0.204   1.020   4.917
16238WAT     H248957   0.067   1.012   4.829
16239WAT      O48958   5.121   3.257   8.578
16239WAT     H148959   5.109   3.159   8.564
16239WAT     H248960   5.218   3.280   8.574
16240WAT      O48961   9.488   1.025   1.699
16240WAT     H148962   9.429   0.946   1.680
16240WAT     H248963   9.446   1.082   1.768
16241WAT      O48964   5.281   8.440   7.406
16241WAT     H148965   5.312   8.422   7.500
16241WAT     H248966   5.353   8.488   7.356
16242WAT      O48967   4.138   9.621   1.404
16242WAT     H148968   4.114   9.716   1.426
16242WAT     H248969   4.226   9.598   1.446
16243WAT      O48970   2.408   1.964   5.488
16243WAT     H148971   2.478   1.898   5.461
16243WAT     H248972   2.451   2.048   5.521
16244WAT      O48973   3.959   9.286   7.707
16244WAT     H148974   3.885   9.323   7.651
16244WAT     H248975   3.990   9.355   7.772
16245WAT      O48976   6.764   1.743   0.468
16245WAT     H148977   6.857   1.726   0.435
16245WAT     H248978   6.718   1.808   0.407
16246WAT      O48979   4.717   1.032   2.468
16246WAT     H148980   4.653   1.065   2.537
16246WAT     H248981   4.670   0.968   2.406
16247WAT      O48982   3.421   3.074   6.638
16247WAT     H148983   3.519   3.091   6.623
16247WAT     H248984   3.397   3.100   6.731
16248WAT      O48985   1.103   0.949   5.702
16248WAT     H148986   1.112   1.036   5.751
16248WAT     H248987   1.065   0.880   5.763
16249WAT      O48988   3.132   0.486   2.873
16249WAT     H148989   3.089   0.440   2.950
16249WAT     H248990   3.088   0.575   2.858
16250WAT      O48991   7.477   3.170   1.383
16250WAT     H148992   7.409   3.201   1.449
16250WAT     H248993   7.542   3.243   1.364
16251WAT      O48994   9.853   1.096   1.467
16251WAT     H148995   9.802   1.130   1.388
16251WAT     H248996   9.797   1.029   1.516
16252WAT      O48997   6.697   0.993   2.693
16252WAT     H148998   6.712   0.895   2.699
16252WAT     H248999   6.616   1.018   2.747
16253WAT      O49000   1.161   1.504   9.895
16253WAT     H149001   1.190   1.429   9.954
16253WAT     H249002   1.182   1.481   9.800
16254WAT      O49003   1.272   8.114   8.845
16254WAT     H149004   1.347   8.082   8.902
16254WAT     H249005   1.304   8.188   8.786
16255WAT      O49006   9.754   4.576   5.920
16255WAT     H149007   9.759   4.481   5.889
16255WAT     H249008   9.678   4.586   5.984
16256WAT      O49009   2.562   5.330   6.823
16256WAT     H149010   2.505   5.388   6.764
16256WAT     H249011   2.653   5.369   6.830
16257WAT      O49012   9.640   7.378   6.175
16257WAT     H149013   9.618   7.294   6.224
16257WAT     H249014   9.707   7.358   6.104
16258WAT      O49015   9.795   8.507   7.026
16258WAT     H149016   9.822   8.416   6.994
16258WAT     H249017   9.823   8.518   7.122
16259WAT      O49018   7.955   2.732   9.517
16259WAT     H149019   7.955   2.830   9.536
16259WAT     H249020   8.029   2.710   9.452
16260WAT      O49021   6.733   2.900   1.457
16260WAT     H149022   6.740   2.984   1.403
16260WAT     H249023   6.636   2.877   1.470
16261WAT      O49024   7.812   1.329   3.508
16261WAT     H149025   7.848   1.241   3.477
16261WAT     H249026   7.888   1.391   3.529
16262WAT      O49027   2.207   6.867   6.554
16262WAT     H149028   2.231   6.782   6.507
16262WAT     H249029   2.277   6.936   6.536
16263WAT      O49030   2.276   2.235   1.690
16263WAT     H149031   2.184   2.239   1.652
16263WAT     H249032   2.301   2.325   1.727
16264WAT      O49033   0.425   6.776   2.746
16264WAT     H149034   0.514   6.749   2.709
16264WAT     H249035   0.418   6.876   2.747
16265WAT      O49036   8.533   5.180   3.801
16265WAT     H149037   8.544   5.084   3.775
16265WAT     H249038   8.440   5.195   3.836
16266WAT      O49039   1.745   0.822   9.558
16266WAT     H149040   1.843   0.832   9.545
16266WAT     H249041   1.719   0.726   9.550
16267WAT      O49042   1.379   3.615   9.336
16267WAT     H149043   1.331   3.651   9.256
16267WAT     H249044   1.456   3.675   9.359
16268WAT      O49045   0.912   2.397   7.169
16268WAT     H149046   0.870   2.410   7.259
16268WAT     H249047   0.842   2.412   7.098
16269WAT      O49048   5.157   3.352   7.415
16269WAT     H149049   5.109   3.328   7.500
16269WAT     H249050   5.095   3.404   7.356
16270WAT      O49051   5.872   1.655   5.127
16270WAT     H149052   5.883   1.752   5.145
16270WAT     H249053   5.831   1.642   5.037
16271WAT      O49054   3.000   6.876   5.995
16271WAT     H149055   3.044   6.828   6.071
16271WAT     H249056   2.915   6.918   6.027
16272WAT      O49057   1.504   1.099   6.167
16272WAT     H149058   1.407   1.093   6.190
16272WAT     H249059   1.517   1.075   6.070
16273WAT      O49060   9.643   4.033   2.424
16273WAT     H149061   9.655   4.066   2.517
16273WAT     H249062   9.727   3.990   2.392
16274WAT      O49063   2.192   6.406   6.774
16274WAT     H149064   2.263   6.375   6.710
16274WAT     H249065   2.188   6.343   6.851
16275WAT      O49066   0.437   4.507   1.189
16275WAT     H149067   0.473   4.575   1.252
16275WAT     H249068   0.502   4.431   1.182
16276WAT      O49069   8.006   5.200   7.234
16276WAT     H149070   7.996   5.151   7.321
16276WAT     H249071   7.952   5.154   7.163
16277WAT      O49072   5.575   4.773   1.569
16277WAT     H149073   5.506   4.781   1.497
16277WAT     H249074   5.535   4.800   1.657
16278WAT      O49075   7.246   6.117   3.128
16278WAT     H149076   7.240   6.019   3.147
16278WAT     H249077   7.167   6.164   3.169
16279WAT      O49078   5.830   3.797   8.874
16279WAT     H149079   5.783   3.880   8.907
16279WAT     H249080   5.872   3.750   8.952
16280WAT      O49081   8.266   0.379   3.199
16280WAT     H149082   8.307   0.350   3.285
16280WAT     H249083   8.288   0.475   3.183
16281WAT      O49084   8.112   1.210   0.582
16281WAT     H149085   8.106   1.112   0.598
16281WAT     H249086   8.030   1.242   0.535
16282WAT      O49087   9.870   0.908   5.805
16282WAT     H149088   9.806   0.969   5.757
16282WAT     H249089   9.964   0.936   5.785
16283WAT      O49090   5.274   3.295   4.018
16283WAT     H149091   5.179   3.288   4.048
16283WAT     H249092   5.278   3.346   3.932
16284WAT      O49093   3.761   4.346   0.062
16284WAT     H149094   3.778   4.349  -0.037
16284WAT     H249095   3.673   4.301   0.079
16285WAT      O49096   2.246   1.746   5.272
16285WAT     H149097   2.269   1.719   5.178
16285WAT     H249098   2.275   1.841   5.287
16286WAT      O49099   7.254   4.709   7.045
16286WAT     H149100   7.296   4.797   7.024
16286WAT     H249101   7.313   4.635   7.012
16287WAT      O49102   9.722   7.533   8.973
16287WAT     H149103   9.674   7.620   8.968
16287WAT     H249104   9.656   7.458   8.966
16288WAT      O49105   3.684   0.445   1.873
16288WAT     H149106   3.610   0.511   1.882
16288WAT     H249107   3.675   0.375   1.944
16289WAT      O49108   6.958   1.539   0.217
16289WAT     H149109   7.003   1.473   0.157
16289WAT     H249110   6.861   1.516   0.225
16290WAT      O49111   1.200   5.987   5.508
16290WAT     H149112   1.145   6.067   5.530
16290WAT     H249113   1.281   6.014   5.458
16291WAT      O49114   3.754   3.691   0.881
16291WAT     H149115   3.677   3.705   0.819
16291WAT     H249116   3.795   3.602   0.864
16292WAT      O49117   2.169   8.838   3.946
16292WAT     H149118   2.186   8.894   3.866
16292WAT     H249119   2.086   8.784   3.932
16293WAT      O49120   9.045   8.549   0.265
16293WAT     H149121   9.020   8.452   0.271
16293WAT     H249122   9.131   8.558   0.214
16294WAT      O49123   0.773   6.023   3.265
16294WAT     H149124   0.735   6.075   3.342
16294WAT     H249125   0.794   5.930   3.294
16295WAT      O49126   5.941   1.687   2.712
16295WAT     H149127   5.958   1.782   2.737
16295WAT     H249128   5.938   1.678   2.613
16296WAT      O49129   9.864   1.333   8.684
16296WAT     H149130   9.809   1.280   8.619
16296WAT     H249131   9.825   1.425   8.693
16297WAT      O49132   7.915   0.340   5.366
16297WAT     H149133   7.837   0.307   5.313
16297WAT     H249134   7.922   0.440   5.356
16298WAT      O49135   5.517   8.737   7.451
16298WAT     H149136   5.429   8.782   7.470
16298WAT     H249137   5.509   8.684   7.367
16299WAT      O49138   3.031   1.948   9.715
16299WAT     H149139   2.934   1.923   9.715
16299WAT     H249140   3.050   2.010   9.792
16300WAT      O49141   9.515   8.431   1.664
16300WAT     H149142   9.530   8.405   1.759
16300WAT     H249143   9.510   8.530   1.657
16301WAT      O49144   3.332   1.196   3.230
16301WAT     H149145   3.374   1.243   3.153
16301WAT     H249146   3.259   1.136   3.197
16302WAT      O49147   8.324   8.854   5.123
16302WAT     H149148   8.375   8.787   5.070
16302WAT     H249149   8.379   8.885   5.200
16303WAT      O49150   2.176   0.028   6.236
16303WAT     H149151   2.241   0.101   6.258
16303WAT     H249152   2.198  -0.011   6.147
16304WAT      O49153   8.394   1.588   8.137
16304WAT     H149154   8.336   1.508   8.152
16304WAT     H249155   8.440   1.612   8.223
16305WAT      O49156   1.464   4.570   3.802
16305WAT     H149157   1.410   4.526   3.873
16305WAT     H249158   1.411   4.572   3.717
16306WAT      O49159   0.095   8.871   5.340
16306WAT     H149160   0.036   8.944   5.305
16306WAT     H249161   0.181   8.910   5.373
16307WAT      O49162   5.528   4.268   0.307
16307WAT     H149163   5.588   4.329   0.256
16307WAT     H249164   5.521   4.180   0.260
16308WAT      O49165   4.288   0.626   1.283
16308WAT     H149166   4.304   0.548   1.222
16308WAT     H249167   4.370   0.641   1.338
16309WAT      O49168   4.613   7.879   3.391
16309WAT     H149169   4.600   7.975   3.367
16309WAT     H249170   4.709   7.863   3.413
16310WAT      O49171   0.660   0.180   1.776
16310WAT     H149172   0.749   0.195   1.733
16310WAT     H249173   0.672   0.175   1.875
16311WAT      O49174   1.652   7.829   1.617
16311WAT     H149175   1.646   7.805   1.520
16311WAT     H249176   1.741   7.872   1.635
16312WAT      O49177   1.207   8.118   2.057
16312WAT     H149178   1.112   8.086   2.063
16312WAT     H249179   1.268   8.048   2.094
16313WAT      O49180   2.396   2.363   2.307
16313WAT     H149181   2.346   2.298   2.251
16313WAT     H249182   2.491   2.366   2.279
16314WAT      O49183   8.027   9.087   0.104
16314WAT     H149184   8.001   9.183   0.101
16314WAT     H249185   8.098   9.069   0.037
16315WAT      O49186   1.506   3.767   0.452
16315WAT     H149187   1.413   3.747   0.480
16315WAT     H249188   1.553   3.818   0.524
16316WAT      O49189   9.137   2.339   2.769
16316WAT     H149190   9.092   2.312   2.854
16316WAT     H249191   9.189   2.261   2.733
16317WAT      O49192   1.849   3.437   3.085
16317WAT     H149193   1.801   3.466   3.167
16317WAT     H249194   1.946   3.423   3.105
16318WAT      O49195   0.928   5.794   0.797
16318WAT     H149196   0.919   5.695   0.787
16318WAT     H249197   0.855   5.840   0.747
16319WAT      O49198   6.920   3.543   7.627
16319WAT     H149199   6.989   3.559   7.698
16319WAT     H249200   6.960   3.560   7.537
16320WAT      O49201   9.238   8.057   8.506
16320WAT     H149202   9.193   8.106   8.580
16320WAT     H249203   9.280   8.123   8.443
16321WAT      O49204   1.738   5.660   0.383
16321WAT     H149205   1.718   5.591   0.453
16321WAT     H249206   1.670   5.733   0.387
16322WAT      O49207   8.776   1.449   9.023
16322WAT     H149208   8.715   1.469   8.946
16322WAT     H249209   8.745   1.500   9.103
16323WAT      O49210   3.530   7.424   4.555
16323WAT     H149211   3.507   7.493   4.624
16323WAT     H249212   3.467   7.431   4.478
16324WAT      O49213   8.302   5.061   5.781
16324WAT     H149214   8.401   5.051   5.789
16324WAT     H249215   8.273   5.146   5.826
16325WAT      O49216   4.718   2.154   8.451
16325WAT     H149217   4.778   2.202   8.387
16325WAT     H249218   4.721   2.056   8.432
16326WAT      O49219   2.348   1.380   4.586
16326WAT     H149220   2.421   1.446   4.603
16326WAT     H249221   2.381   1.307   4.527
16327WAT      O49222   1.996   5.784   0.412
16327WAT     H149223   1.971   5.827   0.498
16327WAT     H249224   1.922   5.724   0.381
16328WAT      O49225   5.288   2.170   5.078
16328WAT     H149226   5.351   2.244   5.103
16328WAT     H249227   5.197   2.191   5.112
16329WAT      O49228   4.255   6.030   3.536
16329WAT     H149229   4.334   5.989   3.581
16329WAT     H249230   4.204   5.960   3.486
16330WAT      O49231   1.475   2.804   0.141
16330WAT     H149232   1.435   2.723   0.098
16330WAT     H249233   1.418   2.832   0.219
16331WAT      O49234   1.604   3.460   6.217
16331WAT     H149235   1.542   3.422   6.287
16331WAT     H249236   1.566   3.545   6.182
16332WAT      O49237   3.598   7.104   2.887
16332WAT     H149238   3.671   7.045   2.851
16332WAT     H249239   3.558   7.061   2.968
16333WAT      O49240   4.103   5.479   0.776
16333WAT     H149241   4.151   5.488   0.689
16333WAT     H249242   4.053   5.393   0.778
16334WAT      O49243   7.833   6.702   3.292
16334WAT     H149244   7.930   6.688   3.310
16334WAT     H249245   7.800   6.632   3.229
16335WAT      O49246   6.915   8.499   5.823
16335WAT     H149247   6.908   8.401   5.844
16335WAT     H249248   6.928   8.550   5.908
16336WAT      O49249   8.450   0.118   7.340
16336WAT     H149250   8.514   0.070   7.400
16336WAT     H249251   8.367   0.064   7.329
16337WAT      O49252   3.352   6.127   9.254
16337WAT     H149253   3.357   6.189   9.333
16337WAT     H249254   3.335   6.034   9.286
16338WAT      O49255   7.715   8.023   8.961
16338WAT     H149256   7.764   7.935   8.958
16338WAT     H249257   7.763   8.085   9.022
16339WAT      O49258   2.467   7.649   1.788
16339WAT     H149259   2.543   7.654   1.853
16339WAT     H249260   2.480   7.570   1.728
16340WAT      O49261   5.256   2.724   3.179
16340WAT     H149262   5.261   2.658   3.104
16340WAT     H249263   5.347   2.760   3.198
16341WAT      O49264   0.571   4.125   9.190
16341WAT     H149265   0.544   4.057   9.122
16341WAT     H249266   0.552   4.216   9.155
16342WAT      O49267   8.834   5.311   4.111
16342WAT     H149268   8.861   5.405   4.127
16342WAT     H249269   8.746   5.292   4.156
16343WAT      O49270   6.551   2.053   2.692
16343WAT     H149271   6.595   2.030   2.779
16343WAT     H249272   6.505   1.972   2.656
16344WAT      O49273   2.361   5.523   4.312
16344WAT     H149274   2.369   5.616   4.276
16344WAT     H249275   2.321   5.526   4.403
16345WAT      O49276   5.272   6.751   4.105
16345WAT     H149277   5.239   6.772   4.197
16345WAT     H249278   5.360   6.704   4.111
16346WAT      O49279   6.191   4.496   8.949
16346WAT     H149280   6.118   4.561   8.967
16346WAT     H249281   6.167   4.407   8.989
16347WAT      O49282   4.819   4.857   7.892
16347WAT     H149283   4.805   4.878   7.988
16347WAT     H249284   4.779   4.930   7.836
16348WAT      O49285   0.976   4.308   8.947
16348WAT     H149286   1.049   4.260   8.898
16348WAT     H249287   1.008   4.331   9.039
16349WAT      O49288   6.695   8.828   5.367
16349WAT     H149289   6.669   8.776   5.285
16349WAT     H249290   6.626   8.815   5.438
16350WAT      O49291   9.765   3.177   9.695
16350WAT     H149292   9.745   3.201   9.790
16350WAT     H249293   9.686   3.199   9.637
16351WAT      O49294   1.439   3.348   8.132
16351WAT     H149295   1.469   3.438   8.100
16351WAT     H249296   1.473   3.334   8.225
16352WAT      O49297   8.977   5.232   9.291
16352WAT     H149298   9.006   5.148   9.244
16352WAT     H249299   8.992   5.220   9.390
16353WAT      O49300   7.686   7.800   8.572
16353WAT     H149301   7.639   7.869   8.627
16353WAT     H249302   7.680   7.711   8.617
16354WAT      O49303   1.012   0.396   8.624
16354WAT     H149304   1.066   0.317   8.593
16354WAT     H249305   0.936   0.364   8.681
16355WAT      O49306   4.587   7.989   7.604
16355WAT     H149307   4.535   8.074   7.595
16355WAT     H249308   4.673   7.997   7.554
16356WAT      O49309   1.044   7.571   4.008
16356WAT     H149310   1.076   7.478   4.027
16356WAT     H249311   1.025   7.618   4.094
16357WAT      O49312   8.657   6.906   9.456
16357WAT     H149313   8.705   6.918   9.543
16357WAT     H249314   8.572   6.960   9.457
16358WAT      O49315   9.630   4.519   4.512
16358WAT     H149316   9.674   4.462   4.442
16358WAT     H249317   9.690   4.526   4.591
16359WAT      O49318   7.094   8.448   1.842
16359WAT     H149319   7.057   8.501   1.766
16359WAT     H249320   7.027   8.445   1.916
16360WAT      O49321   5.179   8.009   9.549
16360WAT     H149322   5.253   8.073   9.566
16360WAT     H249323   5.117   8.008   9.628
16361WAT      O49324   0.277   3.024   3.513
16361WAT     H149325   0.356   3.038   3.454
16361WAT     H249326   0.240   3.113   3.541
16362WAT      O49327   8.487   3.082   2.971
16362WAT     H149328   8.412   3.076   2.905
16362WAT     H249329   8.500   3.177   2.999
16363WAT      O49330   6.082   8.402   3.053
16363WAT     H149331   5.992   8.365   3.030
16363WAT     H249332   6.093   8.404   3.153
16364WAT      O49333   9.057   2.315   3.737
16364WAT     H149334   9.036   2.339   3.832
16364WAT     H249335   9.095   2.394   3.689
16365WAT      O49336   3.321   0.179   2.170
16365WAT     H149337   3.286   0.269   2.143
16365WAT     H249338   3.314   0.116   2.092
16366WAT      O49339   0.553   3.371   8.406
16366WAT     H149340   0.637   3.390   8.356
16366WAT     H249341   0.503   3.456   8.422
16367WAT      O49342   5.915   9.616   8.974
16367WAT     H149343   5.905   9.690   8.907
16367WAT     H249344   5.966   9.649   9.053
16368WAT      O49345   5.775   8.224   9.621
16368WAT     H149346   5.735   8.149   9.674
16368WAT     H249347   5.733   8.311   9.648
16369WAT      O49348   6.080   6.457   5.253
16369WAT     H149349   6.028   6.465   5.338
16369WAT     H249350   6.051   6.529   5.190
16370WAT      O49351   2.109   5.315   9.097
16370WAT     H149352   2.114   5.392   9.161
16370WAT     H249353   2.029   5.259   9.119
16371WAT      O49354   9.194   8.375   4.947
16371WAT     H149355   9.220   8.447   5.011
16371WAT     H249356   9.154   8.416   4.866
16372WAT      O49357   9.598   7.779   8.978
16372WAT     H149358   9.499   7.781   8.995
16372WAT     H249359   9.619   7.832   8.896
16373WAT      O49360   3.607   8.398   5.456
16373WAT     H149361   3.663   8.354   5.385
16373WAT     H249362   3.641   8.371   5.546
16374WAT      O49363   2.512   5.364   2.464
16374WAT     H149364   2.473   5.278   2.432
16374WAT     H249365   2.479   5.382   2.557
16375WAT      O49366   3.832   8.891   2.491
16375WAT     H149367   3.736   8.908   2.467
16375WAT     H249368   3.838   8.809   2.547
16376WAT      O49369   1.662   2.684   9.513
16376WAT     H149370   1.613   2.667   9.598
16376WAT     H249371   1.653   2.604   9.453
16377WAT      O49372   7.845   4.347   6.068
16377WAT     H149373   7.919   4.283   6.047
16377WAT     H249374   7.782   4.351   5.990
16378WAT      O49375   6.571   8.046   9.815
16378WAT     H149376   6.602   8.049   9.720
16378WAT     H249377   6.543   8.137   9.844
16379WAT      O49378   6.236   0.983   2.745
16379WAT     H149379   6.241   0.885   2.763
16379WAT     H249380   6.236   0.999   2.646
16380WAT      O49381   5.290   0.867   3.049
16380WAT     H149382   5.376   0.857   3.098
16380WAT     H249383   5.234   0.786   3.062
16381WAT      O49384   2.054   4.424   4.791
16381WAT     H149385   1.956   4.434   4.811
16381WAT     H249386   2.103   4.400   4.875
16382WAT      O49387   7.922   4.138   5.472
16382WAT     H149388   7.955   4.148   5.566
16382WAT     H249389   7.981   4.074   5.423
16383WAT      O49390   1.496   2.423   1.232
16383WAT     H149391   1.435   2.357   1.276
16383WAT     H249392   1.538   2.481   1.302
16384WAT      O49393   7.296   4.073   5.413
16384WAT     H149394   7.237   4.024   5.478
16384WAT     H249395   7.391   4.069   5.444
16385WAT      O49396   4.044   6.119   4.993
16385WAT     H149397   4.051   6.117   4.894
16385WAT     H249398   4.110   6.055   5.033
16386WAT      O49399   7.289   9.336   6.950
16386WAT     H149400   7.199   9.307   6.918
16386WAT     H249401   7.287   9.432   6.976
16387WAT      O49402   9.218   6.951   6.270
16387WAT     H149403   9.224   7.010   6.350
16387WAT     H249404   9.198   7.007   6.189
16388WAT      O49405   3.184   9.733   6.546
16388WAT     H149406   3.114   9.802   6.529
16388WAT     H249407   3.172   9.696   6.639
16389WAT      O49408   9.890   5.398   5.420
16389WAT     H149409   9.858   5.381   5.514
16389WAT     H249410   9.826   5.458   5.373
16390WAT      O49411   6.693   5.652   6.992
16390WAT     H149412   6.675   5.628   6.897
16390WAT     H249413   6.611   5.637   7.047
16391WAT      O49414   0.884   0.102   8.599
16391WAT     H149415   0.924   0.043   8.669
16391WAT     H249416   0.792   0.129   8.627
16392WAT      O49417   4.683   5.801   5.201
16392WAT     H149418   4.615   5.739   5.161
16392WAT     H249419   4.764   5.749   5.225
16393WAT      O49420   9.614   6.063   9.749
16393WAT     H149421   9.535   6.007   9.772
16393WAT     H249422   9.600   6.106   9.660
16394WAT      O49423   9.850   1.942   1.216
16394WAT     H149424   9.770   2.001   1.231
16394WAT     H249425   9.843   1.900   1.126
16395WAT      O49426   8.405   9.742   4.763
16395WAT     H149427   8.436   9.647   4.756
16395WAT     H249428   8.395   9.767   4.859
16396WAT      O49429   5.872   9.211   1.427
16396WAT     H149430   5.941   9.275   1.462
16396WAT     H249431   5.830   9.249   1.344
16397WAT      O49432   5.129   8.130   2.146
16397WAT     H149433   5.056   8.193   2.171
16397WAT     H249434   5.176   8.099   2.229
16398WAT      O49435   1.554   6.911   4.187
16398WAT     H149436   1.540   6.868   4.277
16398WAT     H249437   1.646   6.890   4.154
16399WAT      O49438   1.244   9.037   2.465
16399WAT     H149439   1.256   9.101   2.541
16399WAT     H249440   1.243   8.943   2.501
16400WAT      O49441   9.667   5.807   2.348
16400WAT     H149442   9.574   5.772   2.342
16400WAT     H249443   9.718   5.781   2.265
16401WAT      O49444   3.736   7.807   1.897
16401WAT     H149445   3.646   7.837   1.928
16401WAT     H249446   3.740   7.707   1.896
16402WAT      O49447   0.290   0.257   1.123
16402WAT     H149448   0.247   0.267   1.213
16402WAT     H249449   0.261   0.332   1.064
16403WAT      O49450   4.095   8.380   1.631
16403WAT     H149451   4.054   8.441   1.698
16403WAT     H249452   4.023   8.333   1.580
16404WAT      O49453   6.076   4.444   5.561
16404WAT     H149454   6.052   4.535   5.529
16404WAT     H249455   6.017   4.419   5.638
16405WAT      O49456   8.397   4.116   4.451
16405WAT     H149457   8.360   4.071   4.532
16405WAT     H249458   8.482   4.071   4.423
16406WAT      O49459   8.504   0.292   7.766
16406WAT     H149460   8.584   0.313   7.822
16406WAT     H249461   8.505   0.195   7.741
16407WAT      O49462   1.711   1.576   7.561
16407WAT     H149463   1.734   1.587   7.464
16407WAT     H249464   1.739   1.485   7.592
16408WAT      O49465   7.342   7.733   6.578
16408WAT     H149466   7.315   7.691   6.491
16408WAT     H249467   7.275   7.711   6.648
16409WAT      O49468   4.720   7.169   9.665
16409WAT     H149469   4.783   7.206   9.734
16409WAT     H249470   4.644   7.233   9.652
16410WAT      O49471   3.844   6.910   1.660
16410WAT     H149472   3.924   6.850   1.656
16410WAT     H249473   3.761   6.855   1.667
16411WAT      O49474   3.113   7.846   2.694
16411WAT     H149475   3.201   7.810   2.665
16411WAT     H249476   3.104   7.836   2.793
16412WAT      O49477   3.507   8.025   2.983
16412WAT     H149478   3.506   8.073   2.895
16412WAT     H249479   3.450   7.943   2.976
16413WAT      O49480   7.616   1.868   2.727
16413WAT     H149481   7.583   1.774   2.734
16413WAT     H249482   7.715   1.868   2.715
16414WAT      O49483   2.968   1.277   5.430
16414WAT     H149484   2.963   1.197   5.490
16414WAT     H249485   2.930   1.253   5.340
16415WAT      O49486   5.038   8.041   6.955
16415WAT     H149487   5.028   7.970   7.025
16415WAT     H249488   4.995   8.125   6.987
16416WAT      O49489   6.229   0.579   3.319
16416WAT     H149490   6.265   0.532   3.238
16416WAT     H249491   6.262   0.532   3.401
16417WAT      O49492   2.016   7.213   5.218
16417WAT     H149493   2.045   7.138   5.158
16417WAT     H249494   2.094   7.271   5.238
16418WAT      O49495   7.825   9.771   8.830
16418WAT     H149496   7.790   9.857   8.793
16418WAT     H249497   7.758   9.698   8.813
16419WAT      O49498   0.552   8.229   1.890
16419WAT     H149499   0.557   8.292   1.812
16419WAT     H249500   0.457   8.220   1.920
16420WAT      O49501   1.588   6.435   2.832
16420WAT     H149502   1.570   6.530   2.856
16420WAT     H249503   1.666   6.430   2.770
16421WAT      O49504   9.419   1.842   7.901
16421WAT     H149505   9.360   1.765   7.926
16421WAT     H249506   9.363   1.916   7.863
16422WAT      O49507   5.820   6.790   8.281
16422WAT     H149508   5.772   6.821   8.362
16422WAT     H249509   5.918   6.786   8.300
16423WAT      O49510   0.369   5.990   1.692
16423WAT     H149511   0.332   6.080   1.712
16423WAT     H249512   0.468   5.995   1.681
16424WAT      O49513   2.826   9.807   0.152
16424WAT     H149514   2.737   9.839   0.119
16424WAT     H249515   2.881   9.885   0.180
16425WAT      O49516   1.842   0.135   1.078
16425WAT     H149517   1.866   0.038   1.074
16425WAT     H249518   1.819   0.160   1.172
16426WAT      O49519   4.778   7.833   4.283
16426WAT     H149520   4.861   7.779   4.295
16426WAT     H249521   4.699   7.771   4.276
16427WAT      O49522   1.952   1.783   8.819
16427WAT     H149523   1.889   1.710   8.792
16427WAT     H249524   1.928   1.817   8.909
16428WAT      O49525   8.624   5.370   0.384
16428WAT     H149526   8.584   5.454   0.347
16428WAT     H249527   8.584   5.291   0.338
16429WAT      O49528   8.095   5.524   1.092
16429WAT     H149529   8.161   5.525   1.017
16429WAT     H249530   8.129   5.579   1.168
16430WAT      O49531   9.847   4.192   9.397
16430WAT     H149532   9.769   4.134   9.374
16430WAT     H249533   9.920   4.176   9.330
16431WAT      O49534   7.907   7.906   1.091
16431WAT     H149535   7.973   7.837   1.122
16431WAT     H249536   7.902   7.979   1.159
16432WAT      O49537   9.641   4.655   3.116
16432WAT     H149538   9.645   4.738   3.061
16432WAT     H249539   9.558   4.655   3.171
16433WAT      O49540   0.102   1.470   4.888
16433WAT     H149541   0.191   1.507   4.912
16433WAT     H249542   0.092   1.378   4.927
16434WAT      O49543   9.236   2.960   9.082
16434WAT     H149544   9.311   2.958   9.148
16434WAT     H249545   9.179   3.040   9.097
16435WAT      O49546   1.481   8.518   7.853
16435WAT     H149547   1.534   8.440   7.818
16435WAT     H249548   1.402   8.533   7.794
16436WAT      O49549   1.286   2.397   5.813
16436WAT     H149550   1.235   2.311   5.823
16436WAT     H249551   1.360   2.400   5.880
16437WAT      O49552   1.771   7.495   2.221
16437WAT     H149553   1.702   7.503   2.148
16437WAT     H249554   1.793   7.586   2.256
16438WAT      O49555   6.500   0.960   8.670
16438WAT     H149556   6.589   0.921   8.691
16438WAT     H249557   6.501   1.058   8.688
16439WAT      O49558   3.394   0.554   3.034
16439WAT     H149559   3.304   0.535   2.994
16439WAT     H249560   3.452   0.599   2.966
16440WAT      O49561   7.877   7.643   9.180
16440WAT     H149562   7.977   7.656   9.181
16440WAT     H249563   7.853   7.573   9.246
16441WAT      O49564   2.149   3.899   7.792
16441WAT     H149565   2.229   3.858   7.748
16441WAT     H249566   2.173   3.931   7.883
16442WAT      O49567   1.401   6.535   1.441
16442WAT     H149568   1.395   6.619   1.387
16442WAT     H249569   1.488   6.490   1.423
16443WAT      O49570   1.694   6.263   0.904
16443WAT     H149571   1.596   6.255   0.923
16443WAT     H249572   1.711   6.345   0.849
16444WAT      O49573   3.059   5.255   5.412
16444WAT     H149574   3.033   5.325   5.345
16444WAT     H249575   3.096   5.299   5.494
16445WAT      O49576   3.713   3.967   0.540
16445WAT     H149577   3.704   3.876   0.500
16445WAT     H249578   3.646   3.978   0.613
16446WAT      O49579   8.959   4.557   3.968
16446WAT     H149580   8.972   4.656   3.970
16446WAT     H249581   8.878   4.533   4.021
16447WAT      O49582   4.914   8.639   4.854
16447WAT     H149583   4.878   8.546   4.847
16447WAT     H249584   4.858   8.701   4.799
16448WAT      O49585   1.260   3.254   3.606
16448WAT     H149586   1.193   3.295   3.544
16448WAT     H249587   1.345   3.308   3.603
16449WAT      O49588   1.539   4.136   1.863
16449WAT     H149589   1.463   4.201   1.865
16449WAT     H249590   1.509   4.050   1.906
16450WAT      O49591   7.408   8.057   7.271
16450WAT     H149592   7.338   8.083   7.204
16450WAT     H249593   7.458   7.977   7.237
16451WAT      O49594   4.066   0.125   6.396
16451WAT     H149595   4.025   0.034   6.387
16451WAT     H249596   4.148   0.118   6.454
16452WAT      O49597   8.438   5.584   9.156
16452WAT     H149598   8.389   5.520   9.097
16452WAT     H249599   8.475   5.658   9.100
16453WAT      O49600   4.226   5.847   8.911
16453WAT     H149601   4.306   5.787   8.906
16453WAT     H249602   4.221   5.889   9.001
16454WAT      O49603   6.743   0.425   0.547
16454WAT     H149604   6.681   0.420   0.468
16454WAT     H249605   6.825   0.475   0.522
16455WAT      O49606   3.698   7.573   0.354
16455WAT     H149607   3.676   7.616   0.442
16455WAT     H249608   3.791   7.598   0.328
16456WAT      O49609   6.134   4.079   6.378
16456WAT     H149610   6.071   4.057   6.452
16456WAT     H249611   6.186   4.161   6.402
16457WAT      O49612   3.666   2.705   6.754
16457WAT     H149613   3.583   2.684   6.805
16457WAT     H249614   3.745   2.672   6.804
16458WAT      O49615   8.037   8.228   4.218
16458WAT     H149616   8.077   8.207   4.307
16458WAT     H249617   8.108   8.221   4.147
16459WAT      O49618   1.218   3.563   2.111
16459WAT     H149619   1.258   3.621   2.182
16459WAT     H249620   1.284   3.493   2.084
16460WAT      O49621   4.236   8.533   7.849
16460WAT     H149622   4.214   8.523   7.946
16460WAT     H249623   4.153   8.522   7.795
16461WAT      O49624   0.566   6.364   4.713
16461WAT     H149625   0.630   6.381   4.788
16461WAT     H249626   0.473   6.381   4.744
16462WAT      O49627   0.345   6.421   0.569
16462WAT     H149628   0.269   6.486   0.578
16462WAT     H249629   0.432   6.471   0.572
16463WAT      O49630   5.191   4.175   9.840
16463WAT     H149631   5.139   4.227   9.907
16463WAT     H249632   5.199   4.228   9.756
16464WAT      O49633   5.541   9.835   2.136
16464WAT     H149634   5.604   9.768   2.176
16464WAT     H249635   5.558   9.841   2.038
16465WAT      O49636   3.452   1.197   9.801
16465WAT     H149637   3.521   1.196   9.874
16465WAT     H249638   3.478   1.132   9.730
16466WAT      O49639   5.275   2.485   2.698
16466WAT     H149640   5.282   2.495   2.798
16466WAT     H249641   5.234   2.396   2.677
16467WAT      O49642   0.481   0.739   1.428
16467WAT     H149643   0.476   0.643   1.454
16467WAT     H249644   0.466   0.796   1.509
16468WAT      O49645   7.288   9.777   9.030
16468WAT     H149646   7.257   9.782   9.125
16468WAT     H249647   7.209   9.784   8.969
16469WAT      O49648   5.247   9.705   0.589
16469WAT     H149649   5.188   9.659   0.524
16469WAT     H249650   5.261   9.647   0.669
16470WAT      O49651   6.187   9.738   1.067
16470WAT     H149652   6.283   9.720   1.087
16470WAT     H249653   6.174   9.836   1.052
16471WAT      O49654   4.256   8.892   2.142
16471WAT     H149655   4.309   8.845   2.072
16471WAT     H249656   4.309   8.896   2.227
16472WAT      O49657   9.695   8.919   8.397
16472WAT     H149658   9.624   8.986   8.419
16472WAT     H249659   9.664   8.859   8.323
16473WAT      O49660   6.144   3.144   9.437
16473WAT     H149661   6.216   3.213   9.429
16473WAT     H249662   6.057   3.181   9.404
16474WAT      O49663   0.929   2.926   7.269
16474WAT     H149664   0.898   2.840   7.309
16474WAT     H249665   0.935   2.916   7.169
16475WAT      O49666   2.514   2.648   3.163
16475WAT     H149667   2.434   2.641   3.222
16475WAT     H249668   2.496   2.713   3.089
16476WAT      O49669   2.827   1.717   6.112
16476WAT     H149670   2.827   1.724   6.212
16476WAT     H249671   2.888   1.642   6.084
16477WAT      O49672   9.865   5.384   3.534
16477WAT     H149673   9.875   5.480   3.556
16477WAT     H249674   9.772   5.354   3.553
16478WAT      O49675   0.816   6.268   9.159
16478WAT     H149676   0.807   6.356   9.112
16478WAT     H249677   0.903   6.226   9.134
16479WAT      O49678   4.858   4.068   2.307
16479WAT     H149679   4.767   4.107   2.322
16479WAT     H249680   4.903   4.053   2.394
16480WAT      O49681   6.593   6.146   3.685
16480WAT     H149682   6.676   6.201   3.700
16480WAT     H249683   6.613   6.050   3.707
16481WAT      O49684   7.532   9.314   0.740
16481WAT     H149685   7.481   9.238   0.780
16481WAT     H249686   7.630   9.295   0.746
16482WAT      O49687   1.579   6.353   2.473
16482WAT     H149688   1.652   6.415   2.502
16482WAT     H249689   1.510   6.404   2.422
16483WAT      O49690   2.500   3.407   2.801
16483WAT     H149691   2.542   3.476   2.742
16483WAT     H249692   2.461   3.451   2.881
16484WAT      O49693   6.582   7.654   9.268
16484WAT     H149694   6.640   7.720   9.221
16484WAT     H249695   6.535   7.597   9.201
16485WAT      O49696   1.550   2.039   7.646
16485WAT     H149697   1.461   2.072   7.617
16485WAT     H249698   1.556   1.940   7.628
16486WAT      O49699   9.409   0.992   2.053
16486WAT     H149700   9.427   0.908   2.001
16486WAT     H249701   9.461   1.068   2.014
16487WAT      O49702   6.939   6.289   5.976
16487WAT     H149703   6.855   6.234   5.976
16487WAT     H249704   7.017   6.232   6.003
16488WAT      O49705   3.398   7.332   0.005
16488WAT     H149706   3.321   7.270  -0.011
16488WAT     H249707   3.483   7.280  -0.002
16489WAT      O49708   2.008   1.185   7.667
16489WAT     H149709   2.065   1.109   7.637
16489WAT     H249710   2.012   1.192   7.766
16490WAT      O49711   8.868   8.599   6.649
16490WAT     H149712   8.896   8.503   6.651
16490WAT     H249713   8.944   8.656   6.616
16491WAT      O49714   8.614   0.221   6.736
16491WAT     H149715   8.624   0.126   6.708
16491WAT     H249716   8.692   0.249   6.791
16492WAT      O49717   3.876   6.380   4.977
16492WAT     H149718   3.899   6.424   4.890
16492WAT     H249719   3.923   6.291   4.982
16493WAT      O49720   5.193   0.502   4.889
16493WAT     H149721   5.152   0.478   4.977
16493WAT     H249722   5.124   0.495   4.818
16494WAT      O49723   0.121   2.044   6.935
16494WAT     H149724   0.132   2.139   6.906
16494WAT     H249725   0.137   2.037   7.034
16495WAT      O49726   1.723   1.575   9.892
16495WAT     H149727   1.708   1.505   9.962
16495WAT     H249728   1.756   1.533   9.808
16496WAT      O49729   7.540   7.967   1.235
16496WAT     H149730   7.632   7.984   1.271
16496WAT     H249731   7.547   7.943   1.138
16497WAT      O49732   6.469   8.360   9.211
16497WAT     H149733   6.519   8.443   9.191
16497WAT     H249734   6.533   8.285   9.227
16498WAT      O49735   3.086   2.433   8.997
16498WAT     H149736   3.030   2.453   8.916
16498WAT     H249737   3.078   2.335   9.018
16499WAT      O49738   3.419   8.348   9.030
16499WAT     H149739   3.431   8.252   9.006
16499WAT     H249740   3.493   8.377   9.090
16500WAT      O49741   8.032   2.062   2.172
16500WAT     H149742   7.943   2.102   2.153
16500WAT     H249743   8.050   1.987   2.108
16501WAT      O49744   4.420   2.465   5.760
16501WAT     H149745   4.340   2.459   5.819
16501WAT     H249746   4.415   2.394   5.689
16502WAT      O49747   4.149   9.835   2.717
16502WAT     H149748   4.204   9.912   2.749
16502WAT     H249749   4.073   9.869   2.661
16503WAT      O49750   7.364   6.276   2.604
16503WAT     H149751   7.354   6.356   2.544
16503WAT     H249752   7.335   6.301   2.696
16504WAT      O49753   3.069   0.687   1.779
16504WAT     H149754   2.984   0.713   1.734
16504WAT     H249755   3.047   0.640   1.865
16505WAT      O49756   1.492   4.761   3.472
16505WAT     H149757   1.495   4.836   3.538
16505WAT     H249758   1.584   4.726   3.456
16506WAT      O49759   4.963   0.979   7.784
16506WAT     H149760   5.049   0.931   7.800
16506WAT     H249761   4.944   0.981   7.686
16507WAT      O49762   1.605   6.087   2.413
16507WAT     H149763   1.611   6.185   2.429
16507WAT     H249764   1.683   6.057   2.359
16508WAT      O49765   6.585   2.327   4.385
16508WAT     H149766   6.649   2.264   4.341
16508WAT     H249767   6.569   2.297   4.479
16509WAT      O49768   6.434   6.241   8.817
16509WAT     H149769   6.392   6.188   8.743
16509WAT     H249770   6.494   6.311   8.778
16510WAT      O49771   3.459   1.771   0.983
16510WAT     H149772   3.383   1.715   1.016
16510WAT     H249773   3.457   1.775   0.883
16511WAT      O49774   0.073   5.120   7.457
16511WAT     H149775   0.148   5.105   7.392
16511WAT     H249776   0.031   5.032   7.479
16512WAT      O49777   4.933   2.319   3.829
16512WAT     H149778   4.991   2.244   3.860
16512WAT     H249779   4.838   2.288   3.820
16513WAT      O49780   2.815   8.518   3.820
16513WAT     H149781   2.869   8.511   3.904
16513WAT     H249782   2.718   8.522   3.844
16514WAT      O49783   4.655   6.582   5.781
16514WAT     H149784   4.621   6.496   5.743
16514WAT     H249785   4.731   6.564   5.843
16515WAT      O49786   6.708   6.583   3.838
16515WAT     H149787   6.609   6.596   3.832
16515WAT     H249788   6.729   6.530   3.919
16516WAT      O49789   4.837   3.876   6.557
16516WAT     H149790   4.783   3.793   6.547
16516WAT     H249791   4.809   3.944   6.489
16517WAT      O49792   1.613   5.562   3.843
16517WAT     H149793   1.654   5.482   3.799
16517WAT     H249794   1.664   5.644   3.818
16518WAT      O49795   2.453   8.367   8.548
16518WAT     H149796   2.415   8.310   8.475
16518WAT     H249797   2.388   8.440   8.570
16519WAT      O49798   0.014   9.775   7.447
16519WAT     H149799   0.108   9.756   7.420
16519WAT     H249800  -0.017   9.859   7.402
16520WAT      O49801   8.539   4.273   6.751
16520WAT     H149802   8.455   4.221   6.758
16520WAT     H249803   8.610   4.217   6.708
16521WAT      O49804   9.624   8.546   3.793
16521WAT     H149805   9.560   8.501   3.855
16521WAT     H249806   9.717   8.516   3.812
16522WAT      O49807   0.335   0.830   3.916
16522WAT     H149808   0.240   0.820   3.945
16522WAT     H249809   0.339   0.834   3.816
16523WAT      O49810   5.528   8.829   3.757
16523WAT     H149811   5.473   8.887   3.697
16523WAT     H249812   5.579   8.763   3.702
16524WAT      O49813   6.489   3.382   4.270
16524WAT     H149814   6.499   3.403   4.367
16524WAT     H249815   6.574   3.344   4.235
16525WAT      O49816   6.271   7.961   3.104
16525WAT     H149817   6.345   7.936   3.041
16525WAT     H249818   6.305   7.958   3.198
16526WAT      O49819   7.374   2.227   4.850
16526WAT     H149820   7.393   2.221   4.948
16526WAT     H249821   7.453   2.195   4.798
16527WAT      O49822   6.192   7.081   9.513
16527WAT     H149823   6.138   7.084   9.597
16527WAT     H249824   6.145   7.132   9.441
16528WAT      O49825   7.750   9.160   0.977
16528WAT     H149826   7.834   9.200   1.011
16528WAT     H249827   7.750   9.160   0.877
16529WAT      O49828   4.518   9.452   1.194
16529WAT     H149829   4.420   9.463   1.209
16529WAT     H249830   4.552   9.376   1.248
16530WAT      O49831   2.309   6.905   2.676
16530WAT     H149832   2.404   6.932   2.667
16530WAT     H249833   2.272   6.939   2.763
16531WAT      O49834   0.265   6.714   4.771
16531WAT     H149835   0.355   6.692   4.806
16531WAT     H249836   0.196   6.698   4.842
16532WAT      O49837   6.056   4.644   3.053
16532WAT     H149838   6.016   4.576   3.114
16532WAT     H249839   5.991   4.719   3.040
16533WAT      O49840   0.675   9.235   5.777
16533WAT     H149841   0.619   9.257   5.857
16533WAT     H249842   0.616   9.226   5.696
16534WAT      O49843   4.471   7.629   2.661
16534WAT     H149844   4.515   7.555   2.611
16534WAT     H249845   4.372   7.623   2.650
16535WAT      O49846   9.241   2.576   1.849
16535WAT     H149847   9.311   2.647   1.853
16535WAT     H249848   9.151   2.618   1.834
16536WAT      O49849   3.236   3.894   3.521
16536WAT     H149850   3.303   3.913   3.593
16536WAT     H249851   3.183   3.978   3.503
16537WAT      O49852   9.688   9.014   8.035
16537WAT     H149853   9.668   8.951   7.960
16537WAT     H249854   9.773   9.062   8.016
16538WAT      O49855   4.805   8.717   9.629
16538WAT     H149856   4.786   8.654   9.704
16538WAT     H249857   4.741   8.700   9.555
16539WAT      O49858   9.616   3.571   8.151
16539WAT     H149859   9.519   3.578   8.127
16539WAT     H249860   9.651   3.482   8.123
16540WAT      O49861   3.369   5.273   4.187
16540WAT     H149862   3.339   5.247   4.279
16540WAT     H249863   3.462   5.311   4.192
16541WAT      O49864   1.860   2.081   3.908
16541WAT     H149865   1.827   2.017   3.977
16541WAT     H249866   1.799   2.079   3.829
16542WAT      O49867   9.791   3.438   4.881
16542WAT     H149868   9.773   3.441   4.979
16542WAT     H249869   9.880   3.394   4.865
16543WAT      O49870   9.063   4.786   1.001
16543WAT     H149871   8.995   4.856   0.981
16543WAT     H249872   9.062   4.717   0.929
16544WAT      O49873   4.657   3.298   7.106
16544WAT     H149874   4.743   3.332   7.067
16544WAT     H249875   4.648   3.330   7.200
16545WAT      O49876   0.801   6.202   5.760
16545WAT     H149877   0.857   6.269   5.809
16545WAT     H249878   0.811   6.112   5.804
16546WAT      O49879   1.990   3.355   8.338
16546WAT     H149880   2.057   3.395   8.276
16546WAT     H249881   1.965   3.423   8.408
16547WAT      O49882   7.379   6.543   2.504
16547WAT     H149883   7.332   6.628   2.526
16547WAT     H249884   7.364   6.520   2.408
16548WAT      O49885   1.865   3.763   7.348
16548WAT     H149886   1.791   3.795   7.289
16548WAT     H249887   1.948   3.753   7.294
16549WAT      O49888   8.204   4.644   4.577
16549WAT     H149889   8.147   4.622   4.498
16549WAT     H249890   8.287   4.690   4.546
16550WAT      O49891   2.233   6.787   1.076
16550WAT     H149892   2.249   6.873   1.125
16550WAT     H249893   2.144   6.750   1.104
16551WAT      O49894   5.612   9.703   2.782
16551WAT     H149895   5.676   9.778   2.800
16551WAT     H249896   5.539   9.735   2.722
16552WAT      O49897   5.444   3.527   2.350
16552WAT     H149898   5.371   3.593   2.368
16552WAT     H249899   5.482   3.496   2.437
16553WAT      O49900   2.156   0.290   3.636
16553WAT     H149901   2.117   0.237   3.560
16553WAT     H249902   2.111   0.263   3.721
16554WAT      O49903   3.093   4.109   3.394
16554WAT     H149904   3.157   4.183   3.413
16554WAT     H249905   3.093   4.089   3.296
16555WAT      O49906   1.418   3.064   6.628
16555WAT     H149907   1.350   3.126   6.589
16555WAT     H249908   1.424   3.081   6.727
16556WAT      O49909   2.113   3.026   6.808
16556WAT     H149910   2.188   3.079   6.848
16556WAT     H249911   2.030   3.082   6.806
16557WAT      O49912   9.191   1.822   3.242
16557WAT     H149913   9.271   1.818   3.183
16557WAT     H249914   9.108   1.814   3.187
16558WAT      O49915   8.006   6.284   0.457
16558WAT     H149916   8.004   6.184   0.452
16558WAT     H249917   8.045   6.321   0.373
16559WAT      O49918   7.942   0.651   5.651
16559WAT     H149919   8.008   0.576   5.647
16559WAT     H249920   7.854   0.617   5.685
16560WAT      O49921   5.858   5.678   0.774
16560WAT     H149922   5.910   5.736   0.835
16560WAT     H249923   5.906   5.671   0.686
16561WAT      O49924   3.186   8.677   5.975
16561WAT     H149925   3.283   8.657   5.984
16561WAT     H249926   3.158   8.741   6.047
16562WAT      O49927   7.858   4.121   0.512
16562WAT     H149928   7.841   4.192   0.581
16562WAT     H249929   7.899   4.041   0.556
16563WAT      O49930   3.407   4.394   6.491
16563WAT     H149931   3.483   4.396   6.556
16563WAT     H249932   3.405   4.481   6.441
16564WAT      O49933   0.122   2.526   5.031
16564WAT     H149934   0.101   2.465   4.955
16564WAT     H249935   0.048   2.593   5.041
16565WAT      O49936   6.825   5.690   3.967
16565WAT     H149937   6.924   5.677   3.960
16565WAT     H249938   6.791   5.735   3.884
16566WAT      O49939   3.033   3.355   1.497
16566WAT     H149940   2.981   3.301   1.432
16566WAT     H249941   3.024   3.452   1.475
16567WAT      O49942   7.978   5.661   3.705
16567WAT     H149943   7.949   5.694   3.795
16567WAT     H249944   8.044   5.725   3.667
16568WAT      O49945   9.461   5.827   8.994
16568WAT     H149946   9.411   5.803   9.077
16568WAT     H249947   9.514   5.748   8.963
16569WAT      O49948   1.966   4.687   6.918
16569WAT     H149949   2.041   4.751   6.933
16569WAT     H249950   1.933   4.695   6.824
16570WAT      O49951   5.994   9.686   4.558
16570WAT     H149952   5.969   9.751   4.486
16570WAT     H249953   6.056   9.618   4.521
16571WAT      O49954   2.949   8.195   5.485
16571WAT     H149955   2.967   8.096   5.484
16571WAT     H249956   2.881   8.216   5.554
16572WAT      O49957   5.745   6.505   9.716
16572WAT     H149958   5.793   6.545   9.638
16572WAT     H249959   5.757   6.406   9.715
16573WAT      O49960   8.486   9.776   4.195
16573WAT     H149961   8.457   9.811   4.105
16573WAT     H249962   8.577   9.735   4.186
16574WAT      O49963   4.610   5.290   1.693
16574WAT     H149964   4.623   5.251   1.601
16574WAT     H249965   4.656   5.233   1.760
16575WAT      O49966   3.314   0.864   8.365
16575WAT     H149967   3.289   0.934   8.298
16575WAT     H249968   3.370   0.906   8.437
16576WAT      O49969   8.074   2.736   4.489
16576WAT     H149970   8.167   2.701   4.493
16576WAT     H249971   8.067   2.805   4.417
16577WAT      O49972   6.121   3.647   1.043
16577WAT     H149973   6.150   3.742   1.055
16577WAT     H249974   6.125   3.622   0.946
16578WAT      O49975   3.202   4.377   4.936
16578WAT     H149976   3.102   4.384   4.935
16578WAT     H249977   3.241   4.467   4.918
16579WAT      O49978   8.894   6.306   7.604
16579WAT     H149979   8.810   6.325   7.654
16579WAT     H249980   8.959   6.381   7.617
16580WAT      O49981   2.749   1.373   8.882
16580WAT     H149982   2.681   1.378   8.809
16580WAT     H249983   2.731   1.446   8.949
16581WAT      O49984   1.576   4.054   4.966
16581WAT     H149985   1.600   3.960   4.946
16581WAT     H249986   1.482   4.058   5.001
16582WAT      O49987   0.490   3.360   4.550
16582WAT     H149988   0.432   3.372   4.469
16582WAT     H249989   0.573   3.414   4.539
16583WAT      O49990   5.542   9.084   9.215
16583WAT     H149991   5.581   8.998   9.184
16583WAT     H249992   5.445   9.072   9.235
16584WAT      O49993   6.245   6.071   0.478
16584WAT     H149994   6.233   6.161   0.437
16584WAT     H249995   6.163   6.047   0.530
16585WAT      O49996   3.282   0.766   0.572
16585WAT     H149997   3.338   0.751   0.490
16585WAT     H249998   3.326   0.723   0.650
16586WAT      O49999   6.068   5.044   3.494
16586WAT     H150000   6.085   5.142   3.510
16586WAT     H250001   6.150   5.002   3.456
16587WAT      O50002   5.269   5.589   6.086
16587WAT     H150003   5.286   5.576   6.184
16587WAT     H250004   5.281   5.502   6.039
16588WAT      O50005   0.325   5.384   8.802
16588WAT     H150006   0.345   5.476   8.837
16588WAT     H250007   0.314   5.321   8.879
16589WAT      O50008   5.659   9.467   5.531
16589WAT     H150009   5.728   9.527   5.571
16589WAT     H250010   5.697   9.421   5.451
16590WAT      O50011   9.278   9.802   4.148
16590WAT     H150012   9.205   9.841   4.204
16590WAT     H250013   9.365   9.846   4.171
16591WAT      O50014   8.283   6.571   5.117
16591WAT     H150015   8.188   6.592   5.140
16591WAT     H250016   8.301   6.595   5.022
16592WAT      O50017   0.876   8.539   9.350
16592WAT     H150018   0.877   8.602   9.427
16592WAT     H250019   0.820   8.577   9.277
16593WAT      O50020   1.249   3.290   0.117
16593WAT     H150021   1.245   3.368   0.054
16593WAT     H250022   1.227   3.206   0.067
16594WAT      O50023   6.957   5.336   4.232
16594WAT     H150024   6.873   5.317   4.181
16594WAT     H250025   7.001   5.249   4.256
16595WAT      O50026   7.942   6.861   3.614
16595WAT     H150027   7.974   6.786   3.556
16595WAT     H250028   8.020   6.917   3.642
16596WAT      O50029   9.671   0.999   9.587
16596WAT     H150030   9.653   0.900   9.581
16596WAT     H250031   9.702   1.032   9.498
16597WAT      O50032   5.554   5.594   8.578
16597WAT     H150033   5.633   5.653   8.596
16597WAT     H250034   5.472   5.635   8.617
16598WAT      O50035   4.819   9.650   6.725
16598WAT     H150036   4.818   9.684   6.631
16598WAT     H250037   4.907   9.607   6.743
16599WAT      O50038   9.245   7.665   4.497
16599WAT     H150039   9.275   7.590   4.556
16599WAT     H250040   9.159   7.702   4.530
16600WAT      O50041   9.149   0.999   7.910
16600WAT     H150042   9.077   0.941   7.949
16600WAT     H250043   9.234   0.948   7.903
16601WAT      O50044   0.877   2.439   0.936
16601WAT     H150045   0.884   2.359   0.996
16601WAT     H250046   0.866   2.521   0.992
16602WAT      O50047   7.137   6.164   9.052
16602WAT     H150048   7.062   6.128   9.107
16602WAT     H250049   7.168   6.251   9.091
16603WAT      O50050   1.847   6.398   3.726
16603WAT     H150051   1.831   6.491   3.693
16603WAT     H250052   1.800   6.333   3.666
16604WAT      O50053   6.046   0.482   1.230
16604WAT     H150054   6.019   0.397   1.276
16604WAT     H250055   6.022   0.477   1.133
16605WAT      O50056   9.830   0.064   3.435
16605WAT     H150057   9.854  -0.025   3.475
16605WAT     H250058   9.896   0.087   3.363
16606WAT      O50059   4.347   6.860   7.463
16606WAT     H150060   4.340   6.907   7.375
16606WAT     H250061   4.359   6.762   7.448
16607WAT      O50062   8.308   7.790   4.261
16607WAT     H150063   8.365   7.801   4.342
16607WAT     H250064   8.237   7.722   4.278
16608WAT      O50065   8.974   8.251   9.716
16608WAT     H150066   9.011   8.339   9.747
16608WAT     H250067   8.978   8.186   9.792
16609WAT      O50068   3.481   2.924   7.198
16609WAT     H150069   3.418   2.975   7.256
16609WAT     H250070   3.448   2.924   7.104
16610WAT      O50071   2.010   0.612   5.256
16610WAT     H150072   2.037   0.707   5.272
16610WAT     H250073   1.914   0.600   5.280
16611WAT      O50074   2.815   4.716   3.728
16611WAT     H150075   2.741   4.650   3.731
16611WAT     H250076   2.832   4.742   3.633
16612WAT      O50077   7.851   5.790   2.895
16612WAT     H150078   7.811   5.722   2.834
16612WAT     H250079   7.778   5.835   2.948
16613WAT      O50080   1.911   0.460   6.139
16613WAT     H150081   1.935   0.477   6.235
16613WAT     H250082   1.967   0.384   6.105
16614WAT      O50083   6.166   0.450   5.722
16614WAT     H150084   6.072   0.452   5.686
16614WAT     H250085   6.221   0.385   5.671
16615WAT      O50086   4.944   8.625   5.980
16615WAT     H150087   5.014   8.571   5.933
16615WAT     H250088   4.984   8.669   6.060
16616WAT      O50089   3.649   2.957   2.743
16616WAT     H150090   3.573   3.021   2.755
16616WAT     H250091   3.732   2.996   2.783
16617WAT      O50092   1.671   4.538   3.982
16617WAT     H150093   1.678   4.637   3.993
16617WAT     H250094   1.606   4.517   3.910
16618WAT      O50095   7.985   5.470   7.348
16618WAT     H150096   8.082   5.448   7.363
16618WAT     H250097   7.939   5.391   7.307
16619WAT      O50098   3.345   9.602   1.956
16619WAT     H150099   3.345   9.531   2.027
16619WAT     H250100   3.410   9.577   1.884
16620WAT      O50101   3.210   7.299   4.864
16620WAT     H150102   3.275   7.375   4.879
16620WAT     H250103   3.246   7.216   4.906
16621WAT      O50104   8.261   0.078   2.095
16621WAT     H150105   8.316   0.109   2.173
16621WAT     H250106   8.167   0.060   2.126
16622WAT      O50107   5.275   3.024   9.286
16622WAT     H150108   5.295   3.109   9.336
16622WAT     H250109   5.303   2.946   9.342
16623WAT      O50110   3.972   4.063   7.500
16623WAT     H150111   3.916   4.005   7.440
16623WAT     H250112   4.036   4.006   7.551
16624WAT      O50113   0.102   3.561   5.566
16624WAT     H150114   0.045   3.643   5.581
16624WAT     H250115   0.056   3.481   5.604
16625WAT      O50116   1.302   8.404   3.411
16625WAT     H150117   1.380   8.451   3.453
16625WAT     H250118   1.333   8.349   3.335
16626WAT      O50119   2.788   9.308   4.749
16626WAT     H150120   2.731   9.227   4.734
16626WAT     H250121   2.853   9.290   4.822
16627WAT      O50122   8.641   4.144   1.102
16627WAT     H150123   8.549   4.111   1.122
16627WAT     H250124   8.637   4.239   1.073
16628WAT      O50125   1.437   1.042   9.820
16628WAT     H150126   1.536   1.027   9.828
16628WAT     H250127   1.417   1.140   9.828
16629WAT      O50128   3.037   5.906   9.372
16629WAT     H150129   3.006   5.841   9.303
16629WAT     H250130   3.137   5.914   9.368
16630WAT      O50131   8.552   2.340   6.071
16630WAT     H150132   8.483   2.402   6.034
16630WAT     H250133   8.588   2.283   5.998
16631WAT      O50134   0.765   3.770   7.089
16631WAT     H150135   0.749   3.815   7.177
16631WAT     H250136   0.799   3.837   7.023
16632WAT      O50137   8.881   5.567   4.199
16632WAT     H150138   8.979   5.547   4.196
16632WAT     H250139   8.853   5.585   4.293
16633WAT      O50140   9.513   7.960   9.703
16633WAT     H150141   9.456   8.019   9.760
16633WAT     H250142   9.541   7.879   9.755
16634WAT      O50143   3.940   5.830   8.115
16634WAT     H150144   3.941   5.930   8.109
16634WAT     H250145   4.030   5.798   8.146
16635WAT      O50146   0.212   0.456   1.516
16635WAT     H150147   0.214   0.455   1.616
16635WAT     H250148   0.179   0.545   1.485
16636WAT      O50149   1.751   8.274   3.401
16636WAT     H150150   1.820   8.258   3.471
16636WAT     H250151   1.787   8.249   3.311
16637WAT      O50152   8.159   5.066   3.236
16637WAT     H150153   8.083   5.126   3.212
16637WAT     H250154   8.229   5.119   3.285
16638WAT      O50155   7.443   3.583   0.683
16638WAT     H150156   7.390   3.649   0.737
16638WAT     H250157   7.522   3.553   0.737
16639WAT      O50158   0.072   3.989   0.719
16639WAT     H150159   0.052   4.000   0.621
16639WAT     H250160   0.137   4.059   0.748
16640WAT      O50161   2.280   4.176   3.770
16640WAT     H150162   2.339   4.253   3.797
16640WAT     H250163   2.214   4.159   3.843
16641WAT      O50164   7.294   4.664   1.987
16641WAT     H150165   7.248   4.588   2.032
16641WAT     H250166   7.392   4.643   1.976
16642WAT      O50167   3.270   0.370   0.520
16642WAT     H150168   3.269   0.273   0.546
16642WAT     H250169   3.363   0.395   0.492
16643WAT      O50170   4.404   7.275   0.506
16643WAT     H150171   4.321   7.226   0.481
16643WAT     H250172   4.436   7.329   0.428
16644WAT      O50173   8.452   1.776   8.366
16644WAT     H150174   8.359   1.743   8.376
16644WAT     H250175   8.456   1.844   8.293
16645WAT      O50176   9.789   6.147   9.140
16645WAT     H150177   9.733   6.200   9.204
16645WAT     H250178   9.729   6.105   9.071
16646WAT      O50179   3.724   2.863   6.298
16646WAT     H150180   3.725   2.962   6.311
16646WAT     H250181   3.648   2.824   6.349
16647WAT      O50182   8.596   1.629   6.261
16647WAT     H150183   8.523   1.687   6.227
16647WAT     H250184   8.681   1.682   6.267
16648WAT      O50185   3.077   4.473   1.361
16648WAT     H150186   3.092   4.530   1.442
16648WAT     H250187   3.165   4.449   1.321
16649WAT      O50188   0.704   9.221   4.529
16649WAT     H150189   0.662   9.298   4.481
16649WAT     H250190   0.793   9.249   4.564
16650WAT      O50191   3.876   9.016   7.649
16650WAT     H150192   3.881   9.115   7.638
16650WAT     H250193   3.898   8.991   7.743
16651WAT      O50194   7.822   3.070   5.287
16651WAT     H150195   7.868   3.157   5.304
16651WAT     H250196   7.820   3.052   5.188
16652WAT      O50197   7.178   4.527   2.205
16652WAT     H150198   7.108   4.483   2.149
16652WAT     H250199   7.200   4.469   2.283
16653WAT      O50200   1.830   0.181   0.098
16653WAT     H150201   1.771   0.111   0.057
16653WAT     H250202   1.880   0.228   0.025
16654WAT      O50203   4.038   4.403   8.761
16654WAT     H150204   4.119   4.444   8.803
16654WAT     H250205   4.063   4.315   8.720
16655WAT      O50206   5.302   9.708   5.124
16655WAT     H150207   5.245   9.716   5.043
16655WAT     H250208   5.279   9.624   5.173
16656WAT      O50209   0.150   8.712   9.257
16656WAT     H150210   0.241   8.693   9.294
16656WAT     H250211   0.149   8.689   9.159
16657WAT      O50212   2.569   3.932   8.479
16657WAT     H150213   2.505   4.008   8.486
16657WAT     H250214   2.622   3.940   8.394
16658WAT      O50215   7.863   1.637   2.449
16658WAT     H150216   7.912   1.587   2.377
16658WAT     H250217   7.815   1.573   2.508
16659WAT      O50218   8.915   1.994   3.381
16659WAT     H150219   8.903   2.011   3.479
16659WAT     H250220   8.914   1.896   3.363
16660WAT      O50221   9.290   9.416   5.152
16660WAT     H150222   9.204   9.374   5.124
16660WAT     H250223   9.308   9.496   5.095
16661WAT      O50224   0.228   2.183   2.772
16661WAT     H150225   0.135   2.146   2.772
16661WAT     H250226   0.281   2.139   2.844
16662WAT      O50227   6.972   4.179   7.703
16662WAT     H150228   7.001   4.084   7.699
16662WAT     H250229   6.872   4.184   7.698
16663WAT      O50230   4.187   3.949   7.899
16663WAT     H150231   4.231   3.894   7.970
16663WAT     H250232   4.254   3.970   7.827
16664WAT      O50233   0.998   5.285   4.419
16664WAT     H150234   0.928   5.305   4.487
16664WAT     H250235   1.079   5.342   4.436
16665WAT      O50236   4.174   3.324   9.807
16665WAT     H150237   4.121   3.311   9.890
16665WAT     H250238   4.114   3.352   9.732
16666WAT      O50239   9.741   1.087   6.220
16666WAT     H150240   9.689   1.165   6.255
16666WAT     H250241   9.730   1.009   6.282
16667WAT      O50242   1.969   2.341   0.932
16667WAT     H150243   1.936   2.247   0.946
16667WAT     H250244   1.951   2.395   1.015
16668WAT      O50245   3.645   5.109   4.767
16668WAT     H150246   3.623   5.165   4.687
16668WAT     H250247   3.634   5.164   4.850
16669WAT      O50248   1.918   4.339   3.907
16669WAT     H150249   1.909   4.408   3.978
16669WAT     H250250   1.827   4.302   3.884
16670WAT      O50251   8.474   1.676   0.491
16670WAT     H150252   8.564   1.640   0.465
16670WAT     H250253   8.484   1.769   0.525
16671WAT      O50254   0.297   3.158   4.296
16671WAT     H150255   0.392   3.184   4.276
16671WAT     H250256   0.290   3.134   4.393
16672WAT      O50257   1.701   7.120   7.376
16672WAT     H150258   1.698   7.207   7.425
16672WAT     H250259   1.753   7.131   7.291
16673WAT      O50260   1.280   2.636   3.841
16673WAT     H150261   1.263   2.620   3.744
16673WAT     H250262   1.335   2.561   3.878
16674WAT      O50263   1.701   1.890   2.503
16674WAT     H150264   1.718   1.802   2.458
16674WAT     H250265   1.715   1.964   2.437
16675WAT      O50266   2.198   1.282   6.865
16675WAT     H150267   2.202   1.200   6.921
16675WAT     H250268   2.120   1.338   6.893
16676WAT      O50269   8.682   1.809   3.626
16676WAT     H150270   8.651   1.724   3.667
16676WAT     H250271   8.638   1.886   3.673
16677WAT      O50272   7.511   4.365   8.196
16677WAT     H150273   7.437   4.417   8.240
16677WAT     H250274   7.477   4.325   8.110
16678WAT      O50275   5.987   0.572   6.183
16678WAT     H150276   6.048   0.544   6.108
16678WAT     H250277   5.893   0.550   6.159
16679WAT      O50278   3.975   5.440   4.077
16679WAT     H150279   3.945   5.345   4.078
16679WAT     H250280   4.005   5.465   3.985
16680WAT      O50281   6.020   0.102   3.021
16680WAT     H150282   5.948   0.068   2.960
16680WAT     H250283   5.990   0.187   3.064
16681WAT      O50284   3.227   9.128   6.005
16681WAT     H150285   3.153   9.087   5.952
16681WAT     H250286   3.191   9.161   6.092
16682WAT      O50287   2.920   5.883   6.092
16682WAT     H150288   2.848   5.928   6.039
16682WAT     H250289   2.880   5.838   6.171
16683WAT      O50290   8.970   8.759   1.660
16683WAT     H150291   8.878   8.798   1.669
16683WAT     H250292   8.975   8.707   1.575
16684WAT      O50293   9.405   6.202   2.933
16684WAT     H150294   9.452   6.151   3.005
16684WAT     H250295   9.470   6.225   2.861
16685WAT      O50296   7.086   5.869   1.494
16685WAT     H150297   7.063   5.896   1.400
16685WAT     H250298   7.003   5.836   1.539
16686WAT      O50299   2.991   8.282   9.350
16686WAT     H150300   2.995   8.361   9.411
16686WAT     H250301   2.896   8.256   9.334
16687WAT      O50302   8.921   6.401   7.307
16687WAT     H150303   9.010   6.437   7.335
16687WAT     H250304   8.910   6.307   7.340
16688WAT      O50305   5.005   3.081   9.186
16688WAT     H150306   4.966   3.173   9.189
16688WAT     H250307   5.101   3.084   9.212
16689WAT      O50308   4.373   8.695   7.569
16689WAT     H150309   4.398   8.674   7.474
16689WAT     H250310   4.434   8.646   7.631
16690WAT      O50311   8.614   7.688   0.833
16690WAT     H150312   8.702   7.722   0.866
16690WAT     H250313   8.621   7.665   0.736
16691WAT      O50314   6.759   0.143   9.637
16691WAT     H150315   6.674   0.194   9.651
16691WAT     H250316   6.742   0.068   9.574
16692WAT      O50317   0.174   1.938   7.930
16692WAT     H150318   0.103   1.868   7.941
16692WAT     H250319   0.162   2.009   8.000
16693WAT      O50320   3.250   8.285   3.447
16693WAT     H150321   3.245   8.351   3.522
16693WAT     H250322   3.306   8.207   3.475
16694WAT      O50323   8.862   4.825   7.434
16694WAT     H150324   8.787   4.815   7.499
16694WAT     H250325   8.898   4.919   7.439
16695WAT      O50326   2.698   9.240   5.141
16695WAT     H150327   2.752   9.204   5.064
16695WAT     H250328   2.757   9.296   5.199
16696WAT      O50329   9.873   8.256   3.216
16696WAT     H150330   9.907   8.273   3.123
16696WAT     H250331   9.835   8.164   3.222
16697WAT      O50332   8.761   9.572   2.988
16697WAT     H150333   8.732   9.586   3.083
16697WAT     H250334   8.693   9.516   2.940
16698WAT      O50335   6.892   1.745   3.465
16698WAT     H150336   6.875   1.825   3.407
16698WAT     H250337   6.940   1.675   3.413
16699WAT      O50338   1.875   3.196   5.862
16699WAT     H150339   1.937   3.199   5.784
16699WAT     H250340   1.888   3.278   5.918
16700WAT      O50341   7.721   5.462   0.086
16700WAT     H150342   7.788   5.414   0.143
16700WAT     H250343   7.715   5.557   0.115
16701WAT      O50344   9.567   7.929   6.976
16701WAT     H150345   9.654   7.928   7.025
16701WAT     H250346   9.571   7.997   6.903
16702WAT      O50347   5.430   9.283   5.587
16702WAT     H150348   5.523   9.321   5.589
16702WAT     H250349   5.370   9.341   5.641
16703WAT      O50350   9.667   0.361   5.411
16703WAT     H150351   9.579   0.373   5.365
16703WAT     H250352   9.694   0.447   5.453
16704WAT      O50353   0.626   4.970   7.024
16704WAT     H150354   0.549   4.908   7.035
16704WAT     H250355   0.600   5.045   6.964
16705WAT      O50356   0.400   1.671   8.285
16705WAT     H150357   0.426   1.639   8.376
16705WAT     H250358   0.307   1.706   8.286
16706WAT      O50359   6.486   8.576   6.097
16706WAT     H150360   6.541   8.510   6.148
16706WAT     H250361   6.546   8.636   6.045
16707WAT      O50362   0.543   4.466   2.089
16707WAT     H150363   0.455   4.488   2.049
16707WAT     H250364   0.532   4.396   2.159
16708WAT      O50365   2.151   0.949   1.663
16708WAT     H150366   2.059   0.914   1.677
16708WAT     H250367   2.150   1.049   1.666
16709WAT      O50368   7.607   9.621   4.185
16709WAT     H150369   7.570   9.529   4.170
16709WAT     H250370   7.546   9.673   4.245
16710WAT      O50371   1.107   2.017   2.327
16710WAT     H150372   1.061   2.092   2.374
16710WAT     H250373   1.205   2.021   2.347
16711WAT      O50374   4.951   6.596   0.952
16711WAT     H150375   4.876   6.579   0.888
16711WAT     H250376   5.006   6.513   0.961
16712WAT      O50377   4.757   5.520   9.486
16712WAT     H150378   4.662   5.518   9.456
16712WAT     H250379   4.775   5.607   9.533
16713WAT      O50380   7.255   6.856   3.346
16713WAT     H150381   7.208   6.922   3.287
16713WAT     H250382   7.189   6.811   3.405
16714WAT      O50383   0.253   5.991   2.156
16714WAT     H150384   0.248   5.958   2.062
16714WAT     H250385   0.247   5.914   2.220
16715WAT      O50386   4.531   6.988   8.769
16715WAT     H150387   4.498   6.910   8.716
16715WAT     H250388   4.460   7.059   8.772
16716WAT      O50389   5.958   1.327   8.534
16716WAT     H150390   5.958   1.293   8.440
16716WAT     H250391   6.039   1.293   8.581
16717WAT      O50392   0.508   9.359   5.969
16717WAT     H150393   0.446   9.313   5.906
16717WAT     H250394   0.539   9.294   6.038
16718WAT      O50395   2.223   9.412   7.096
16718WAT     H150396   2.131   9.394   7.132
16718WAT     H250397   2.291   9.380   7.162
16719WAT      O50398   5.570   8.319   1.023
16719WAT     H150399   5.526   8.338   0.936
16719WAT     H250400   5.500   8.310   1.094
16720WAT      O50401   2.919   6.464   0.632
16720WAT     H150402   2.972   6.386   0.599
16720WAT     H250403   2.854   6.433   0.702
16721WAT      O50404   8.554   7.774   9.529
16721WAT     H150405   8.519   7.705   9.466
16721WAT     H250406   8.560   7.735   9.621
16722WAT      O50407   0.542   6.118   0.440
16722WAT     H150408   0.638   6.093   0.429
16722WAT     H250409   0.519   6.123   0.537
16723WAT      O50410   2.637   6.630   8.437
16723WAT     H150411   2.734   6.634   8.415
16723WAT     H250412   2.604   6.722   8.459
16724WAT      O50413   2.936   6.495   6.528
16724WAT     H150414   2.850   6.545   6.512
16724WAT     H250415   2.925   6.436   6.608
16725WAT      O50416   2.933   1.885   7.178
16725WAT     H150417   2.987   1.954   7.225
16725WAT     H250418   2.909   1.811   7.241
16726WAT      O50419   2.918   6.013   0.248
16726WAT     H150420   2.969   5.942   0.198
16726WAT     H250421   2.823   5.985   0.258
16727WAT      O50422   8.284   9.154   6.363
16727WAT     H150423   8.365   9.211   6.348
16727WAT     H250424   8.296   9.103   6.448
16728WAT      O50425   9.527   6.245   8.007
16728WAT     H150426   9.519   6.344   8.011
16728WAT     H250427   9.505   6.213   7.915
16729WAT      O50428   3.324   4.130   6.940
16729WAT     H150429   3.318   4.051   6.879
16729WAT     H250430   3.409   4.180   6.921
16730WAT      O50431   4.417   1.675   1.665
16730WAT     H150432   4.384   1.607   1.600
16730WAT     H250433   4.446   1.757   1.616
16731WAT      O50434   2.537   1.722   5.080
16731WAT     H150435   2.623   1.705   5.031
16731WAT     H250436   2.528   1.820   5.098
16732WAT      O50437   8.683   7.367   7.620
16732WAT     H150438   8.677   7.310   7.702
16732WAT     H250439   8.683   7.309   7.539
16733WAT      O50440   6.436   1.300   6.708
16733WAT     H150441   6.427   1.386   6.759
16733WAT     H250442   6.376   1.303   6.628
16734WAT      O50443   9.023   1.454   5.222
16734WAT     H150444   9.050   1.503   5.139
16734WAT     H250445   8.932   1.485   5.249
16735WAT      O50446   7.492   3.282   1.831
16735WAT     H150447   7.415   3.345   1.844
16735WAT     H250448   7.461   3.204   1.777
16736WAT      O50449   5.419   5.674   7.084
16736WAT     H150450   5.424   5.690   7.182
16736WAT     H250451   5.323   5.676   7.055
16737WAT      O50452   3.170   9.269   2.059
16737WAT     H150453   3.082   9.241   2.021
16737WAT     H250454   3.162   9.279   2.158
16738WAT      O50455   0.233   2.467   8.839
16738WAT     H150456   0.235   2.377   8.884
16738WAT     H250457   0.187   2.458   8.750
16739WAT      O50458   0.629   9.593   2.954
16739WAT     H150459   0.709   9.535   2.971
16739WAT     H250460   0.660   9.687   2.936
16740WAT      O50461   2.444   1.257   9.751
16740WAT     H150462   2.455   1.280   9.848
16740WAT     H250463   2.505   1.314   9.697
16741WAT      O50464   6.752   4.204   0.637
16741WAT     H150465   6.696   4.137   0.684
16741WAT     H250466   6.780   4.168   0.547
16742WAT      O50467   8.684   1.038   3.389
16742WAT     H150468   8.675   1.134   3.416
16742WAT     H250469   8.664   1.029   3.291
16743WAT      O50470   1.037   6.064   4.998
16743WAT     H150471   1.097   6.038   5.074
16743WAT     H250472   0.958   6.003   4.996
16744WAT      O50473   1.538   0.762   5.452
16744WAT     H150474   1.460   0.736   5.509
16744WAT     H250475   1.540   0.861   5.441
16745WAT      O50476   1.254   2.895   1.687
16745WAT     H150477   1.217   2.986   1.706
16745WAT     H250478   1.179   2.829   1.683
16746WAT      O50479   5.116   5.288   9.289
16746WAT     H150480   5.189   5.354   9.270
16746WAT     H250481   5.044   5.298   9.220
16747WAT      O50482   8.423   2.643   0.388
16747WAT     H150483   8.460   2.601   0.471
16747WAT     H250484   8.438   2.582   0.310
16748WAT      O50485   1.452   1.153   4.296
16748WAT     H150486   1.512   1.123   4.221
16748WAT     H250487   1.508   1.175   4.376
16749WAT      O50488   4.394   4.923   6.067
16749WAT     H150489   4.313   4.946   6.014
16749WAT     H250490   4.400   4.824   6.079
16750WAT      O50491   2.384   1.283   0.169
16750WAT     H150492   2.337   1.345   0.232
16750WAT     H250493   2.464   1.329   0.132
16751WAT      O50494   2.467   3.169   1.205
16751WAT     H150495   2.541   3.144   1.269
16751WAT     H250496   2.494   3.249   1.152
16752WAT      O50497   9.367   9.193   7.299
16752WAT     H150498   9.431   9.253   7.346
16752WAT     H250499   9.357   9.222   7.204
16753WAT      O50500   2.744   0.184   8.826
16753WAT     H150501   2.755   0.230   8.738
16753WAT     H250502   2.655   0.206   8.864
16754WAT      O50503   6.529   5.631   2.823
16754WAT     H150504   6.543   5.544   2.774
16754WAT     H250505   6.594   5.637   2.899
16755WAT      O50506   1.609   9.790   1.117
16755WAT     H150507   1.625   9.877   1.070
16755WAT     H250508   1.516   9.758   1.096
16756WAT      O50509   9.699   6.286   6.887
16756WAT     H150510   9.736   6.229   6.813
16756WAT     H250511   9.775   6.322   6.942
16757WAT      O50512   9.210   8.131   6.831
16757WAT     H150513   9.244   8.143   6.924
16757WAT     H250514   9.283   8.149   6.765
16758WAT      O50515   4.790   8.974   2.153
16758WAT     H150516   4.824   9.024   2.074
16758WAT     H250517   4.705   9.016   2.185
16759WAT      O50518   2.208   3.043   2.341
16759WAT     H150519   2.214   3.117   2.407
16759WAT     H250520   2.165   3.076   2.257
16760WAT      O50521   6.005   0.022   5.018
16760WAT     H150522   5.966   0.107   5.053
16760WAT     H250523   6.094   0.006   5.061
16761WAT      O50524   4.116   4.119   1.866
16761WAT     H150525   4.113   4.021   1.846
16761WAT     H250526   4.131   4.170   1.782
16762WAT      O50527   7.190   8.784   6.808
16762WAT     H150528   7.153   8.717   6.745
16762WAT     H250529   7.238   8.856   6.757
16763WAT      O50530   1.138   4.804   9.606
16763WAT     H150531   1.045   4.767   9.605
16763WAT     H250532   1.163   4.829   9.699
16764WAT      O50533   3.265   0.731   5.388
16764WAT     H150534   3.343   0.780   5.347
16764WAT     H250535   3.234   0.780   5.469
16765WAT      O50536   5.201   5.838   8.117
16765WAT     H150537   5.300   5.847   8.108
16765WAT     H250538   5.171   5.753   8.073
16766WAT      O50539   6.524   5.705   5.343
16766WAT     H150540   6.533   5.778   5.411
16766WAT     H250541   6.433   5.665   5.349
16767WAT      O50542   1.757   3.251   0.099
16767WAT     H150543   1.700   3.175   0.067
16767WAT     H250544   1.711   3.338   0.079
16768WAT      O50545   4.063   8.809   7.021
16768WAT     H150546   4.023   8.881   7.077
16768WAT     H250547   3.991   8.762   6.970
16769WAT      O50548   2.100   5.219   7.401
16769WAT     H150549   2.190   5.263   7.406
16769WAT     H250550   2.111   5.121   7.415
16770WAT      O50551   6.600   3.176   8.514
16770WAT     H150552   6.616   3.246   8.584
16770WAT     H250553   6.610   3.085   8.554
16771WAT      O50554   0.999   4.535   0.432
16771WAT     H150555   1.053   4.582   0.502
16771WAT     H250556   0.939   4.469   0.476
16772WAT      O50557   5.757   2.081   2.399
16772WAT     H150558   5.759   2.171   2.443
16772WAT     H250559   5.729   2.091   2.304
16773WAT      O50560   5.752   0.022   9.694
16773WAT     H150561   5.711  -0.047   9.635
16773WAT     H250562   5.805  -0.022   9.766
16774WAT      O50563   7.934   0.672   0.908
16774WAT     H150564   7.914   0.659   0.811
16774WAT     H250565   8.010   0.613   0.935
16775WAT      O50566   2.435   8.596   1.556
16775WAT     H150567   2.440   8.496   1.554
16775WAT     H250568   2.506   8.631   1.617
16776WAT      O50569   6.071   7.228   5.760
16776WAT     H150570   6.033   7.307   5.808
16776WAT     H250571   6.057   7.239   5.662
16777WAT      O50572   3.503   9.356   3.477
16777WAT     H150573   3.547   9.427   3.423
16777WAT     H250574   3.425   9.395   3.526
16778WAT      O50575   8.254   4.191   8.960
16778WAT     H150576   8.201   4.170   9.042
16778WAT     H250577   8.255   4.112   8.899
16779WAT      O50578   6.691   0.150   7.284
16779WAT     H150579   6.711   0.053   7.301
16779WAT     H250580   6.760   0.206   7.330
16780WAT      O50581   2.171   9.686   7.767
16780WAT     H150582   2.098   9.684   7.700
16780WAT     H250583   2.204   9.781   7.778
16781WAT      O50584   0.523   8.460   2.366
16781WAT     H150585   0.612   8.462   2.412
16781WAT     H250586   0.463   8.395   2.413
16782WAT      O50587   1.654   0.376   7.379
16782WAT     H150588   1.709   0.457   7.358
16782WAT     H250589   1.675   0.344   7.471
16783WAT      O50590   6.229   3.649   3.780
16783WAT     H150591   6.319   3.623   3.748
16783WAT     H250592   6.177   3.568   3.806
16784WAT      O50593   3.927   4.043   0.698
16784WAT     H150594   3.913   4.123   0.756
16784WAT     H250595   3.850   4.034   0.635
16785WAT      O50596   7.818   4.805   9.027
16785WAT     H150597   7.773   4.894   9.038
16785WAT     H250598   7.917   4.815   9.039
16786WAT      O50599   5.141   2.634   1.614
16786WAT     H150600   5.061   2.576   1.628
16786WAT     H250601   5.125   2.724   1.656
16787WAT      O50602   2.120   6.341   1.732
16787WAT     H150603   2.210   6.371   1.764
16787WAT     H250604   2.051   6.366   1.800
16788WAT      O50605   8.370   0.618   3.210
16788WAT     H150606   8.450   0.608   3.270
16788WAT     H250607   8.398   0.665   3.126
16789WAT      O50608   1.982   3.533   5.161
16789WAT     H150609   1.945   3.443   5.142
16789WAT     H250610   2.082   3.528   5.167
16790WAT      O50611   4.290   0.737   4.181
16790WAT     H150612   4.200   0.717   4.218
16790WAT     H250613   4.357   0.673   4.217
16791WAT      O50614   1.599   7.746   2.581
16791WAT     H150615   1.549   7.831   2.602
16791WAT     H250616   1.572   7.675   2.646
16792WAT      O50617   1.390   4.416   0.451
16792WAT     H150618   1.465   4.372   0.402
16792WAT     H250619   1.353   4.352   0.519
16793WAT      O50620   6.302   9.238   1.471
16793WAT     H150621   6.310   9.297   1.391
16793WAT     H250622   6.222   9.266   1.525
16794WAT      O50623   9.145   2.710   3.576
16794WAT     H150624   9.154   2.619   3.537
16794WAT     H250625   9.237   2.748   3.592
16795WAT      O50626   8.280   2.607   1.778
16795WAT     H150627   8.301   2.518   1.819
16795WAT     H250628   8.322   2.614   1.688
16796WAT      O50629   7.282   6.122   0.468
16796WAT     H150630   7.244   6.189   0.404
16796WAT     H250631   7.379   6.141   0.484
16797WAT      O50632   7.671   1.284   8.444
16797WAT     H150633   7.615   1.209   8.479
16797WAT     H250634   7.624   1.371   8.459
16798WAT      O50635   9.367   2.138   7.400
16798WAT     H150636   9.387   2.167   7.307
16798WAT     H250637   9.287   2.188   7.434
16799WAT      O50638   8.437   6.726   1.632
16799WAT     H150639   8.375   6.713   1.710
16799WAT     H250640   8.499   6.649   1.625
16800WAT      O50641   4.626   6.619   8.392
16800WAT     H150642   4.724   6.618   8.375
16800WAT     H250643   4.604   6.557   8.467
16801WAT      O50644   7.281   7.584   7.131
16801WAT     H150645   7.187   7.592   7.097
16801WAT     H250646   7.344   7.619   7.061
16802WAT      O50647   1.076   3.103   5.863
16802WAT     H150648   1.093   3.004   5.865
16802WAT     H250649   1.145   3.147   5.806
16803WAT      O50650   4.977   0.091   0.754
16803WAT     H150651   5.041   0.165   0.733
16803WAT     H250652   4.996   0.056   0.845
16804WAT      O50653   2.266   7.968   7.799
16804WAT     H150654   2.321   7.889   7.828
16804WAT     H250655   2.254   7.964   7.699
16805WAT      O50656   9.104   5.194   4.719
16805WAT     H150657   9.075   5.284   4.752
16805WAT     H250658   9.126   5.200   4.622
16806WAT      O50659   2.343   6.206   1.017
16806WAT     H150660   2.280   6.136   0.983
16806WAT     H250661   2.294   6.292   1.029
16807WAT      O50662   6.571   5.136   9.649
16807WAT     H150663   6.486   5.166   9.692
16807WAT     H250664   6.552   5.111   9.554
16808WAT      O50665   0.957   7.021   2.910
16808WAT     H150666   0.958   7.096   2.976
16808WAT     H250667   0.875   7.027   2.854
16809WAT      O50668   3.472   9.115   2.234
16809WAT     H150669   3.512   9.164   2.157
16809WAT     H250670   3.394   9.061   2.202
16810WAT      O50671   6.731   4.596   6.896
16810WAT     H150672   6.816   4.635   6.932
16810WAT     H250673   6.752   4.529   6.825
16811WAT      O50674   7.663   4.108   2.162
16811WAT     H150675   7.603   4.089   2.240
16811WAT     H250676   7.607   4.130   2.082
16812WAT      O50677   3.132   7.982   3.216
16812WAT     H150678   3.090   8.071   3.232
16812WAT     H250679   3.122   7.925   3.298
16813WAT      O50680   9.756   5.678   6.564
16813WAT     H150681   9.822   5.682   6.489
16813WAT     H250682   9.761   5.588   6.608
16814WAT      O50683   7.700   1.871   7.967
16814WAT     H150684   7.773   1.870   8.035
16814WAT     H250685   7.728   1.925   7.887
16815WAT      O50686   1.462   4.237   0.048
16815WAT     H150687   1.364   4.258   0.040
16815WAT     H250688   1.515   4.319   0.026
16816WAT      O50689   9.262   8.895   0.759
16816WAT     H150690   9.310   8.862   0.678
16816WAT     H250691   9.320   8.881   0.840
16817WAT      O50692   5.620   1.578   3.309
16817WAT     H150693   5.564   1.611   3.385
16817WAT     H250694   5.709   1.548   3.344
16818WAT      O50695   4.982   0.709   9.858
16818WAT     H150696   4.913   0.647   9.896
16818WAT     H250697   4.944   0.801   9.853
16819WAT      O50698   0.634   7.437   4.419
16819WAT     H150699   0.634   7.529   4.459
16819WAT     H250700   0.645   7.443   4.320
16820WAT      O50701   7.378   5.195   1.413
16820WAT     H150702   7.423   5.270   1.460
16820WAT     H250703   7.435   5.162   1.338
16821WAT      O50704   6.152   6.258   2.389
16821WAT     H150705   6.097   6.259   2.305
16821WAT     H250706   6.178   6.164   2.411
16822WAT      O50707   2.120   3.919   6.785
16822WAT     H150708   2.072   4.003   6.760
16822WAT     H250709   2.137   3.918   6.883
16823WAT      O50710   2.844   2.128   9.276
16823WAT     H150711   2.906   2.127   9.355
16823WAT     H250712   2.761   2.178   9.300
16824WAT      O50713   4.834   0.063   8.183
16824WAT     H150714   4.880   0.087   8.098
16824WAT     H250715   4.902   0.034   8.251
16825WAT      O50716   1.089   2.854   3.238
16825WAT     H150717   1.081   2.953   3.250
16825WAT     H250718   1.086   2.831   3.140
16826WAT      O50719   1.135   2.944   2.689
16826WAT     H150720   1.219   2.893   2.670
16826WAT     H250721   1.155   3.042   2.688
16827WAT      O50722   3.994   7.866   8.664
16827WAT     H150723   3.924   7.854   8.735
16827WAT     H250724   4.020   7.962   8.659
16828WAT      O50725   6.047   0.869   4.092
16828WAT     H150726   5.985   0.793   4.113
16828WAT     H250727   6.084   0.906   4.177
16829WAT      O50728   8.321   6.865   5.052
16829WAT     H150729   8.315   6.963   5.032
16829WAT     H250730   8.413   6.843   5.085
16830WAT      O50731   4.239   4.067   9.792
16830WAT     H150732   4.261   4.027   9.703
16830WAT     H250733   4.219   4.164   9.780
16831WAT      O50734   9.296   6.750   1.788
16831WAT     H150735   9.280   6.841   1.829
16831WAT     H250736   9.219   6.690   1.810
16832WAT      O50737   0.352   7.691   3.379
16832WAT     H150738   0.278   7.648   3.431
16832WAT     H250739   0.377   7.777   3.422
16833WAT      O50740   0.986   5.547   0.811
16833WAT     H150741   1.054   5.520   0.742
16833WAT     H250742   0.996   5.489   0.892
16834WAT      O50743   6.782   9.506   0.802
16834WAT     H150744   6.787   9.523   0.900
16834WAT     H250745   6.766   9.409   0.785
16835WAT      O50746   8.506   6.059   6.398
16835WAT     H150747   8.469   6.105   6.317
16835WAT     H250748   8.457   5.973   6.413
16836WAT      O50749   2.010   6.992   6.269
16836WAT     H150750   1.919   7.030   6.284
16836WAT     H250751   2.073   7.029   6.338
16837WAT      O50752   1.739   4.388   8.624
16837WAT     H150753   1.758   4.365   8.720
16837WAT     H250754   1.692   4.311   8.580
16838WAT      O50755   4.930   7.294   2.077
16838WAT     H150756   4.883   7.381   2.068
16838WAT     H250757   4.947   7.255   1.987
16839WAT      O50758   9.743   4.841   1.019
16839WAT     H150759   9.682   4.763   1.034
16839WAT     H250760   9.782   4.871   1.106
16840WAT      O50761   1.579   0.601   9.451
16840WAT     H150762   1.607   0.611   9.356
16840WAT     H250763   1.574   0.504   9.475
16841WAT      O50764   7.766   1.522   6.121
16841WAT     H150765   7.819   1.543   6.204
16841WAT     H250766   7.670   1.545   6.136
16842WAT      O50767   7.195   2.299   0.649
16842WAT     H150768   7.221   2.203   0.659
16842WAT     H250769   7.095   2.306   0.642
16843WAT      O50770   4.232   3.140   4.559
16843WAT     H150771   4.300   3.078   4.519
16843WAT     H250772   4.279   3.212   4.610
16844WAT      O50773   3.566   0.082   9.478
16844WAT     H150774   3.602   0.060   9.387
16844WAT     H250775   3.522   0.172   9.475
16845WAT      O50776   7.371   6.339   0.982
16845WAT     H150777   7.299   6.354   1.050
16845WAT     H250778   7.335   6.283   0.907
16846WAT      O50779   2.481   3.245   0.650
16846WAT     H150780   2.552   3.175   0.652
16846WAT     H250781   2.399   3.209   0.606
16847WAT      O50782   2.834   3.046   0.650
16847WAT     H150783   2.933   3.064   0.646
16847WAT     H250784   2.799   3.075   0.738
16848WAT      O50785   5.979   2.908   1.134
16848WAT     H150786   5.938   2.850   1.064
16848WAT     H250787   6.027   2.850   1.200
16849WAT      O50788   5.552   2.515   0.471
16849WAT     H150789   5.462   2.483   0.501
16849WAT     H250790   5.561   2.502   0.373
16850WAT      O50791   1.519   5.388   6.056
16850WAT     H150792   1.617   5.382   6.074
16850WAT     H250793   1.469   5.340   6.127
16851WAT      O50794   8.362   9.446   3.614
16851WAT     H150795   8.314   9.500   3.545
16851WAT     H250796   8.308   9.365   3.637
16852WAT      O50797   6.811   2.937   6.118
16852WAT     H150798   6.884   2.998   6.149
16852WAT     H250799   6.815   2.851   6.170
16853WAT      O50800   2.783   7.047   8.505
16853WAT     H150801   2.716   6.973   8.490
16853WAT     H250802   2.875   7.011   8.492
16854WAT      O50803   5.947   1.764   4.237
16854WAT     H150804   5.880   1.838   4.231
16854WAT     H250805   5.933   1.700   4.162
16855WAT      O50806   8.012   0.488   0.464
16855WAT     H150807   7.980   0.568   0.414
16855WAT     H250808   8.086   0.444   0.413
16856WAT      O50809   4.893   2.651   6.916
16856WAT     H150810   4.800   2.614   6.909
16856WAT     H250811   4.952   2.585   6.962
16857WAT      O50812   4.093   7.525   0.082
16857WAT     H150813   4.049   7.438   0.058
16857WAT     H250814   4.053   7.599   0.028
16858WAT      O50815   9.770   6.082   7.250
16858WAT     H150816   9.853   6.130   7.220
16858WAT     H250817   9.690   6.128   7.213
16859WAT      O50818   4.605   2.234   0.697
16859WAT     H150819   4.528   2.182   0.662
16859WAT     H250820   4.634   2.301   0.629
16860WAT      O50821   6.242   1.937   2.870
16860WAT     H150822   6.243   2.037   2.862
16860WAT     H250823   6.234   1.911   2.966
16861WAT      O50824   0.499   7.584   5.057
16861WAT     H150825   0.579   7.597   5.116
16861WAT     H250826   0.516   7.509   4.994
16862WAT      O50827   1.313   8.079   0.684
16862WAT     H150828   1.368   8.037   0.756
16862WAT     H250829   1.264   8.008   0.634
16863WAT      O50830   7.726   6.610   7.099
16863WAT     H150831   7.668   6.540   7.141
16863WAT     H250832   7.674   6.661   7.031
16864WAT      O50833   5.484   6.301   9.414
16864WAT     H150834   5.577   6.324   9.384
16864WAT     H250835   5.429   6.385   9.419
16865WAT      O50836   0.766   0.299   5.196
16865WAT     H150837   0.752   0.289   5.295
16865WAT     H250838   0.816   0.220   5.161
16866WAT      O50839   1.747   2.599   6.780
16866WAT     H150840   1.779   2.671   6.842
16866WAT     H250841   1.715   2.641   6.694
16867WAT      O50842   7.814   2.862   2.715
16867WAT     H150843   7.896   2.866   2.773
16867WAT     H250844   7.799   2.952   2.675
16868WAT      O50845   2.081   2.067   6.166
16868WAT     H150846   2.168   2.104   6.197
16868WAT     H250847   2.090   2.032   6.073
16869WAT      O50848   4.285   3.294   1.950
16869WAT     H150849   4.218   3.366   1.967
16869WAT     H250850   4.251   3.233   1.878
16870WAT      O50851   1.312   2.159   3.134
16870WAT     H150852   1.384   2.214   3.176
16870WAT     H250853   1.310   2.177   3.036
16871WAT      O50854   9.722   1.799   4.670
16871WAT     H150855   9.765   1.735   4.733
16871WAT     H250856   9.650   1.849   4.718
16872WAT      O50857   4.625   4.009   9.723
16872WAT     H150858   4.707   3.956   9.704
16872WAT     H250859   4.648   4.107   9.719
16873WAT      O50860   5.392   0.821   5.774
16873WAT     H150861   5.334   0.764   5.832
16873WAT     H250862   5.480   0.776   5.760
16874WAT      O50863   2.630   2.697   3.703
16874WAT     H150864   2.696   2.625   3.681
16874WAT     H250865   2.678   2.781   3.725
16875WAT      O50866   2.895   2.398   4.337
16875WAT     H150867   2.876   2.495   4.349
16875WAT     H250868   2.988   2.378   4.368
16876WAT      O50869   2.265   0.494   9.043
16876WAT     H150870   2.345   0.482   8.984
16876WAT     H250871   2.229   0.405   9.070
16877WAT      O50872   1.207   2.974   8.905
16877WAT     H150873   1.185   2.888   8.859
16877WAT     H250874   1.258   2.954   8.989
16878WAT      O50875   4.605   9.210   4.968
16878WAT     H150876   4.597   9.305   4.996
16878WAT     H250877   4.570   9.150   5.039
16879WAT      O50878   2.775   1.208   7.543
16879WAT     H150879   2.818   1.229   7.631
16879WAT     H250880   2.825   1.134   7.498
16880WAT      O50881   1.052   2.470   5.476
16880WAT     H150882   1.048   2.370   5.478
16880WAT     H250883   1.106   2.502   5.554
16881WAT      O50884   4.349   7.371   2.296
16881WAT     H150885   4.412   7.406   2.365
16881WAT     H250886   4.255   7.396   2.321
16882WAT      O50887   4.220   6.957   9.759
16882WAT     H150888   4.247   6.869   9.720
16882WAT     H250889   4.265   6.969   9.848
16883WAT      O50890   1.415   3.845   8.515
16883WAT     H150891   1.434   3.899   8.597
16883WAT     H250892   1.323   3.806   8.522
16884WAT      O50893   1.110   8.762   0.596
16884WAT     H150894   1.104   8.783   0.694
16884WAT     H250895   1.128   8.664   0.584
16885WAT      O50896   2.736   3.608   3.830
16885WAT     H150897   2.830   3.642   3.834
16885WAT     H250898   2.736   3.509   3.840
16886WAT      O50899   3.728   4.527   0.299
16886WAT     H150900   3.754   4.463   0.227
16886WAT     H250901   3.751   4.488   0.388
16887WAT      O50902   3.922   4.428   5.516
16887WAT     H150903   3.876   4.468   5.596
16887WAT     H250904   3.927   4.496   5.443
16888WAT      O50905   2.998   7.657   8.682
16888WAT     H150906   3.038   7.566   8.679
16888WAT     H250907   2.927   7.664   8.612
16889WAT      O50908   1.280   3.482   9.532
16889WAT     H150909   1.323   3.535   9.458
16889WAT     H250910   1.298   3.526   9.620
16890WAT      O50911   6.489   3.124   3.570
16890WAT     H150912   6.408   3.175   3.543
16890WAT     H250913   6.521   3.156   3.659
16891WAT      O50914   8.704   4.311   4.855
16891WAT     H150915   8.620   4.256   4.861
16891WAT     H250916   8.728   4.345   4.946
16892WAT      O50917   7.327   6.722   7.779
16892WAT     H150918   7.322   6.774   7.864
16892WAT     H250919   7.412   6.743   7.732
16893WAT      O50920   4.674   1.544   6.061
16893WAT     H150921   4.612   1.546   6.139
16893WAT     H250922   4.763   1.508   6.090
16894WAT      O50923   8.556   8.141   5.593
16894WAT     H150924   8.645   8.176   5.564
16894WAT     H250925   8.570   8.068   5.660
16895WAT      O50926   4.067   9.501   7.475
16895WAT     H150927   4.058   9.536   7.568
16895WAT     H250928   3.978   9.501   7.430
16896WAT      O50929   0.370   0.308   3.661
16896WAT     H150930   0.450   0.320   3.602
16896WAT     H250931   0.325   0.396   3.675
16897WAT      O50932   0.151   4.422   9.610
16897WAT     H150933   0.052   4.407   9.607
16897WAT     H250934   0.193   4.372   9.534
16898WAT      O50935   7.440   6.893   4.023
16898WAT     H150936   7.371   6.956   4.058
16898WAT     H250937   7.518   6.891   4.085
16899WAT      O50938   5.988   1.581   0.760
16899WAT     H150939   5.894   1.563   0.787
16899WAT     H250940   6.049   1.515   0.804
16900WAT      O50941   8.669   9.758   2.499
16900WAT     H150942   8.763   9.743   2.467
16900WAT     H250943   8.607   9.701   2.445
16901WAT      O50944   6.163   0.143   0.394
16901WAT     H150945   6.257   0.161   0.420
16901WAT     H250946   6.114   0.229   0.384
16902WAT      O50947   1.454   5.362   5.792
16902WAT     H150948   1.507   5.398   5.869
16902WAT     H250949   1.516   5.346   5.715
16903WAT      O50950   3.011   7.954   5.708
16903WAT     H150951   3.014   8.052   5.731
16903WAT     H250952   2.928   7.913   5.745
16904WAT      O50953   8.618   5.917   8.196
16904WAT     H150954   8.653   5.972   8.120
16904WAT     H250955   8.694   5.880   8.249
16905WAT      O50956   3.742   2.066   3.868
16905WAT     H150957   3.713   2.141   3.928
16905WAT     H250958   3.801   2.004   3.919
16906WAT      O50959   8.343   4.443   2.861
16906WAT     H150960   8.286   4.509   2.812
16906WAT     H250961   8.427   4.488   2.892
16907WAT      O50962   7.939   3.134   1.820
16907WAT     H150963   7.995   3.105   1.742
16907WAT     H250964   7.982   3.103   1.905
16908WAT      O50965   2.008   3.351   0.127
16908WAT     H150966   1.929   3.297   0.154
16908WAT     H250967   1.995   3.446   0.155
16909WAT      O50968   2.195   2.289   4.778
16909WAT     H150969   2.114   2.250   4.734
16909WAT     H250970   2.250   2.217   4.819
16910WAT      O50971   6.891   1.732   4.662
16910WAT     H150972   6.954   1.668   4.707
16910WAT     H250973   6.836   1.682   4.595
16911WAT      O50974   9.878   6.855   4.661
16911WAT     H150975   9.879   6.762   4.697
16911WAT     H250976   9.959   6.904   4.692
16912WAT      O50977   9.691   3.738   8.669
16912WAT     H150978   9.637   3.745   8.585
16912WAT     H250979   9.781   3.701   8.648
16913WAT      O50980   1.973   9.020   6.028
16913WAT     H150981   1.941   9.110   6.056
16913WAT     H250982   1.910   8.980   5.962
16914WAT      O50983   4.689   0.023   7.680
16914WAT     H150984   4.603   0.051   7.722
16914WAT     H250985   4.676  -0.065   7.635
16915WAT      O50986   6.781   2.572   6.025
16915WAT     H150987   6.861   2.612   5.980
16915WAT     H250988   6.719   2.535   5.956
16916WAT      O50989   6.061   2.980   5.509
16916WAT     H150990   6.026   3.031   5.588
16916WAT     H250991   6.037   2.883   5.520
16917WAT      O50992   7.867   1.909   2.663
16917WAT     H150993   7.912   1.998   2.660
16917WAT     H250994   7.910   1.847   2.597
16918WAT      O50995   7.293   9.573   7.665
16918WAT     H150996   7.241   9.526   7.593
16918WAT     H250997   7.325   9.506   7.732
16919WAT      O50998   3.541   9.270   4.113
16919WAT     H150999   3.616   9.321   4.072
16919WAT     H251000   3.519   9.308   4.203
16920WAT      O51001   2.482   1.625   1.998
16920WAT     H151002   2.385   1.643   2.010
16920WAT     H251003   2.498   1.527   1.994
16921WAT      O51004   5.810   8.088   2.447
16921WAT     H151005   5.871   8.030   2.501
16921WAT     H251006   5.796   8.175   2.495
16922WAT      O51007   8.890   2.368   7.849
16922WAT     H151008   8.830   2.434   7.804
16922WAT     H251009   8.943   2.413   7.920
16923WAT      O51010   9.586   2.722   0.008
16923WAT     H151011   9.512   2.786   0.033
16923WAT     H251012   9.656   2.771  -0.044
16924WAT      O51013   6.236   8.237   0.891
16924WAT     H151014   6.335   8.239   0.903
16924WAT     H251015   6.194   8.307   0.948
16925WAT      O51016   9.238   7.251   4.357
16925WAT     H151017   9.168   7.187   4.388
16925WAT     H251018   9.326   7.227   4.397
16926WAT      O51019   1.704   2.228   6.455
16926WAT     H151020   1.703   2.272   6.365
16926WAT     H251021   1.741   2.291   6.523
16927WAT      O51022   1.251   0.846   7.621
16927WAT     H151023   1.323   0.889   7.566
16927WAT     H251024   1.224   0.909   7.695
16928WAT      O51025   0.861   9.404   1.163
16928WAT     H151026   0.764   9.425   1.178
16928WAT     H251027   0.868   9.336   1.089
16929WAT      O51028   4.885   3.336   5.892
16929WAT     H151029   4.954   3.378   5.834
16929WAT     H251030   4.794   3.366   5.863
16930WAT      O51031   4.128   0.808   1.160
16930WAT     H151032   4.188   0.742   1.206
16930WAT     H251033   4.056   0.758   1.111
16931WAT      O51034   9.055   7.085   3.245
16931WAT     H151035   9.033   7.165   3.190
16931WAT     H251036   8.971   7.042   3.278
16932WAT      O51037   3.903   3.306   7.205
16932WAT     H151038   3.880   3.390   7.255
16932WAT     H251039   3.991   3.318   7.160
16933WAT      O51040   7.959   2.042   7.796
16933WAT     H151041   7.939   2.078   7.888
16933WAT     H251042   8.043   1.988   7.799
16934WAT      O51043   0.550   0.870   2.627
16934WAT     H151044   0.536   0.887   2.724
16934WAT     H251045   0.645   0.889   2.603
16935WAT      O51046   0.078   1.613   0.649
16935WAT     H151047   0.169   1.582   0.676
16935WAT     H251048   0.018   1.535   0.634
16936WAT      O51049   6.261   9.825   7.519
16936WAT     H151050   6.338   9.766   7.494
16936WAT     H251051   6.208   9.782   7.592
16937WAT      O51052   3.848   6.962   6.876
16937WAT     H151053   3.759   6.949   6.920
16937WAT     H251054   3.896   7.038   6.921
16938WAT      O51055   4.774   2.531   9.575
16938WAT     H151056   4.754   2.434   9.559
16938WAT     H251057   4.745   2.584   9.496
16939WAT      O51058   3.715   8.324   5.907
16939WAT     H151059   3.783   8.283   5.968
16939WAT     H251060   3.679   8.408   5.948
16940WAT      O51061   2.386   6.710   2.023
16940WAT     H151062   2.474   6.743   2.058
16940WAT     H251063   2.318   6.784   2.031
16941WAT      O51064   8.870   6.656   2.368
16941WAT     H151065   8.775   6.672   2.397
16941WAT     H251066   8.877   6.566   2.326
16942WAT      O51067   1.386   0.185   5.123
16942WAT     H151068   1.308   0.236   5.160
16942WAT     H251069   1.407   0.109   5.185
16943WAT      O51070   5.203   1.127   8.578
16943WAT     H151071   5.195   1.227   8.577
16943WAT     H251072   5.112   1.087   8.582
16944WAT      O51073   9.154   2.137   4.837
16944WAT     H151074   9.055   2.122   4.828
16944WAT     H251075   9.183   2.114   4.929
16945WAT      O51076   3.571   5.447   5.452
16945WAT     H151077   3.580   5.357   5.496
16945WAT     H251078   3.491   5.494   5.489
16946WAT      O51079   7.155   0.326   5.435
16946WAT     H151080   7.146   0.268   5.354
16946WAT     H251081   7.165   0.422   5.406
16947WAT      O51082   2.467   0.252   3.836
16947WAT     H151083   2.434   0.343   3.863
16947WAT     H251084   2.521   0.261   3.752
16948WAT      O51085   7.496   5.485   2.324
16948WAT     H151086   7.423   5.425   2.289
16948WAT     H251087   7.480   5.578   2.291
16949WAT      O51088   0.674   1.701   1.896
16949WAT     H151089   0.711   1.673   1.808
16949WAT     H251090   0.703   1.795   1.916
16950WAT      O51091   2.753   5.969   4.130
16950WAT     H151092   2.835   5.916   4.149
16950WAT     H251093   2.699   5.979   4.214
16951WAT      O51094   2.030   6.682   1.713
16951WAT     H151095   2.078   6.756   1.760
16951WAT     H251096   1.953   6.652   1.770
16952WAT      O51097   8.914   3.006   6.894
16952WAT     H151098   8.893   3.096   6.857
16952WAT     H251099   8.967   2.954   6.827
16953WAT      O51100   7.331   1.463   2.374
16953WAT     H151101   7.328   1.462   2.274
16953WAT     H251102   7.399   1.529   2.405
16954WAT      O51103   7.397   2.909   1.995
16954WAT     H151104   7.338   2.970   1.942
16954WAT     H251105   7.484   2.954   2.015
16955WAT      O51106   7.716   4.916   6.182
16955WAT     H151107   7.788   4.848   6.198
16955WAT     H251108   7.644   4.904   6.250
16956WAT      O51109   0.336   9.013   4.346
16956WAT     H151110   0.253   9.055   4.310
16956WAT     H251111   0.346   9.035   4.443
16957WAT      O51112   9.058   0.976   5.515
16957WAT     H151113   8.999   0.939   5.443
16957WAT     H251114   9.099   0.901   5.566
16958WAT      O51115   7.117   9.248   2.442
16958WAT     H151116   7.055   9.314   2.399
16958WAT     H251117   7.115   9.260   2.541
16959WAT      O51118   6.613   5.786   0.833
16959WAT     H151119   6.676   5.714   0.863
16959WAT     H251120   6.520   5.763   0.863
16960WAT      O51121   8.611   9.703   9.112
16960WAT     H151122   8.645   9.793   9.085
16960WAT     H251123   8.605   9.699   9.212
16961WAT      O51124   2.237   6.187   9.835
16961WAT     H151125   2.331   6.186   9.868
16961WAT     H251126   2.229   6.248   9.756
16962WAT      O51127   9.218   5.484   5.458
16962WAT     H151128   9.296   5.524   5.507
16962WAT     H251129   9.140   5.474   5.521
16963WAT      O51130   1.238   9.604   9.211
16963WAT     H151131   1.244   9.578   9.308
16963WAT     H251132   1.149   9.575   9.175
16964WAT      O51133   2.254   4.761   9.564
16964WAT     H151134   2.217   4.798   9.478
16964WAT     H251135   2.183   4.708   9.610
16965WAT      O51136   1.972   9.427   6.915
16965WAT     H151137   2.053   9.410   6.858
16965WAT     H251138   1.909   9.487   6.866
16966WAT      O51139   9.775   3.526   7.830
16966WAT     H151140   9.733   3.456   7.888
16966WAT     H251141   9.710   3.554   7.759
16967WAT      O51142   4.914   3.801   5.530
16967WAT     H151143   4.819   3.807   5.499
16967WAT     H251144   4.938   3.705   5.546
16968WAT      O51145   1.375   4.124   6.386
16968WAT     H151146   1.303   4.081   6.332
16968WAT     H251147   1.364   4.100   6.482
16969WAT      O51148   4.881   0.103   7.908
16969WAT     H151149   4.871   0.189   7.859
16969WAT     H251150   4.801   0.045   7.890
16970WAT      O51151   0.508   3.221   6.140
16970WAT     H151152   0.519   3.122   6.134
16970WAT     H251153   0.452   3.253   6.064
16971WAT      O51154   2.900   9.041   3.999
16971WAT     H151155   2.853   9.062   3.912
16971WAT     H251156   2.916   9.126   4.049
16972WAT      O51157   0.048   8.474   8.232
16972WAT     H151158   0.131   8.527   8.248
16972WAT     H251159   0.065   8.378   8.255
16973WAT      O51160   0.370   4.716   3.925
16973WAT     H151161   0.399   4.812   3.919
16973WAT     H251162   0.272   4.712   3.943
16974WAT      O51163   0.786   0.123   6.334
16974WAT     H151164   0.770   0.184   6.257
16974WAT     H251165   0.810   0.032   6.300
16975WAT      O51166   5.514   7.630   2.834
16975WAT     H151167   5.474   7.714   2.796
16975WAT     H251168   5.597   7.606   2.783
16976WAT      O51169   7.203   0.048   9.485
16976WAT     H151170   7.298   0.037   9.514
16976WAT     H251171   7.143   0.049   9.565
16977WAT      O51172   5.163   1.536   5.056
16977WAT     H151173   5.185   1.599   4.982
16977WAT     H251174   5.247   1.507   5.102
16978WAT      O51175   9.400   4.020   0.961
16978WAT     H151176   9.419   3.928   0.928
16978WAT     H251177   9.445   4.087   0.901
16979WAT      O51178   3.298   5.047   0.985
16979WAT     H151179   3.306   5.128   0.926
16979WAT     H251180   3.218   4.994   0.957
16980WAT      O51181   9.439   2.433   3.561
16980WAT     H151182   9.433   2.335   3.582
16980WAT     H251183   9.349   2.474   3.565
16981WAT      O51184   0.361   0.988   0.833
16981WAT     H151185   0.335   0.903   0.787
16981WAT     H251186   0.382   1.058   0.765
16982WAT      O51187   0.811   4.233   6.830
16982WAT     H151188   0.839   4.260   6.922
16982WAT     H251189   0.797   4.134   6.828
16983WAT      O51190   4.238   8.394   3.294
16983WAT     H151191   4.305   8.414   3.223
16983WAT     H251192   4.149   8.431   3.267
16984WAT      O51193   0.369   6.366   0.895
16984WAT     H151194   0.356   6.271   0.925
16984WAT     H251195   0.284   6.400   0.856
16985WAT      O51196   9.316   1.260   2.783
16985WAT     H151197   9.310   1.343   2.728
16985WAT     H251198   9.334   1.182   2.724
16986WAT      O51199   0.318   8.943   4.934
16986WAT     H151200   0.285   8.893   5.014
16986WAT     H251201   0.357   9.030   4.962
16987WAT      O51202   0.964   7.296   6.448
16987WAT     H151203   1.039   7.240   6.413
16987WAT     H251204   0.877   7.263   6.411
16988WAT      O51205   9.133   6.695   6.254
16988WAT     H151206   9.064   6.715   6.184
16988WAT     H251207   9.181   6.780   6.278
16989WAT      O51208   8.892   8.932   6.693
16989WAT     H151209   8.844   8.888   6.769
16989WAT     H251210   8.945   9.009   6.727
16990WAT      O51211   4.135   9.286   3.095
16990WAT     H151212   4.227   9.310   3.064
16990WAT     H251213   4.137   9.197   3.139
16991WAT      O51214   7.795   6.673   5.334
16991WAT     H151215   7.808   6.715   5.424
16991WAT     H251216   7.714   6.615   5.335
16992WAT      O51217   0.975   0.677   2.098
16992WAT     H151218   1.036   0.643   2.169
16992WAT     H251219   0.955   0.774   2.115
16993WAT      O51220   6.458   4.505   2.141
16993WAT     H151221   6.532   4.559   2.182
16993WAT     H251222   6.370   4.537   2.176
16994WAT      O51223   1.429   0.731   7.939
16994WAT     H151224   1.442   0.699   7.845
16994WAT     H251225   1.447   0.829   7.943
16995WAT      O51226   6.800   2.046   3.138
16995WAT     H151227   6.801   2.130   3.084
16995WAT     H251228   6.882   1.993   3.119
16996WAT      O51229   4.287   0.563   7.693
16996WAT     H151230   4.262   0.466   7.687
16996WAT     H251231   4.268   0.608   7.606
16997WAT      O51232   2.178   2.820   5.468
16997WAT     H151233   2.143   2.893   5.410
16997WAT     H251234   2.111   2.746   5.473
16998WAT      O51235   1.253   3.308   1.714
16998WAT     H151236   1.270   3.404   1.692
16998WAT     H251237   1.316   3.251   1.662
16999WAT      O51238   6.222   7.733   0.464
16999WAT     H151239   6.143   7.746   0.523
16999WAT     H251240   6.266   7.646   0.485
17000WAT      O51241   2.954   1.822   4.734
17000WAT     H151242   2.929   1.784   4.823
17000WAT     H251243   2.994   1.751   4.677
17001WAT      O51244   1.099   9.802   3.925
17001WAT     H151245   1.138   9.777   4.014
17001WAT     H251246   1.032   9.733   3.898
17002WAT      O51247   7.108   3.076   0.220
17002WAT     H151248   7.158   3.143   0.165
17002WAT     H251249   7.172   3.006   0.253
17003WAT      O51250   2.581   6.836   4.421
17003WAT     H151251   2.564   6.928   4.386
17003WAT     H251252   2.659   6.796   4.373
17004WAT      O51253   3.159   1.914   1.742
17004WAT     H151254   3.216   1.904   1.660
17004WAT     H251255   3.218   1.933   1.821
17005WAT      O51256   1.555   9.795   9.292
17005WAT     H151257   1.499   9.745   9.225
17005WAT     H251258   1.500   9.865   9.336
17006WAT      O51259   7.660   5.948   2.989
17006WAT     H151260   7.573   5.925   3.031
17006WAT     H251261   7.679   6.046   3.000
17007WAT      O51262   1.896   0.445   4.980
17007WAT     H151263   1.968   0.445   5.049
17007WAT     H251264   1.840   0.527   4.991
17008WAT      O51265   9.263   5.665   0.742
17008WAT     H151266   9.278   5.584   0.684
17008WAT     H251267   9.228   5.635   0.831
17009WAT      O51268   8.392   3.780   3.622
17009WAT     H151269   8.358   3.762   3.714
17009WAT     H251270   8.326   3.745   3.555
17010WAT      O51271   0.808   1.344   1.764
17010WAT     H151272   0.800   1.442   1.746
17010WAT     H251273   0.723   1.311   1.805
17011WAT      O51274   8.107   0.684   1.282
17011WAT     H151275   8.167   0.616   1.325
17011WAT     H251276   8.105   0.767   1.338
17012WAT      O51277   7.778   1.508   0.276
17012WAT     H151278   7.794   1.506   0.178
17012WAT     H251279   7.803   1.598   0.312
17013WAT      O51280   0.901   6.328   1.264
17013WAT     H151281   0.966   6.316   1.338
17013WAT     H251282   0.812   6.355   1.301
17014WAT      O51283   4.437   3.585   6.303
17014WAT     H151284   4.377   3.618   6.230
17014WAT     H251285   4.386   3.523   6.363
17015WAT      O51286   7.426   8.304   8.080
17015WAT     H151287   7.343   8.269   8.036
17015WAT     H251288   7.402   8.353   8.163
17016WAT      O51289   8.944   6.530   3.028
17016WAT     H151290   8.965   6.495   3.119
17016WAT     H251291   8.952   6.630   3.029
17017WAT      O51292   7.397   0.684   7.311
17017WAT     H151293   7.378   0.639   7.398
17017WAT     H251294   7.351   0.635   7.237
17018WAT      O51295   1.334   8.908   4.947
17018WAT     H151296   1.249   8.874   4.986
17018WAT     H251297   1.411   8.865   4.994
17019WAT      O51298   0.164   2.049   1.700
17019WAT     H151299   0.104   2.012   1.629
17019WAT     H251300   0.141   2.145   1.717
17020WAT      O51301   2.992   3.075   1.763
17020WAT     H151302   2.980   3.172   1.782
17020WAT     H251303   3.089   3.053   1.765
17021WAT      O51304   2.499   7.670   5.911
17021WAT     H151305   2.574   7.663   5.976
17021WAT     H251306   2.447   7.584   5.911
17022WAT      O51307   8.355   0.499   8.063
17022WAT     H151308   8.385   0.542   7.978
17022WAT     H251309   8.426   0.438   8.098
17023WAT      O51310   0.244   8.138   5.882
17023WAT     H151311   0.303   8.064   5.849
17023WAT     H251312   0.213   8.193   5.804
17024WAT      O51313   6.266   2.515   8.149
17024WAT     H151314   6.338   2.455   8.184
17024WAT     H251315   6.283   2.532   8.051
17025WAT      O51316   5.662   4.015   7.902
17025WAT     H151317   5.732   4.019   7.973
17025WAT     H251318   5.580   4.064   7.933
17026WAT      O51319   6.780   4.377   8.283
17026WAT     H151320   6.795   4.450   8.350
17026WAT     H251321   6.683   4.357   8.278
17027WAT      O51322   8.217   6.315   4.777
17027WAT     H151323   8.163   6.232   4.791
17027WAT     H251324   8.299   6.312   4.834
17028WAT      O51325   1.729   5.221   4.898
17028WAT     H151326   1.754   5.249   4.990
17028WAT     H251327   1.738   5.299   4.836
17029WAT      O51328   0.126   4.589   0.349
17029WAT     H151329   0.089   4.519   0.288
17029WAT     H251330   0.220   4.566   0.373
17030WAT      O51331   7.184   8.238   7.344
17030WAT     H151332   7.116   8.205   7.410
17030WAT     H251333   7.236   8.313   7.386
17031WAT      O51334   1.685   9.585   9.514
17031WAT     H151335   1.600   9.635   9.530
17031WAT     H251336   1.721   9.608   9.423
17032WAT      O51337   6.125   8.922   8.467
17032WAT     H151338   6.134   8.824   8.450
17032WAT     H251339   6.162   8.943   8.558
17033WAT      O51340   3.944   8.912   9.499
17033WAT     H151341   3.873   8.981   9.483
17033WAT     H251342   3.901   8.828   9.534
17034WAT      O51343   9.664   5.666   7.747
17034WAT     H151344   9.633   5.744   7.693
17034WAT     H251345   9.660   5.583   7.691
17035WAT      O51346   5.048   7.272   4.178
17035WAT     H151347   5.009   7.349   4.128
17035WAT     H251348   5.127   7.236   4.128
17036WAT      O51349   0.021   0.045   5.259
17036WAT     H151350   0.001   0.026   5.163
17036WAT     H251351   0.098  -0.011   5.289
17037WAT      O51352   2.763   1.896   0.055
17037WAT     H151353   2.741   1.903  -0.043
17037WAT     H251354   2.679   1.901   0.108
17038WAT      O51355   8.357   8.391   8.023
17038WAT     H151356   8.291   8.332   8.069
17038WAT     H251357   8.400   8.452   8.089
17039WAT      O51358   1.681   6.670   0.233
17039WAT     H151359   1.701   6.584   0.186
17039WAT     H251360   1.646   6.736   0.167
17040WAT      O51361   3.802   6.349   2.951
17040WAT     H151362   3.805   6.405   2.868
17040WAT     H251363   3.775   6.406   3.029
17041WAT      O51364   2.308   2.122   5.153
17041WAT     H151365   2.395   2.074   5.137
17041WAT     H251366   2.264   2.141   5.066
17042WAT      O51367   0.444   2.718   9.823
17042WAT     H151368   0.450   2.644   9.757
17042WAT     H251369   0.428   2.681   9.914
17043WAT      O51370   8.624   5.321   5.348
17043WAT     H151371   8.686   5.334   5.271
17043WAT     H251372   8.588   5.410   5.378
17044WAT      O51373   2.729   8.261   1.965
17044WAT     H151374   2.660   8.193   1.990
17044WAT     H251375   2.731   8.272   1.866
17045WAT      O51376   6.632   6.473   4.324
17045WAT     H151377   6.673   6.562   4.343
17045WAT     H251378   6.540   6.469   4.363
17046WAT      O51379   5.262   1.336   0.643
17046WAT     H151380   5.234   1.414   0.699
17046WAT     H251381   5.284   1.367   0.550
17047WAT      O51382   7.259   4.758   8.633
17047WAT     H151383   7.172   4.805   8.620
17047WAT     H251384   7.291   4.773   8.727
17048WAT      O51385   5.111   5.972   7.861
17048WAT     H151386   5.151   5.946   7.949
17048WAT     H251387   5.072   6.064   7.868
17049WAT      O51388   9.877   3.911   2.402
17049WAT     H151389   9.820   3.855   2.341
17049WAT     H251390   9.968   3.871   2.409
17050WAT      O51391   0.129   6.151   3.618
17050WAT     H151392   0.096   6.119   3.707
17050WAT     H251393   0.127   6.251   3.615
17051WAT      O51394   4.662   7.701   2.836
17051WAT     H151395   4.598   7.671   2.765
17051WAT     H251396   4.654   7.641   2.915
17052WAT      O51397   4.083   5.947   0.700
17052WAT     H151398   4.062   5.977   0.793
17052WAT     H251399   4.043   6.011   0.635
17053WAT      O51400   4.041   0.435   6.412
17053WAT     H151401   3.945   0.460   6.425
17053WAT     H251402   4.054   0.338   6.433
17054WAT      O51403   3.955   4.444   3.293
17054WAT     H151404   3.985   4.389   3.215
17054WAT     H251405   3.855   4.445   3.297
17055WAT      O51406   3.439   2.859   9.228
17055WAT     H151407   3.470   2.830   9.319
17055WAT     H251408   3.510   2.913   9.184
17056WAT      O51409   6.359   1.666   1.081
17056WAT     H151410   6.344   1.728   1.159
17056WAT     H251411   6.443   1.614   1.096
17057WAT      O51412   5.511   9.567   1.221
17057WAT     H151413   5.537   9.664   1.222
17057WAT     H251414   5.470   9.544   1.133
17058WAT      O51415   2.265   4.927   6.608
17058WAT     H151416   2.252   5.002   6.672
17058WAT     H251417   2.362   4.920   6.584
17059WAT      O51418   2.630   8.971   6.547
17059WAT     H151419   2.654   8.980   6.451
17059WAT     H251420   2.685   9.034   6.602
17060WAT      O51421   7.407   8.361   2.637
17060WAT     H151422   7.428   8.266   2.660
17060WAT     H251423   7.445   8.382   2.547
17061WAT      O51424   5.732   2.732   1.362
17061WAT     H151425   5.663   2.731   1.434
17061WAT     H251426   5.748   2.827   1.333
17062WAT      O51427   7.644   2.826   7.152
17062WAT     H151428   7.556   2.858   7.119
17062WAT     H251429   7.639   2.728   7.171
17063WAT      O51430   2.323   3.142   1.720
17063WAT     H151431   2.273   3.221   1.687
17063WAT     H251432   2.351   3.157   1.815
17064WAT      O51433   1.367   9.735   0.987
17064WAT     H151434   1.326   9.820   1.019
17064WAT     H251435   1.330   9.658   1.040
17065WAT      O51436   3.629   4.664   3.282
17065WAT     H151437   3.699   4.734   3.276
17065WAT     H251438   3.565   4.686   3.355
17066WAT      O51439   6.902   9.124   1.706
17066WAT     H151440   6.887   9.102   1.803
17066WAT     H251441   6.977   9.069   1.670
17067WAT      O51442   6.144   5.088   1.261
17067WAT     H151443   6.191   5.160   1.211
17067WAT     H251444   6.097   5.027   1.197
17068WAT      O51445   4.139   4.768   7.710
17068WAT     H151446   4.215   4.832   7.695
17068WAT     H251447   4.126   4.712   7.628
17069WAT      O51448   4.965   9.546   3.080
17069WAT     H151449   4.962   9.646   3.082
17069WAT     H251450   4.901   9.510   3.148
17070WAT      O51451   6.830   8.761   6.783
17070WAT     H151452   6.927   8.764   6.809
17070WAT     H251453   6.782   8.695   6.841
17071WAT      O51454   6.136   8.737   6.421
17071WAT     H151455   6.158   8.766   6.514
17071WAT     H251456   6.213   8.684   6.384
17072WAT      O51457   4.767   2.697   5.325
17072WAT     H151458   4.744   2.600   5.329
17072WAT     H251459   4.692   2.747   5.282
17073WAT      O51460   9.823   1.242   1.957
17073WAT     H151461   9.740   1.284   1.993
17073WAT     H251462   9.811   1.143   1.954
17074WAT      O51463   9.486   3.954   8.317
17074WAT     H151464   9.409   3.896   8.342
17074WAT     H251465   9.475   3.984   8.223
17075WAT      O51466   5.525   5.836   1.709
17075WAT     H151467   5.563   5.913   1.759
17075WAT     H251468   5.592   5.803   1.642
17076WAT      O51469   9.592   8.199   7.055
17076WAT     H151470   9.619   8.222   7.149
17076WAT     H251471   9.556   8.106   7.053
17077WAT      O51472   1.253   6.660   6.043
17077WAT     H151473   1.186   6.719   5.998
17077WAT     H251474   1.280   6.587   5.980
17078WAT      O51475   8.096   3.050   0.351
17078WAT     H151476   8.148   3.016   0.272
17078WAT     H251477   8.012   2.996   0.360
17079WAT      O51478   9.868   2.441   0.257
17079WAT     H151479   9.925   2.439   0.175
17079WAT     H251480   9.778   2.481   0.234
17080WAT      O51481   7.793   1.075   6.299
17080WAT     H151482   7.724   1.141   6.329
17080WAT     H251483   7.849   1.047   6.377
17081WAT      O51484   2.337   5.381   6.331
17081WAT     H151485   2.240   5.405   6.325
17081WAT     H251486   2.372   5.403   6.422
17082WAT      O51487   4.824   6.400   3.698
17082WAT     H151488   4.748   6.345   3.664
17082WAT     H251489   4.909   6.348   3.691
17083WAT      O51490   7.181   1.777   6.553
17083WAT     H151491   7.209   1.758   6.459
17083WAT     H251492   7.260   1.769   6.614
17084WAT      O51493   7.163   2.140   3.286
17084WAT     H151494   7.106   2.178   3.358
17084WAT     H251495   7.241   2.200   3.269
17085WAT      O51496   8.520   7.993   3.529
17085WAT     H151497   8.480   8.038   3.449
17085WAT     H251498   8.579   7.918   3.499
17086WAT      O51499   6.205   9.738   3.387
17086WAT     H151500   6.294   9.708   3.421
17086WAT     H251501   6.196   9.837   3.399
17087WAT      O51502   5.537   9.369   7.070
17087WAT     H151503   5.588   9.455   7.065
17087WAT     H251504   5.602   9.292   7.077
17088WAT      O51505   6.141   5.133   7.504
17088WAT     H151506   6.108   5.043   7.474
17088WAT     H251507   6.094   5.159   7.589
17089WAT      O51508   4.533   1.616   4.800
17089WAT     H151509   4.615   1.578   4.843
17089WAT     H251510   4.515   1.570   4.713
17090WAT      O51511   5.290   6.290   0.052
17090WAT     H151512   5.330   6.292   0.143
17090WAT     H251513   5.205   6.237   0.053
17091WAT      O51514   8.292   1.429   5.248
17091WAT     H151515   8.257   1.358   5.309
17091WAT     H251516   8.238   1.513   5.260
17092WAT      O51517   4.889   3.145   6.753
17092WAT     H151518   4.922   3.239   6.759
17092WAT     H251519   4.941   3.087   6.816
17093WAT      O51520   7.694   0.165   2.408
17093WAT     H151521   7.657   0.088   2.460
17093WAT     H251522   7.694   0.247   2.465
17094WAT      O51523   9.622   7.166   8.008
17094WAT     H151524   9.648   7.079   8.050
17094WAT     H251525   9.704   7.221   7.994
17095WAT      O51526   2.367   7.215   7.663
17095WAT     H151527   2.347   7.117   7.653
17095WAT     H251528   2.308   7.268   7.602
17096WAT      O51529   5.722   7.661   7.009
17096WAT     H151530   5.695   7.610   7.090
17096WAT     H251531   5.686   7.616   6.927
17097WAT      O51532   6.994   0.631   6.810
17097WAT     H151533   6.999   0.612   6.712
17097WAT     H251534   6.920   0.577   6.851
17098WAT      O51535   8.500   3.335   2.953
17098WAT     H151536   8.554   3.318   2.871
17098WAT     H251537   8.435   3.409   2.935
17099WAT      O51538   5.694   1.040   2.578
17099WAT     H151539   5.687   1.139   2.576
17099WAT     H251540   5.602   1.001   2.588
17100WAT      O51541   8.308   0.673   5.810
17100WAT     H151542   8.394   0.723   5.822
17100WAT     H251543   8.232   0.733   5.836
17101WAT      O51544   8.211   6.649   7.489
17101WAT     H151545   8.127   6.595   7.481
17101WAT     H251546   8.264   6.616   7.567
17102WAT      O51547   1.187   4.851   9.879
17102WAT     H151548   1.267   4.820   9.931
17102WAT     H251549   1.146   4.930   9.925
17103WAT      O51550   6.608   3.859   0.364
17103WAT     H151551   6.510   3.871   0.378
17103WAT     H251552   6.624   3.805   0.281
17104WAT      O51553   5.601   6.296   1.855
17104WAT     H151554   5.615   6.339   1.944
17104WAT     H251555   5.537   6.352   1.801
17105WAT      O51556   9.737   5.523   9.182
17105WAT     H151557   9.820   5.572   9.157
17105WAT     H251558   9.706   5.552   9.272
17106WAT      O51559   2.223   6.282   9.569
17106WAT     H151560   2.186   6.374   9.551
17106WAT     H251561   2.287   6.257   9.496
17107WAT      O51562   4.939   7.714   2.800
17107WAT     H151563   4.842   7.724   2.819
17107WAT     H251564   4.965   7.776   2.726
17108WAT      O51565   6.756   6.395   8.624
17108WAT     H151566   6.728   6.303   8.596
17108WAT     H251567   6.686   6.435   8.683
17109WAT      O51568   5.487   7.028   6.501
17109WAT     H151569   5.395   7.064   6.514
17109WAT     H251570   5.489   6.970   6.420
17110WAT      O51571   3.516   0.824   4.764
17110WAT     H151572   3.452   0.895   4.792
17110WAT     H251573   3.477   0.734   4.785
17111WAT      O51574   0.145   1.115   8.742
17111WAT     H151575   0.072   1.183   8.753
17111WAT     H251576   0.198   1.110   8.827
17112WAT      O51577   1.049   1.872   6.340
17112WAT     H151578   0.988   1.951   6.338
17112WAT     H251579   1.052   1.829   6.249
17113WAT      O51580   0.748   8.560   5.135
17113WAT     H151581   0.809   8.637   5.147
17113WAT     H251582   0.660   8.580   5.179
17114WAT      O51583   5.437   4.738   2.089
17114WAT     H151584   5.366   4.668   2.079
17114WAT     H251585   5.464   4.771   1.999
17115WAT      O51586   7.075   2.143   0.140
17115WAT     H151587   7.159   2.166   0.190
17115WAT     H251588   7.077   2.184   0.049
17116WAT      O51589   1.755   3.590   7.069
17116WAT     H151590   1.715   3.507   7.030
17116WAT     H251591   1.684   3.639   7.121
17117WAT      O51592   9.622   3.817   4.183
17117WAT     H151593   9.581   3.907   4.195
17117WAT     H251594   9.721   3.827   4.170
17118WAT      O51595   5.127   5.718   2.281
17118WAT     H151596   5.078   5.654   2.341
17118WAT     H251597   5.098   5.702   2.186
17119WAT      O51598   0.280   9.708   6.495
17119WAT     H151599   0.346   9.782   6.485
17119WAT     H251600   0.212   9.712   6.421
17120WAT      O51601   8.601   4.408   1.043
17120WAT     H151602   8.503   4.429   1.049
17120WAT     H251603   8.648   4.482   0.995
17121WAT      O51604   8.702   4.014   8.837
17121WAT     H151605   8.712   4.025   8.738
17121WAT     H251606   8.785   3.973   8.874
17122WAT      O51607   9.020   4.788   8.314
17122WAT     H151608   8.969   4.829   8.389
17122WAT     H251609   8.982   4.698   8.292
17123WAT      O51610   0.287   3.827   8.544
17123WAT     H151611   0.295   3.922   8.574
17123WAT     H251612   0.193   3.808   8.516
17124WAT      O51613   2.840   5.929   5.739
17124WAT     H151614   2.802   5.946   5.648
17124WAT     H251615   2.811   6.001   5.802
17125WAT      O51616   8.236   7.064   4.174
17125WAT     H151617   8.270   6.985   4.226
17125WAT     H251618   8.284   7.146   4.203
17126WAT      O51619   5.441   7.721   1.743
17126WAT     H151620   5.358   7.776   1.731
17126WAT     H251621   5.422   7.626   1.717
17127WAT      O51622   6.501   9.064   3.135
17127WAT     H151623   6.600   9.072   3.130
17127WAT     H251624   6.459   9.153   3.117
17128WAT      O51625   7.514   3.445   4.196
17128WAT     H151626   7.436   3.500   4.224
17128WAT     H251627   7.594   3.504   4.183
17129WAT      O51628   9.630   8.773   1.053
17129WAT     H151629   9.661   8.858   1.095
17129WAT     H251630   9.653   8.696   1.112
17130WAT      O51631   0.726   0.786   7.250
17130WAT     H151632   0.727   0.881   7.219
17130WAT     H251633   0.631   0.757   7.263
17131WAT      O51634   9.709   7.174   5.384
17131WAT     H151635   9.758   7.098   5.341
17131WAT     H251636   9.667   7.230   5.313
17132WAT      O51637   1.338   1.735   0.753
17132WAT     H151638   1.418   1.674   0.752
17132WAT     H251639   1.302   1.743   0.661
17133WAT      O51640   4.566   1.675   0.950
17133WAT     H151641   4.661   1.660   0.975
17133WAT     H251642   4.549   1.640   0.858
17134WAT      O51643   6.762   4.924   8.867
17134WAT     H151644   6.820   4.989   8.818
17134WAT     H251645   6.817   4.845   8.895
17135WAT      O51646   3.532   1.814   5.362
17135WAT     H151647   3.560   1.721   5.340
17135WAT     H251648   3.539   1.828   5.461
17136WAT      O51649   1.466   0.425   9.136
17136WAT     H151650   1.425   0.369   9.208
17136WAT     H251651   1.460   0.375   9.049
17137WAT      O51652   5.069   9.661   3.696
17137WAT     H151653   5.094   9.758   3.695
17137WAT     H251654   5.066   9.628   3.601
17138WAT      O51655   5.840   7.597   3.432
17138WAT     H151656   5.817   7.506   3.395
17138WAT     H251657   5.883   7.652   3.360
17139WAT      O51658   8.658   9.156   2.821
17139WAT     H151659   8.736   9.167   2.759
17139WAT     H251660   8.607   9.073   2.795
17140WAT      O51661   8.014   7.619   7.836
17140WAT     H151662   7.945   7.558   7.798
17140WAT     H251663   7.969   7.702   7.870
17141WAT      O51664   5.757   1.744   0.241
17141WAT     H151665   5.768   1.704   0.332
17141WAT     H251666   5.831   1.809   0.223
17142WAT      O51667   3.935   6.035   0.010
17142WAT     H151668   3.901   5.993   0.095
17142WAT     H251669   3.976   5.964  -0.047
17143WAT      O51670   5.428   8.590   3.883
17143WAT     H151671   5.485   8.512   3.858
17143WAT     H251672   5.456   8.670   3.829
17144WAT      O51673   6.321   5.824   1.298
17144WAT     H151674   6.295   5.918   1.320
17144WAT     H251675   6.372   5.784   1.374
17145WAT      O51676   7.825   7.572   5.256
17145WAT     H151677   7.882   7.550   5.177
17145WAT     H251678   7.763   7.647   5.233
17146WAT      O51679   3.806   0.558   3.153
17146WAT     H151680   3.738   0.520   3.216
17146WAT     H251681   3.764   0.631   3.099
17147WAT      O51682   6.313   1.750   1.633
17147WAT     H151683   6.333   1.840   1.594
17147WAT     H251684   6.220   1.723   1.609
17148WAT      O51685   6.824   1.068   8.516
17148WAT     H151686   6.797   1.141   8.454
17148WAT     H251687   6.918   1.040   8.495
17149WAT      O51688   0.761   2.406   6.935
17149WAT     H151689   0.727   2.469   6.865
17149WAT     H251690   0.712   2.319   6.927
17150WAT      O51691   4.891   1.941   1.539
17150WAT     H151692   4.973   1.990   1.570
17150WAT     H251693   4.811   1.975   1.589
17151WAT      O51694   7.007   8.476   2.466
17151WAT     H151695   7.102   8.466   2.437
17151WAT     H251696   6.963   8.386   2.468
17152WAT      O51697   9.260   3.412   9.285
17152WAT     H151698   9.340   3.457   9.325
17152WAT     H251699   9.226   3.467   9.209
17153WAT      O51700   3.893   3.796   5.829
17153WAT     H151701   3.905   3.862   5.756
17153WAT     H251702   3.912   3.840   5.917
17154WAT      O51703   4.034   8.345   6.434
17154WAT     H151704   4.016   8.396   6.350
17154WAT     H251705   4.127   8.309   6.433
17155WAT      O51706   1.005   8.104   3.468
17155WAT     H151707   1.021   8.186   3.523
17155WAT     H251708   0.933   8.123   3.401
17156WAT      O51709   0.419   5.101   1.984
17156WAT     H151710   0.512   5.127   1.956
17156WAT     H251711   0.424   5.024   2.047
17157WAT      O51712   2.829   3.071   2.832
17157WAT     H151713   2.854   3.076   2.929
17157WAT     H251714   2.906   3.035   2.780
17158WAT      O51715   3.364   1.937   7.200
17158WAT     H151716   3.396   2.021   7.157
17158WAT     H251717   3.398   1.858   7.149
17159WAT      O51718   1.158   5.072   0.148
17159WAT     H151719   1.243   5.123   0.137
17159WAT     H251720   1.083   5.121   0.102
17160WAT      O51721   4.737   0.946   8.650
17160WAT     H151722   4.727   0.964   8.748
17160WAT     H251723   4.720   0.849   8.632
17161WAT      O51724   6.997   2.236   9.180
17161WAT     H151725   6.958   2.233   9.271
17161WAT     H251726   6.926   2.257   9.113
17162WAT      O51727   3.462   9.828   0.876
17162WAT     H151728   3.544   9.797   0.924
17162WAT     H251729   3.435   9.759   0.809
17163WAT      O51730   4.717   2.791   2.329
17163WAT     H151731   4.647   2.722   2.309
17163WAT     H251732   4.674   2.880   2.340
17164WAT      O51733   0.890   4.541   1.302
17164WAT     H151734   0.968   4.479   1.314
17164WAT     H251735   0.845   4.520   1.215
17165WAT      O51736   7.742   0.201   5.888
17165WAT     H151737   7.798   0.274   5.849
17165WAT     H251738   7.731   0.216   5.986
17166WAT      O51739   4.788   8.150   0.948
17166WAT     H151740   4.847   8.072   0.928
17166WAT     H251741   4.790   8.167   1.047
17167WAT      O51742   8.675   2.180   1.841
17167WAT     H151743   8.718   2.254   1.788
17167WAT     H251744   8.682   2.200   1.938
17168WAT      O51745   0.954   6.141   6.669
17168WAT     H151746   0.939   6.167   6.764
17168WAT     H251747   1.037   6.186   6.634
17169WAT      O51748   3.151   4.456   0.863
17169WAT     H151749   3.093   4.513   0.805
17169WAT     H251750   3.093   4.392   0.914
17170WAT      O51751   1.336   3.493   1.428
17170WAT     H151752   1.375   3.404   1.451
17170WAT     H251753   1.376   3.526   1.343
17171WAT      O51754   0.838   1.689   2.202
17171WAT     H151755   0.797   1.614   2.149
17171WAT     H251756   0.777   1.714   2.277
17172WAT      O51757   0.277   1.697   1.514
17172WAT     H151758   0.219   1.669   1.589
17172WAT     H251759   0.347   1.760   1.547
17173WAT      O51760   5.559   6.272   8.056
17173WAT     H151761   5.459   6.279   8.056
17173WAT     H251762   5.596   6.332   7.985
17174WAT      O51763   8.632   0.673   9.251
17174WAT     H151764   8.631   0.678   9.351
17174WAT     H251765   8.638   0.577   9.223
17175WAT      O51766   6.082   9.627   5.199
17175WAT     H151767   6.100   9.571   5.118
17175WAT     H251768   6.147   9.703   5.201
17176WAT      O51769   0.779   0.238   2.049
17176WAT     H151770   0.766   0.333   2.076
17176WAT     H251771   0.871   0.226   2.011
17177WAT      O51772   8.866   0.793   8.539
17177WAT     H151773   8.959   0.793   8.574
17177WAT     H251774   8.861   0.737   8.456
17178WAT      O51775   5.369   6.486   8.607
17178WAT     H151776   5.419   6.403   8.631
17178WAT     H251777   5.433   6.558   8.583
17179WAT      O51778   5.587   4.240   8.814
17179WAT     H151779   5.601   4.263   8.910
17179WAT     H251780   5.557   4.144   8.806
17180WAT      O51781   4.135   2.142   1.786
17180WAT     H151782   4.227   2.102   1.786
17180WAT     H251783   4.074   2.085   1.841
17181WAT      O51784   6.913   8.540   7.613
17181WAT     H151785   6.994   8.558   7.557
17181WAT     H251786   6.915   8.445   7.645
17182WAT      O51787   5.108   2.497   2.301
17182WAT     H151788   5.034   2.519   2.364
17182WAT     H251789   5.080   2.424   2.239
17183WAT      O51790   7.892   5.681   2.301
17183WAT     H151791   7.937   5.625   2.371
17183WAT     H251792   7.794   5.663   2.303
17184WAT      O51793   6.743   0.841   7.427
17184WAT     H151794   6.820   0.863   7.487
17184WAT     H251795   6.733   0.741   7.422
17185WAT      O51796   1.371   8.505   2.771
17185WAT     H151797   1.338   8.587   2.724
17185WAT     H251798   1.303   8.432   2.764
17186WAT      O51799   7.004   1.528   9.268
17186WAT     H151800   6.961   1.439   9.285
17186WAT     H251801   6.967   1.567   9.183
17187WAT      O51802   4.951   5.912   7.351
17187WAT     H151803   4.922   6.006   7.331
17187WAT     H251804   5.043   5.913   7.390
17188WAT      O51805   6.408   9.429   3.221
17188WAT     H151806   6.432   9.471   3.308
17188WAT     H251807   6.313   9.398   3.223
17189WAT      O51808   5.934   6.488   6.806
17189WAT     H151809   5.861   6.434   6.847
17189WAT     H251810   5.912   6.585   6.814
17190WAT      O51811   7.803   3.262   6.295
17190WAT     H151812   7.868   3.339   6.297
17190WAT     H251813   7.802   3.223   6.203
17191WAT      O51814   4.279   0.323   9.869
17191WAT     H151815   4.228   0.348   9.787
17191WAT     H251816   4.348   0.393   9.888
17192WAT      O51817   5.501   2.169   7.680
17192WAT     H151818   5.461   2.246   7.729
17192WAT     H251819   5.435   2.094   7.677
17193WAT      O51820   5.618   8.819   9.141
17193WAT     H151821   5.583   8.802   9.049
17193WAT     H251822   5.708   8.776   9.152
17194WAT      O51823   9.386   2.541   9.797
17194WAT     H151824   9.319   2.606   9.832
17194WAT     H251825   9.478   2.574   9.816
17195WAT      O51826   8.966   6.430   5.002
17195WAT     H151827   8.888   6.447   4.941
17195WAT     H251828   9.047   6.474   4.965
17196WAT      O51829   8.109   1.725   8.086
17196WAT     H151830   8.179   1.742   8.155
17196WAT     H251831   8.151   1.688   8.004
17197WAT      O51832   3.329   1.578   4.695
17197WAT     H151833   3.373   1.502   4.647
17197WAT     H251834   3.391   1.614   4.765
17198WAT      O51835   7.201   0.429   7.457
17198WAT     H151836   7.248   0.494   7.517
17198WAT     H251837   7.263   0.354   7.434
17199WAT      O51838   4.469   6.534   5.349
17199WAT     H151839   4.464   6.467   5.275
17199WAT     H251840   4.412   6.504   5.425
17200WAT      O51841   9.554   5.132   5.526
17200WAT     H151842   9.580   5.203   5.591
17200WAT     H251843   9.633   5.074   5.506
17201WAT      O51844   4.635   5.245   1.412
17201WAT     H151845   4.590   5.313   1.354
17201WAT     H251846   4.710   5.203   1.362
17202WAT      O51847   3.948   4.934   1.798
17202WAT     H151848   3.946   5.029   1.769
17202WAT     H251849   3.946   4.929   1.898
17203WAT      O51850   7.804   4.199   9.797
17203WAT     H151851   7.712   4.159   9.799
17203WAT     H251852   7.814   4.257   9.716
17204WAT      O51853   1.010   4.803   1.882
17204WAT     H151854   1.103   4.771   1.865
17204WAT     H251855   1.005   4.902   1.867
17205WAT      O51856   1.899   2.646   4.959
17205WAT     H151857   1.830   2.575   4.948
17205WAT     H251858   1.963   2.621   5.032
17206WAT      O51859   5.847   1.598   9.035
17206WAT     H151860   5.939   1.624   9.066
17206WAT     H251861   5.793   1.681   9.018
17207WAT      O51862   7.976   9.716   8.046
17207WAT     H151863   7.947   9.805   8.013
17207WAT     H251864   8.032   9.727   8.128
17208WAT      O51865   8.339   2.108   6.153
17208WAT     H151866   8.333   2.027   6.096
17208WAT     H251867   8.343   2.190   6.095
17209WAT      O51868   6.435   9.014   7.650
17209WAT     H151869   6.385   8.942   7.601
17209WAT     H251870   6.373   9.061   7.713
17210WAT      O51871   1.696   5.389   9.269
17210WAT     H151872   1.761   5.461   9.292
17210WAT     H251873   1.661   5.347   9.353
17211WAT      O51874   9.720   1.243   2.682
17211WAT     H151875   9.819   1.258   2.673
17211WAT     H251876   9.672   1.331   2.677
17212WAT      O51877   6.889   8.093   1.286
17212WAT     H151878   6.857   8.092   1.381
17212WAT     H251879   6.861   8.179   1.243
17213WAT      O51880   8.876   4.440   4.664
17213WAT     H151881   8.934   4.364   4.637
17213WAT     H251882   8.816   4.410   4.739
17214WAT      O51883   3.514   5.275   1.873
17214WAT     H151884   3.485   5.204   1.809
17214WAT     H251885   3.442   5.344   1.881
17215WAT      O51886   0.508   3.312   1.694
17215WAT     H151887   0.509   3.215   1.672
17215WAT     H251888   0.472   3.363   1.616
17216WAT      O51889   9.405   4.154   2.040
17216WAT     H151890   9.463   4.212   2.098
17216WAT     H251891   9.399   4.194   1.949
17217WAT      O51892   7.345   6.376   7.709
17217WAT     H151893   7.433   6.411   7.740
17217WAT     H251894   7.274   6.443   7.730
17218WAT      O51895   8.013   3.893   0.607
17218WAT     H151896   8.045   3.865   0.517
17218WAT     H251897   8.088   3.883   0.673
17219WAT      O51898   1.993   8.497   5.818
17219WAT     H151899   2.000   8.564   5.892
17219WAT     H251900   2.082   8.456   5.801
17220WAT      O51901   5.586   2.649   7.644
17220WAT     H151902   5.647   2.725   7.622
17220WAT     H251903   5.640   2.567   7.661
17221WAT      O51904   7.825   1.116   7.665
17221WAT     H151905   7.862   1.152   7.580
17221WAT     H251906   7.880   1.037   7.694
17222WAT      O51907   5.154   6.243   2.718
17222WAT     H151908   5.117   6.155   2.688
17222WAT     H251909   5.146   6.309   2.643
17223WAT      O51910   0.321   7.047   7.728
17223WAT     H151911   0.310   7.033   7.826
17223WAT     H251912   0.393   7.115   7.712
17224WAT      O51913   2.026   8.656   8.295
17224WAT     H151914   2.091   8.590   8.259
17224WAT     H251915   1.956   8.676   8.226
17225WAT      O51916   0.878   2.565   9.219
17225WAT     H151917   0.905   2.485   9.165
17225WAT     H251918   0.887   2.544   9.316
17226WAT      O51919   2.452   3.732   2.189
17226WAT     H151920   2.366   3.681   2.179
17226WAT     H251921   2.458   3.802   2.117
17227WAT      O51922   9.329   4.299   1.088
17227WAT     H151923   9.233   4.272   1.098
17227WAT     H251924   9.383   4.221   1.057
17228WAT      O51925   2.402   0.098   5.977
17228WAT     H151926   2.333   0.026   5.983
17228WAT     H251927   2.492   0.061   6.002
17229WAT      O51928   7.280   3.796   2.203
17229WAT     H151929   7.329   3.820   2.287
17229WAT     H251930   7.185   3.774   2.224
17230WAT      O51931   5.363   7.660   3.065
17230WAT     H151932   5.412   7.651   2.978
17230WAT     H251933   5.265   7.648   3.050
17231WAT      O51934   4.744   8.182   9.497
17231WAT     H151935   4.820   8.146   9.443
17231WAT     H251936   4.708   8.264   9.453
17232WAT      O51937   0.752   9.243   7.898
17232WAT     H151938   0.749   9.245   7.998
17232WAT     H251939   0.759   9.148   7.867
17233WAT      O51940   5.396   6.641   5.659
17233WAT     H151941   5.392   6.582   5.578
17233WAT     H251942   5.396   6.584   5.741
17234WAT      O51943   3.279   3.670   1.342
17234WAT     H151944   3.314   3.713   1.425
17234WAT     H251945   3.354   3.627   1.293
17235WAT      O51946   9.617   7.252   7.111
17235WAT     H151947   9.628   7.153   7.125
17235WAT     H251948   9.688   7.284   7.048
17236WAT      O51949   1.880   3.575   5.425
17236WAT     H151950   1.781   3.575   5.437
17236WAT     H251951   1.902   3.561   5.328
17237WAT      O51952   5.196   7.121   5.766
17237WAT     H151953   5.283   7.078   5.791
17237WAT     H251954   5.171   7.095   5.673
17238WAT      O51955   3.027   4.410   3.109
17238WAT     H151956   2.986   4.433   3.198
17238WAT     H251957   3.126   4.415   3.116
17239WAT      O51958   0.970   7.737   5.485
17239WAT     H151959   1.023   7.820   5.501
17239WAT     H251960   0.879   7.747   5.525
17240WAT      O51961   5.330   2.330   7.390
17240WAT     H151962   5.263   2.261   7.416
17240WAT     H251963   5.411   2.285   7.354
17241WAT      O51964   6.910   7.932   7.696
17241WAT     H151965   6.886   7.835   7.698
17241WAT     H251966   6.891   7.972   7.785
17242WAT      O51967   5.756   3.146   6.684
17242WAT     H151968   5.744   3.047   6.685
17242WAT     H251969   5.667   3.190   6.670
17243WAT      O51970   5.542   7.721   0.548
17243WAT     H151971   5.550   7.814   0.512
17243WAT     H251972   5.554   7.655   0.473
17244WAT      O51973   4.587   4.068   2.421
17244WAT     H151974   4.639   3.994   2.463
17244WAT     H251975   4.526   4.030   2.351
17245WAT      O51976   2.935   8.689   4.208
17245WAT     H151977   2.920   8.713   4.304
17245WAT     H251978   2.866   8.623   4.178
17246WAT      O51979   7.334   8.165   2.096
17246WAT     H151980   7.272   8.124   2.029
17246WAT     H251981   7.281   8.220   2.160
17247WAT      O51982   3.425   2.931   8.527
17247WAT     H151983   3.373   2.859   8.480
17247WAT     H251984   3.363   2.983   8.586
17248WAT      O51985   5.729   6.468   0.221
17248WAT     H151986   5.736   6.510   0.312
17248WAT     H251987   5.639   6.490   0.182
17249WAT      O51988   9.642   1.832   8.340
17249WAT     H151989   9.616   1.737   8.327
17249WAT     H251990   9.676   1.870   8.254
17250WAT      O51991   2.063   1.073   6.721
17250WAT     H151992   2.006   1.117   6.651
17250WAT     H251993   2.113   1.143   6.772
17251WAT      O51994   7.396   2.291   9.225
17251WAT     H151995   7.317   2.352   9.233
17251WAT     H251996   7.365   2.196   9.219
17252WAT      O51997   7.436   4.075   1.105
17252WAT     H151998   7.389   4.029   1.030
17252WAT     H251999   7.388   4.160   1.127
17253WAT      O52000   0.730   7.288   8.523
17253WAT     H152001   0.681   7.327   8.446
17253WAT     H252002   0.694   7.196   8.542
17254WAT      O52003   0.087   0.327   5.093
17254WAT     H152004   0.065   0.246   5.149
17254WAT     H252005   0.002   0.367   5.059
17255WAT      O52006   4.750   6.148   6.656
17255WAT     H152007   4.730   6.119   6.562
17255WAT     H252008   4.849   6.159   6.667
17256WAT      O52009   9.408   5.455   2.482
17256WAT     H152010   9.434   5.534   2.428
17256WAT     H252011   9.433   5.371   2.433
17257WAT      O52012   1.370   9.300   8.835
17257WAT     H152013   1.456   9.347   8.813
17257WAT     H252014   1.382   9.202   8.827
17258WAT      O52015   2.072   1.614   2.356
17258WAT     H152016   2.041   1.662   2.439
17258WAT     H252017   2.024   1.527   2.348
17259WAT      O52018   5.854   4.543   6.095
17259WAT     H152019   5.873   4.531   5.997
17259WAT     H252020   5.844   4.453   6.138
17260WAT      O52021   8.170   5.499   1.493
17260WAT     H152022   8.120   5.514   1.579
17260WAT     H252023   8.206   5.406   1.492
17261WAT      O52024   4.980   0.881   6.013
17261WAT     H152025   4.941   0.933   5.937
17261WAT     H252026   4.990   0.940   6.093
17262WAT      O52027   0.881   7.771   6.117
17262WAT     H152028   0.858   7.783   6.213
17262WAT     H252029   0.809   7.810   6.060
17263WAT      O52030   5.786   3.621   3.006
17263WAT     H152031   5.861   3.555   3.015
17263WAT     H252032   5.817   3.712   3.033
17264WAT      O52033   2.002   1.481   6.977
17264WAT     H152034   2.085   1.527   7.009
17264WAT     H252035   1.933   1.550   6.953
17265WAT      O52036   3.988   2.354   3.700
17265WAT     H152037   3.954   2.354   3.794
17265WAT     H252038   4.051   2.278   3.688
17266WAT      O52039   6.494   3.840   8.796
17266WAT     H152040   6.467   3.835   8.892
17266WAT     H252041   6.587   3.804   8.786
17267WAT      O52042   0.648   5.050   4.540
17267WAT     H152043   0.726   4.999   4.504
17267WAT     H252044   0.588   4.988   4.592
17268WAT      O52045   0.047   4.155   2.520
17268WAT     H152046   0.039   4.206   2.435
17268WAT     H252047   0.023   4.059   2.504
17269WAT      O52048   9.807   7.291   1.272
17269WAT     H152049   9.793   7.286   1.371
17269WAT     H252050   9.729   7.252   1.225
17270WAT      O52051   3.865   3.049   3.478
17270WAT     H152052   3.923   3.102   3.416
17270WAT     H252053   3.897   3.062   3.572
17271WAT      O52054   1.855   4.198   1.012
17271WAT     H152055   1.797   4.274   1.041
17271WAT     H252056   1.946   4.233   0.990
17272WAT      O52057   3.515   8.742   2.057
17272WAT     H152058   3.608   8.775   2.071
17272WAT     H252059   3.453   8.786   2.122
17273WAT      O52060   4.451   1.130   6.654
17273WAT     H152061   4.534   1.185   6.659
17273WAT     H252062   4.392   1.165   6.582
17274WAT      O52063   6.291   7.449   8.247
17274WAT     H152064   6.205   7.468   8.199
17274WAT     H252065   6.368   7.472   8.187
17275WAT      O52066   6.038   4.414   3.879
17275WAT     H152067   5.978   4.395   3.956
17275WAT     H252068   6.079   4.505   3.890
17276WAT      O52069   1.793   6.469   2.662
17276WAT     H152070   1.826   6.537   2.728
17276WAT     H252071   1.865   6.401   2.646
17277WAT      O52072   1.383   3.194   3.204
17277WAT     H152073   1.393   3.226   3.110
17277WAT     H252074   1.288   3.169   3.221
17278WAT      O52075   1.027   5.853   8.761
17278WAT     H152076   0.935   5.848   8.800
17278WAT     H252077   1.021   5.883   8.666
17279WAT      O52078   0.211   6.046   8.657
17279WAT     H152079   0.199   5.967   8.597
17279WAT     H252080   0.233   6.127   8.602
17280WAT      O52081   4.717   9.807   7.231
17280WAT     H152082   4.796   9.785   7.287
17280WAT     H252083   4.734   9.778   7.137
17281WAT      O52084   0.837   4.970   6.839
17281WAT     H152085   0.770   4.964   6.913
17281WAT     H252086   0.814   4.903   6.768
17282WAT      O52087   9.518   7.729   1.461
17282WAT     H152088   9.449   7.799   1.477
17282WAT     H252089   9.604   7.773   1.435
17283WAT      O52090   1.334   4.125   5.638
17283WAT     H152091   1.429   4.149   5.659
17283WAT     H252092   1.286   4.206   5.603
17284WAT      O52093   8.272   5.728   3.214
17284WAT     H152094   8.256   5.679   3.300
17284WAT     H252095   8.195   5.713   3.152
17285WAT      O52096   3.287   7.571   9.859
17285WAT     H152097   3.357   7.628   9.817
17285WAT     H252098   3.323   7.479   9.875
17286WAT      O52099   1.147   9.424   3.342
17286WAT     H152100   1.165   9.329   3.370
17286WAT     H252101   1.208   9.448   3.266
17287WAT      O52102   5.742   8.412   7.825
17287WAT     H152103   5.724   8.461   7.910
17287WAT     H252104   5.698   8.460   7.749
17288WAT      O52105   5.341   5.136   1.471
17288WAT     H152106   5.313   5.217   1.419
17288WAT     H252107   5.438   5.143   1.494
17289WAT      O52108   1.638   6.205   7.461
17289WAT     H152109   1.674   6.182   7.551
17289WAT     H252110   1.712   6.240   7.404
17290WAT      O52111   9.579   2.209   6.086
17290WAT     H152112   9.489   2.211   6.043
17290WAT     H252113   9.568   2.206   6.186
17291WAT      O52114   0.514   4.384   9.407
17291WAT     H152115   0.518   4.477   9.371
17291WAT     H252116   0.599   4.363   9.454
17292WAT      O52117   1.903   9.725   5.219
17292WAT     H152118   1.906   9.680   5.308
17292WAT     H252119   1.922   9.823   5.230
17293WAT      O52120   1.466   3.142   2.570
17293WAT     H152121   1.374   3.179   2.578
17293WAT     H252122   1.477   3.098   2.481
17294WAT      O52123   9.713   5.599   5.281
17294WAT     H152124   9.729   5.693   5.310
17294WAT     H252125   9.699   5.597   5.182
17295WAT      O52126   5.687   0.848   7.650
17295WAT     H152127   5.655   0.765   7.696
17295WAT     H252128   5.636   0.860   7.565
17296WAT      O52129   6.709   4.861   6.706
17296WAT     H152130   6.647   4.831   6.634
17296WAT     H252131   6.656   4.905   6.779
17297WAT      O52132   1.351   4.169   5.986
17297WAT     H152133   1.406   4.200   6.064
17297WAT     H252134   1.297   4.246   5.951
17298WAT      O52135   8.927   5.945   9.354
17298WAT     H152136   8.925   6.012   9.280
17298WAT     H252137   8.910   5.854   9.318
17299WAT      O52138   2.224   4.268   1.767
17299WAT     H152139   2.314   4.226   1.768
17299WAT     H252140   2.232   4.367   1.757
17300WAT      O52141   2.704   2.086   8.415
17300WAT     H152142   2.792   2.042   8.399
17300WAT     H252143   2.719   2.180   8.445
17301WAT      O52144   0.415   4.559   5.596
17301WAT     H152145   0.478   4.485   5.574
17301WAT     H252146   0.337   4.557   5.532
17302WAT      O52147   6.431   2.938   5.455
17302WAT     H152148   6.385   2.973   5.373
17302WAT     H252149   6.499   2.870   5.428
17303WAT      O52150   6.526   0.851   4.393
17303WAT     H152151   6.474   0.915   4.337
17303WAT     H252152   6.568   0.900   4.469
17304WAT      O52153   8.294   8.537   3.102
17304WAT     H152154   8.322   8.524   3.006
17304WAT     H252155   8.283   8.448   3.146
17305WAT      O52156   8.665   3.044   0.142
17305WAT     H152157   8.614   3.006   0.220
17305WAT     H252158   8.639   3.140   0.129
17306WAT      O52159   6.064   6.697   0.154
17306WAT     H152160   6.020   6.620   0.107
17306WAT     H252161   6.096   6.763   0.087
17307WAT      O52162   5.640   6.888   3.898
17307WAT     H152163   5.621   6.791   3.910
17307WAT     H252164   5.739   6.901   3.884
17308WAT      O52165   7.586   4.824   0.732
17308WAT     H152166   7.533   4.741   0.749
17308WAT     H252167   7.528   4.904   0.743
17309WAT      O52168   7.119   1.035   4.841
17309WAT     H152169   7.068   0.993   4.765
17309WAT     H252170   7.056   1.086   4.899
17310WAT      O52171   4.138   6.691   8.607
17310WAT     H152172   4.051   6.662   8.568
17310WAT     H252173   4.206   6.701   8.534
17311WAT      O52174   2.600   0.015   6.858
17311WAT     H152175   2.555  -0.074   6.870
17311WAT     H252176   2.670   0.008   6.788
17312WAT      O52177   0.549   4.319   1.694
17312WAT     H152178   0.506   4.298   1.606
17312WAT     H252179   0.590   4.410   1.690
17313WAT      O52180   7.039   7.803   5.786
17313WAT     H152181   7.056   7.748   5.704
17313WAT     H252182   7.066   7.898   5.769
17314WAT      O52183   0.060   9.823   3.839
17314WAT     H152184   0.091   9.789   3.928
17314WAT     H252185   0.096   9.916   3.824
17315WAT      O52186   9.252   4.264   6.001
17315WAT     H152187   9.267   4.167   5.982
17315WAT     H252188   9.281   4.285   6.094
17316WAT      O52189   6.945   5.114   8.758
17316WAT     H152190   6.923   5.079   8.667
17316WAT     H252191   7.005   5.194   8.749
17317WAT      O52192   5.952   6.556   3.190
17317WAT     H152193   5.972   6.546   3.093
17317WAT     H252194   5.999   6.485   3.242
17318WAT      O52195   0.021   5.258   7.694
17318WAT     H152196   0.097   5.296   7.747
17318WAT     H252197   0.052   5.235   7.602
17319WAT      O52198   0.440   0.354   9.794
17319WAT     H152199   0.527   0.392   9.826
17319WAT     H252200   0.442   0.346   9.694
17320WAT      O52201   3.498   1.694   2.625
17320WAT     H152202   3.573   1.628   2.636
17320WAT     H252203   3.444   1.699   2.709
17321WAT      O52204   5.848   0.965   1.421
17321WAT     H152205   5.942   1.000   1.422
17321WAT     H252206   5.846   0.876   1.376
17322WAT      O52207   9.045   3.120   5.888
17322WAT     H152208   9.039   3.067   5.803
17322WAT     H252209   8.994   3.205   5.878
17323WAT      O52210   4.107   1.265   9.794
17323WAT     H152211   4.086   1.340   9.731
17323WAT     H252212   4.056   1.277   9.879
17324WAT      O52213   9.194   6.896   0.606
17324WAT     H152214   9.281   6.938   0.633
17324WAT     H252215   9.176   6.916   0.510
17325WAT      O52216   1.840   5.967   7.799
17325WAT     H152217   1.925   6.017   7.814
17325WAT     H252218   1.788   5.964   7.885
17326WAT      O52219   6.900   6.908   3.447
17326WAT     H152220   6.879   6.871   3.357
17326WAT     H252221   6.973   6.854   3.489
17327WAT      O52222   1.827   0.973   0.646
17327WAT     H152223   1.914   1.023   0.648
17327WAT     H252224   1.752   1.038   0.634
17328WAT      O52225   6.290   8.022   6.250
17328WAT     H152226   6.196   8.024   6.217
17328WAT     H252227   6.321   7.927   6.258
17329WAT      O52228   7.731   9.350   8.368
17329WAT     H152229   7.744   9.323   8.463
17329WAT     H252230   7.684   9.276   8.319
17330WAT      O52231   2.018   2.534   7.082
17330WAT     H152232   2.011   2.447   7.034
17330WAT     H252233   1.930   2.582   7.079
17331WAT      O52234   1.530   3.585   8.079
17331WAT     H152235   1.516   3.675   8.121
17331WAT     H252236   1.627   3.567   8.069
17332WAT      O52237   3.621   8.092   0.668
17332WAT     H152238   3.674   8.177   0.674
17332WAT     H252239   3.657   8.036   0.593
17333WAT      O52240   1.049   7.511   6.617
17333WAT     H152241   1.083   7.581   6.554
17333WAT     H252242   0.992   7.446   6.567
17334WAT      O52243   4.794   1.343   0.673
17334WAT     H152244   4.764   1.300   0.758
17334WAT     H252245   4.798   1.274   0.601
17335WAT      O52246   2.910   3.549   8.000
17335WAT     H152247   2.973   3.565   8.076
17335WAT     H252248   2.962   3.534   7.916
17336WAT      O52249   6.900   2.766   2.784
17336WAT     H152250   6.949   2.720   2.710
17336WAT     H252251   6.893   2.863   2.765
17337WAT      O52252   3.851   4.097   5.705
17337WAT     H152253   3.861   4.112   5.606
17337WAT     H252254   3.756   4.077   5.726
17338WAT      O52255   3.425   8.374   2.461
17338WAT     H152256   3.513   8.397   2.419
17338WAT     H252257   3.372   8.315   2.399
17339WAT      O52258   7.976   6.229   6.999
17339WAT     H152259   7.879   6.232   7.023
17339WAT     H252260   8.031   6.252   7.080
17340WAT      O52261   0.224   1.737   3.739
17340WAT     H152262   0.132   1.707   3.712
17340WAT     H252263   0.218   1.829   3.779
17341WAT      O52264   7.520   5.516   8.590
17341WAT     H152265   7.545   5.501   8.685
17341WAT     H252266   7.490   5.610   8.577
17342WAT      O52267   0.585   5.329   6.385
17342WAT     H152268   0.590   5.385   6.303
17342WAT     H252269   0.517   5.368   6.448
17343WAT      O52270   5.785   8.107   3.570
17343WAT     H152271   5.855   8.154   3.516
17343WAT     H252272   5.766   8.017   3.531
17344WAT      O52273   4.226   0.235   8.490
17344WAT     H152274   4.181   0.149   8.512
17344WAT     H252275   4.325   0.222   8.489
17345WAT      O52276   3.084   1.667   5.396
17345WAT     H152277   3.113   1.589   5.452
17345WAT     H252278   3.006   1.712   5.439
17346WAT      O52279   2.543   6.831   4.684
17346WAT     H152280   2.624   6.809   4.738
17346WAT     H252281   2.567   6.833   4.587
17347WAT      O52282   4.291   8.495   0.524
17347WAT     H152283   4.233   8.576   0.527
17347WAT     H252284   4.345   8.489   0.608
17348WAT      O52285   2.008   4.735   3.294
17348WAT     H152286   1.952   4.817   3.287
17348WAT     H252287   2.024   4.714   3.391
17349WAT      O52288   3.125   5.443   3.308
17349WAT     H152289   3.155   5.532   3.275
17349WAT     H252290   3.124   5.378   3.232
17350WAT      O52291   4.225   9.145   3.683
17350WAT     H152292   4.233   9.054   3.723
17350WAT     H252293   4.301   9.161   3.620
17351WAT      O52294   3.135   2.526   3.593
17351WAT     H152295   3.195   2.598   3.558
17351WAT     H252296   3.104   2.469   3.517
17352WAT      O52297   7.828   3.673   7.132
17352WAT     H152298   7.901   3.615   7.094
17352WAT     H252299   7.856   3.768   7.127
17353WAT      O52300   5.890   8.649   0.665
17353WAT     H152301   5.882   8.613   0.572
17353WAT     H252302   5.985   8.676   0.683
17354WAT      O52303   9.584   8.763   8.207
17354WAT     H152304   9.552   8.669   8.196
17354WAT     H252305   9.651   8.785   8.136
17355WAT      O52306   4.265   8.301   9.166
17355WAT     H152307   4.222   8.331   9.080
17355WAT     H252308   4.310   8.213   9.152
17356WAT      O52309   6.169   3.420   7.498
17356WAT     H152310   6.144   3.507   7.540
17356WAT     H252311   6.100   3.395   7.430
17357WAT      O52312   8.001   2.480   1.942
17357WAT     H152313   7.997   2.452   1.846
17357WAT     H252314   8.097   2.491   1.969
17358WAT      O52315   9.507   8.048   4.277
17358WAT     H152316   9.581   7.988   4.250
17358WAT     H252317   9.430   7.994   4.311
17359WAT      O52318   0.382   5.691   3.055
17359WAT     H152319   0.366   5.619   2.987
17359WAT     H252320   0.304   5.753   3.057
17360WAT      O52321   1.683   7.376   8.781
17360WAT     H152322   1.589   7.400   8.757
17360WAT     H252323   1.743   7.454   8.762
17361WAT      O52324   6.640   7.974   1.477
17361WAT     H152325   6.650   7.958   1.379
17361WAT     H252326   6.693   7.906   1.528
17362WAT      O52327   5.335   7.255   2.456
17362WAT     H152328   5.346   7.351   2.482
17362WAT     H252329   5.301   7.250   2.362
17363WAT      O52330   8.537   7.085   6.487
17363WAT     H152331   8.473   7.008   6.496
17363WAT     H252332   8.504   7.147   6.416
17364WAT      O52333   7.227   4.325   3.602
17364WAT     H152334   7.295   4.292   3.536
17364WAT     H252335   7.143   4.272   3.592
17365WAT      O52336   4.582   8.743   2.710
17365WAT     H152337   4.645   8.735   2.633
17365WAT     H252338   4.632   8.776   2.790
17366WAT      O52339   9.790   8.384   3.442
17366WAT     H152340   9.728   8.462   3.434
17366WAT     H252341   9.823   8.359   3.351
17367WAT      O52342   8.050   4.079   2.423
17367WAT     H152343   7.952   4.085   2.443
17367WAT     H252344   8.072   3.988   2.389
17368WAT      O52345   2.741   9.158   0.618
17368WAT     H152346   2.837   9.166   0.645
17368WAT     H252347   2.716   9.061   0.613
17369WAT      O52348   2.812   1.856   1.301
17369WAT     H152349   2.796   1.788   1.229
17369WAT     H252350   2.732   1.861   1.361
17370WAT      O52351   1.782   6.681   9.056
17370WAT     H152352   1.694   6.727   9.042
17370WAT     H252353   1.852   6.724   8.998
17371WAT      O52354   4.497   3.373   3.211
17371WAT     H152355   4.527   3.427   3.290
17371WAT     H252356   4.491   3.431   3.131
17372WAT      O52357   3.885   3.538   5.788
17372WAT     H152358   3.896   3.626   5.834
17372WAT     H252359   3.947   3.532   5.710
17373WAT      O52360   3.229   6.375   5.216
17373WAT     H152361   3.300   6.444   5.202
17373WAT     H252362   3.271   6.286   5.228
17374WAT      O52363   9.702   4.916   9.070
17374WAT     H152364   9.619   4.861   9.061
17374WAT     H252365   9.678   5.008   9.100
17375WAT      O52366   2.702   3.869   8.966
17375WAT     H152367   2.726   3.937   9.036
17375WAT     H252368   2.755   3.786   8.981
17376WAT      O52369   7.260   3.301   3.585
17376WAT     H152370   7.245   3.207   3.617
17376WAT     H252371   7.202   3.363   3.638
17377WAT      O52372   2.510   8.975   8.431
17377WAT     H152373   2.461   8.967   8.518
17377WAT     H252374   2.483   8.901   8.370
17378WAT      O52375   3.217   2.351   8.400
17378WAT     H152376   3.316   2.353   8.414
17378WAT     H252377   3.170   2.360   8.488
17379WAT      O52378   7.715   2.558   5.722
17379WAT     H152379   7.783   2.625   5.752
17379WAT     H252380   7.686   2.580   5.629
17380WAT      O52381   8.518   3.341   6.885
17380WAT     H152382   8.478   3.318   6.974
17380WAT     H252383   8.581   3.418   6.896
17381WAT      O52384   8.421   1.489   0.877
17381WAT     H152385   8.355   1.414   0.888
17381WAT     H252386   8.477   1.472   0.797
17382WAT      O52387   7.667   6.530   2.867
17382WAT     H152388   7.645   6.596   2.794
17382WAT     H252389   7.595   6.534   2.937
17383WAT      O52390   5.790   5.159   8.961
17383WAT     H152391   5.755   5.157   9.054
17383WAT     H252392   5.791   5.254   8.928
17384WAT      O52393   6.524   5.951   9.743
17384WAT     H152394   6.504   6.048   9.725
17384WAT     H252395   6.540   5.938   9.841
17385WAT      O52396   7.806   5.449   4.359
17385WAT     H152397   7.779   5.363   4.403
17385WAT     H252398   7.772   5.526   4.412
17386WAT      O52399   9.634   2.716   4.685
17386WAT     H152400   9.699   2.642   4.670
17386WAT     H252401   9.557   2.682   4.739
17387WAT      O52402   0.588   0.008   3.159
17387WAT     H152403   0.554   0.076   3.225
17387WAT     H252404   0.512  -0.028   3.106
17388WAT      O52405   0.189   5.184   4.005
17388WAT     H152406   0.281   5.193   4.043
17388WAT     H252407   0.186   5.222   3.912
17389WAT      O52408   0.796   3.297   8.571
17389WAT     H152409   0.746   3.227   8.519
17389WAT     H252410   0.799   3.270   8.667
17390WAT      O52411   6.338   5.743   7.494
17390WAT     H152412   6.331   5.768   7.397
17390WAT     H252413   6.257   5.692   7.522
17391WAT      O52414   3.065   8.436   7.685
17391WAT     H152415   3.060   8.429   7.784
17391WAT     H252416   3.067   8.533   7.658
17392WAT      O52417   1.603   1.790   3.076
17392WAT     H152418   1.543   1.823   3.149
17392WAT     H252419   1.698   1.809   3.099
17393WAT      O52420   0.755   9.668   0.777
17393WAT     H152421   0.767   9.576   0.739
17393WAT     H252422   0.728   9.731   0.704
17394WAT      O52423   2.465   0.517   5.419
17394WAT     H152424   2.509   0.465   5.491
17394WAT     H252425   2.417   0.454   5.357
17395WAT      O52426   9.784   8.773   6.514
17395WAT     H152427   9.805   8.785   6.611
17395WAT     H252428   9.863   8.802   6.459
17396WAT      O52429   3.827   5.415   0.995
17396WAT     H152430   3.877   5.387   1.077
17396WAT     H252431   3.803   5.512   1.001
17397WAT      O52432   1.370   8.660   0.191
17397WAT     H152433   1.363   8.591   0.119
17397WAT     H252434   1.279   8.694   0.214
17398WAT      O52435   9.385   0.740   3.497
17398WAT     H152436   9.442   0.750   3.416
17398WAT     H252437   9.352   0.646   3.504
17399WAT      O52438   4.802   6.872   9.051
17399WAT     H152439   4.740   6.849   9.127
17399WAT     H252440   4.789   6.968   9.027
17400WAT      O52441   5.093   2.874   8.127
17400WAT     H152442   5.100   2.775   8.130
17400WAT     H252443   5.022   2.904   8.191
17401WAT      O52444   6.229   6.285   4.344
17401WAT     H152445   6.246   6.245   4.254
17401WAT     H252446   6.147   6.244   4.383
17402WAT      O52447   6.159   1.780   8.811
17402WAT     H152448   6.093   1.840   8.766
17402WAT     H252449   6.252   1.813   8.794
17403WAT      O52450   0.980   2.216   2.454
17403WAT     H152451   1.068   2.237   2.497
17403WAT     H252452   0.939   2.300   2.419
17404WAT      O52453   8.725   3.687   8.736
17404WAT     H152454   8.645   3.686   8.676
17404WAT     H252455   8.795   3.748   8.698
17405WAT      O52456   2.386   7.384   7.179
17405WAT     H152457   2.402   7.346   7.087
17405WAT     H252458   2.398   7.483   7.176
17406WAT      O52459   1.663   3.532   1.399
17406WAT     H152460   1.629   3.594   1.470
17406WAT     H252461   1.610   3.544   1.315
17407WAT      O52462   6.032   2.879   7.175
17407WAT     H152463   6.114   2.823   7.162
17407WAT     H252464   6.051   2.973   7.147
17408WAT      O52465   9.734   4.805   0.180
17408WAT     H152466   9.714   4.897   0.147
17408WAT     H252467   9.810   4.809   0.245
17409WAT      O52468   2.310   9.459   3.370
17409WAT     H152469   2.332   9.516   3.450
17409WAT     H252470   2.271   9.373   3.400
17410WAT      O52471   3.822   8.871   8.023
17410WAT     H152472   3.835   8.835   8.116
17410WAT     H252473   3.750   8.940   8.024
17411WAT      O52474   8.711   5.420   8.586
17411WAT     H152475   8.673   5.473   8.510
17411WAT     H252476   8.669   5.329   8.588
17412WAT      O52477   1.289   1.311   0.237
17412WAT     H152478   1.367   1.278   0.185
17412WAT     H252479   1.321   1.362   0.317
17413WAT      O52480   5.383   4.369   6.751
17413WAT     H152481   5.452   4.423   6.799
17413WAT     H252482   5.297   4.419   6.750
17414WAT      O52483   6.108   2.289   9.889
17414WAT     H152484   6.147   2.330   9.806
17414WAT     H252485   6.052   2.358   9.936
17415WAT      O52486   8.584   1.764   1.450
17415WAT     H152487   8.564   1.744   1.546
17415WAT     H252488   8.646   1.842   1.445
17416WAT      O52489   6.860   7.735   6.634
17416WAT     H152490   6.853   7.647   6.587
17416WAT     H252491   6.934   7.788   6.593
17417WAT      O52492   4.466   4.042   1.342
17417WAT     H152493   4.492   4.124   1.393
17417WAT     H252494   4.434   3.972   1.406
17418WAT      O52495   1.297   1.973   2.640
17418WAT     H152496   1.255   2.062   2.619
17418WAT     H252497   1.396   1.985   2.650
17419WAT      O52498   8.006   4.571   5.311
17419WAT     H152499   8.009   4.513   5.393
17419WAT     H252500   7.997   4.513   5.230
17420WAT      O52501   2.894   7.318   5.346
17420WAT     H152502   2.881   7.411   5.380
17420WAT     H252503   2.988   7.308   5.313
17421WAT      O52504   1.593   8.510   1.175
17421WAT     H152505   1.673   8.541   1.226
17421WAT     H252506   1.546   8.589   1.137
17422WAT      O52507   4.654   7.754   9.556
17422WAT     H152508   4.673   7.772   9.459
17422WAT     H252509   4.599   7.828   9.593
17423WAT      O52510   7.916   3.010   0.080
17423WAT     H152511   7.827   3.020   0.035
17423WAT     H252512   7.987   2.999   0.010
17424WAT      O52513   7.651   5.013   5.210
17424WAT     H152514   7.710   4.934   5.196
17424WAT     H252515   7.616   5.014   5.303
17425WAT      O52516   4.160   0.312   1.323
17425WAT     H152517   4.157   0.345   1.417
17425WAT     H252518   4.066   0.299   1.289
17426WAT      O52519   3.430   4.777   3.447
17426WAT     H152520   3.373   4.760   3.527
17426WAT     H252521   3.492   4.853   3.465
17427WAT      O52522   6.209   5.212   9.630
17427WAT     H152523   6.226   5.231   9.534
17427WAT     H252524   6.229   5.116   9.650
17428WAT      O52525   0.548   8.117   9.531
17428WAT     H152526   0.607   8.147   9.607
17428WAT     H252527   0.604   8.074   9.461
17429WAT      O52528   8.631   4.508   9.610
17429WAT     H152529   8.547   4.550   9.575
17429WAT     H252530   8.710   4.562   9.582
17430WAT      O52531   3.270   8.490   9.562
17430WAT     H152532   3.275   8.514   9.465
17430WAT     H252533   3.187   8.529   9.602
17431WAT      O52534   1.344   8.323   8.688
17431WAT     H152535   1.406   8.371   8.751
17431WAT     H252536   1.375   8.335   8.594
17432WAT      O52537   3.626   4.019   9.495
17432WAT     H152538   3.586   4.042   9.584
17432WAT     H252539   3.713   3.972   9.509
17433WAT      O52540   4.685   1.270   1.638
17433WAT     H152541   4.752   1.345   1.636
17433WAT     H252542   4.647   1.257   1.547
17434WAT      O52543   0.230   0.594   5.839
17434WAT     H152544   0.137   0.619   5.867
17434WAT     H252545   0.228   0.563   5.744
17435WAT      O52546   6.745   8.830   5.957
17435WAT     H152547   6.757   8.929   5.965
17435WAT     H252548   6.827   8.784   5.990
17436WAT      O52549   3.002   3.914   1.533
17436WAT     H152550   2.910   3.946   1.512
17436WAT     H252551   3.046   3.881   1.450
17437WAT      O52552   1.962   6.414   5.315
17437WAT     H152553   2.051   6.399   5.357
17437WAT     H252554   1.973   6.426   5.216
17438WAT      O52555   6.154   8.080   5.214
17438WAT     H152556   6.126   8.070   5.119
17438WAT     H252557   6.074   8.097   5.271
17439WAT      O52558   5.222   7.777   1.276
17439WAT     H152559   5.280   7.779   1.195
17439WAT     H252560   5.227   7.865   1.323
17440WAT      O52561   6.153   6.944   1.144
17440WAT     H152562   6.184   6.989   1.227
17440WAT     H252563   6.149   7.011   1.069
17441WAT      O52564   3.802   4.336   1.689
17441WAT     H152565   3.768   4.406   1.626
17441WAT     H252566   3.802   4.247   1.643
17442WAT      O52567   1.333   0.297   0.530
17442WAT     H152568   1.394   0.285   0.451
17442WAT     H252569   1.303   0.208   0.563
17443WAT      O52570   7.710   3.769   3.400
17443WAT     H152571   7.646   3.725   3.463
17443WAT     H252572   7.677   3.760   3.306
17444WAT      O52573   2.412   5.815   6.043
17444WAT     H152574   2.432   5.747   6.113
17444WAT     H252575   2.402   5.905   6.087
17445WAT      O52576   1.132   3.362   4.014
17445WAT     H152577   1.201   3.433   3.999
17445WAT     H252578   1.156   3.280   3.961
17446WAT      O52579   9.751   4.560   0.753
17446WAT     H152580   9.830   4.579   0.694
17446WAT     H252581   9.782   4.530   0.843
17447WAT      O52582   3.578   3.979   2.779
17447WAT     H152583   3.634   4.002   2.858
17447WAT     H252584   3.606   4.035   2.701
17448WAT      O52585   9.831   3.805   5.598
17448WAT     H152586   9.750   3.802   5.538
17448WAT     H252587   9.896   3.873   5.563
17449WAT      O52588   4.731   3.793   5.071
17449WAT     H152589   4.786   3.871   5.100
17449WAT     H252590   4.651   3.784   5.129
17450WAT      O52591   6.643   2.792   2.923
17450WAT     H152592   6.716   2.745   2.873
17450WAT     H252593   6.561   2.734   2.924
17451WAT      O52594   8.085   3.827   8.533
17451WAT     H152595   8.171   3.869   8.505
17451WAT     H252596   8.048   3.774   8.457
17452WAT      O52597   5.510   1.848   2.616
17452WAT     H152598   5.574   1.923   2.631
17452WAT     H252599   5.528   1.775   2.683
17453WAT      O52600   6.179   1.718   4.401
17453WAT     H152601   6.174   1.669   4.488
17453WAT     H252602   6.089   1.723   4.359
17454WAT      O52603   8.270   9.683   0.529
17454WAT     H152604   8.356   9.728   0.506
17454WAT     H252605   8.205   9.696   0.454
17455WAT      O52606   8.909   4.150   2.275
17455WAT     H152607   8.817   4.188   2.275
17455WAT     H252608   8.955   4.174   2.360
17456WAT      O52609   4.540   5.532   6.005
17456WAT     H152610   4.457   5.476   6.006
17456WAT     H252611   4.620   5.472   6.001
17457WAT      O52612   2.434   9.313   0.986
17457WAT     H152613   2.352   9.272   0.946
17457WAT     H252614   2.475   9.250   1.051
17458WAT      O52615   9.619   4.113   6.176
17458WAT     H152616   9.616   4.030   6.121
17458WAT     H252617   9.661   4.094   6.264
17459WAT      O52618   9.534   4.454   5.590
17459WAT     H152619   9.472   4.479   5.516
17459WAT     H252620   9.484   4.404   5.661
17460WAT      O52621   7.407   9.399   0.502
17460WAT     H152622   7.464   9.382   0.582
17460WAT     H252623   7.326   9.452   0.529
17461WAT      O52624   5.468   9.198   0.142
17461WAT     H152625   5.377   9.237   0.128
17461WAT     H252626   5.535   9.246   0.085
17462WAT      O52627   2.972   6.731   1.715
17462WAT     H152628   3.011   6.797   1.779
17462WAT     H252629   3.015   6.642   1.729
17463WAT      O52630   4.220   8.151   7.554
17463WAT     H152631   4.222   8.085   7.479
17463WAT     H252632   4.284   8.226   7.534
17464WAT      O52633   8.179   3.492   3.163
17464WAT     H152634   8.139   3.403   3.182
17464WAT     H252635   8.132   3.534   3.085
17465WAT      O52636   8.538   9.824   4.554
17465WAT     H152637   8.488   9.885   4.493
17465WAT     H252638   8.474   9.782   4.619
17466WAT      O52639   0.306   8.354   5.303
17466WAT     H152640   0.363   8.336   5.223
17466WAT     H252641   0.221   8.301   5.297
17467WAT      O52642   1.073   8.351   3.563
17467WAT     H152643   1.005   8.400   3.508
17467WAT     H252644   1.164   8.366   3.526
17468WAT      O52645   8.605   1.192   6.367
17468WAT     H152646   8.579   1.171   6.273
17468WAT     H252647   8.702   1.217   6.370
17469WAT      O52648   1.264   6.335   5.655
17469WAT     H152649   1.184   6.288   5.619
17469WAT     H252650   1.299   6.398   5.586
17470WAT      O52651   2.741   2.015   7.049
17470WAT     H152652   2.756   2.019   6.950
17470WAT     H252653   2.810   1.957   7.091
17471WAT      O52654   6.268   8.721   7.096
17471WAT     H152655   6.327   8.706   7.175
17471WAT     H252656   6.287   8.811   7.056
17472WAT      O52657   6.012   2.133   0.615
17472WAT     H152658   5.971   2.175   0.696
17472WAT     H252659   6.023   2.201   0.543
17473WAT      O52660   7.655   5.759   7.169
17473WAT     H152661   7.746   5.788   7.201
17473WAT     H252662   7.597   5.741   7.248
17474WAT      O52663   2.963   6.475   3.599
17474WAT     H152664   2.926   6.411   3.532
17474WAT     H252665   2.976   6.564   3.556
17475WAT      O52666   6.551   4.517   7.841
17475WAT     H152667   6.516   4.445   7.901
17475WAT     H252668   6.649   4.527   7.854
17476WAT      O52669   4.148   8.988   9.053
17476WAT     H152670   4.098   8.937   9.122
17476WAT     H252671   4.124   9.085   9.060
17477WAT      O52672   1.446   4.446   5.640
17477WAT     H152673   1.491   4.373   5.692
17477WAT     H252674   1.347   4.428   5.637
17478WAT      O52675   4.357   1.886   8.490
17478WAT     H152676   4.283   1.847   8.544
17478WAT     H252677   4.394   1.966   8.537
17479WAT      O52678   2.406   3.181   9.304
17479WAT     H152679   2.317   3.210   9.340
17479WAT     H252680   2.406   3.082   9.290
17480WAT      O52681   6.501   2.244   4.845
17480WAT     H152682   6.479   2.330   4.800
17480WAT     H252683   6.565   2.192   4.787
17481WAT      O52684   9.070   7.890   3.813
17481WAT     H152685   9.096   7.795   3.799
17481WAT     H252686   8.970   7.897   3.818
17482WAT      O52687   8.834   0.737   1.037
17482WAT     H152688   8.867   0.642   1.045
17482WAT     H252689   8.810   0.771   1.127
17483WAT      O52690   4.391   7.081   9.036
17483WAT     H152691   4.366   7.112   8.944
17483WAT     H252692   4.489   7.098   9.051
17484WAT      O52693   3.050   2.014   6.406
17484WAT     H152694   3.093   1.947   6.344
17484WAT     H252695   3.015   1.966   6.486
17485WAT      O52696   0.705   3.073   9.614
17485WAT     H152697   0.761   3.116   9.543
17485WAT     H252698   0.650   3.000   9.573
17486WAT      O52699   5.397   0.694   9.745
17486WAT     H152700   5.311   0.645   9.731
17486WAT     H252701   5.398   0.735   9.837
17487WAT      O52702   1.895   3.140   7.625
17487WAT     H152703   1.918   3.123   7.529
17487WAT     H252704   1.814   3.088   7.650
17488WAT      O52705   4.110   5.971   5.498
17488WAT     H152706   4.013   5.954   5.510
17488WAT     H252707   4.126   6.068   5.480
17489WAT      O52708   5.604   5.811   2.473
17489WAT     H152709   5.590   5.812   2.572
17489WAT     H252710   5.682   5.868   2.449
17490WAT      O52711   5.079   6.179   6.163
17490WAT     H152712   5.073   6.244   6.239
17490WAT     H252713   5.157   6.203   6.105
17491WAT      O52714   9.230   9.248   3.362
17491WAT     H152715   9.185   9.333   3.389
17491WAT     H252716   9.167   9.193   3.307
17492WAT      O52717   6.165   3.529   8.674
17492WAT     H152718   6.220   3.612   8.663
17492WAT     H252719   6.078   3.553   8.718
17493WAT      O52720   4.036   9.834   7.461
17493WAT     H152721   3.968   9.768   7.495
17493WAT     H252722   4.045   9.909   7.527
17494WAT      O52723   6.653   9.448   2.458
17494WAT     H152724   6.575   9.507   2.480
17494WAT     H252725   6.683   9.399   2.540
17495WAT      O52726   9.875   7.169   4.219
17495WAT     H152727   9.861   7.078   4.258
17495WAT     H252728   9.948   7.165   4.151
17496WAT      O52729   0.541   7.597   4.090
17496WAT     H152730   0.485   7.680   4.088
17496WAT     H252731   0.616   7.610   4.154
17497WAT      O52732   1.762   3.202   9.140
17497WAT     H152733   1.861   3.216   9.143
17497WAT     H252734   1.717   3.290   9.129
17498WAT      O52735   2.421   9.305   0.196
17498WAT     H152736   2.502   9.331   0.144
17498WAT     H252737   2.441   9.311   0.294
17499WAT      O52738   7.121   5.610   7.769
17499WAT     H152739   7.202   5.609   7.711
17499WAT     H252740   7.098   5.517   7.795
17500WAT      O52741   0.433   6.906   5.090
17500WAT     H152742   0.354   6.966   5.080
17500WAT     H252743   0.435   6.841   5.013
17501WAT      O52744   4.176   9.316   7.310
17501WAT     H152745   4.128   9.384   7.365
17501WAT     H252746   4.124   9.297   7.227
17502WAT      O52747   7.070   8.406   4.394
17502WAT     H152748   6.982   8.357   4.395
17502WAT     H252749   7.059   8.494   4.441
17503WAT      O52750   0.814   1.163   3.284
17503WAT     H152751   0.824   1.082   3.341
17503WAT     H252752   0.735   1.216   3.315
17504WAT      O52753   9.309   1.728   6.508
17504WAT     H152754   9.382   1.777   6.556
17504WAT     H252755   9.222   1.744   6.554
17505WAT      O52756   6.678   0.151   0.847
17505WAT     H152757   6.714   0.242   0.828
17505WAT     H252758   6.703   0.089   0.773
17506WAT      O52759   1.482   6.868   8.094
17506WAT     H152760   1.392   6.840   8.129
17506WAT     H252761   1.551   6.852   8.164
17507WAT      O52762   9.212   0.620   7.662
17507WAT     H152763   9.206   0.717   7.686
17507WAT     H252764   9.215   0.610   7.563
17508WAT      O52765   0.873   0.717   9.159
17508WAT     H152766   0.922   0.776   9.223
17508WAT     H252767   0.776   0.740   9.161
17509WAT      O52768   7.945   8.804   1.094
17509WAT     H152769   7.958   8.710   1.125
17509WAT     H252770   7.945   8.866   1.173
17510WAT      O52771   8.078   8.074   2.576
17510WAT     H152772   8.099   8.110   2.485
17510WAT     H252773   8.060   7.976   2.570
17511WAT      O52774   3.230   6.415   8.481
17511WAT     H152775   3.265   6.505   8.506
17511WAT     H252776   3.205   6.364   8.564
17512WAT      O52777   0.964   5.970   8.502
17512WAT     H152778   0.934   5.907   8.430
17512WAT     H252779   0.896   6.042   8.513
17513WAT      O52780   0.083   5.177   2.900
17513WAT     H152781   0.107   5.088   2.861
17513WAT     H252782   0.017   5.223   2.841
17514WAT      O52783   1.530   6.805   0.023
17514WAT     H152784   1.558   6.868   0.096
17514WAT     H252785   1.432   6.813   0.009
17515WAT      O52786   0.022   8.560   1.314
17515WAT     H152787  -0.009   8.559   1.219
17515WAT     H252788   0.099   8.498   1.326
17516WAT      O52789   4.229   0.111   3.067
17516WAT     H152790   4.322   0.074   3.071
17516WAT     H252791   4.168   0.055   3.122
17517WAT      O52792   9.217   7.888   1.284
17517WAT     H152793   9.257   7.889   1.376
17517WAT     H252794   9.118   7.905   1.290
17518WAT      O52795   9.672   7.542   0.202
17518WAT     H152796   9.711   7.583   0.119
17518WAT     H252797   9.573   7.530   0.190
17519WAT      O52798   3.335   0.422   2.658
17519WAT     H152799   3.277   0.423   2.740
17519WAT     H252800   3.336   0.513   2.617
17520WAT      O52801   8.723   9.297   2.006
17520WAT     H152802   8.773   9.259   2.083
17520WAT     H252803   8.775   9.372   1.965
17521WAT      O52804   7.976   6.765   6.489
17521WAT     H152805   8.063   6.720   6.468
17521WAT     H252806   7.905   6.732   6.427
17522WAT      O52807   6.592   6.500   1.575
17522WAT     H152808   6.590   6.514   1.476
17522WAT     H252809   6.509   6.539   1.616
17523WAT      O52810   7.191   7.760   8.021
17523WAT     H152811   7.165   7.796   8.110
17523WAT     H252812   7.241   7.674   8.034
17524WAT      O52813   0.888   9.097   6.004
17524WAT     H152814   0.877   9.159   5.927
17524WAT     H252815   0.889   9.149   6.089
17525WAT      O52816   4.164   6.727   2.433
17525WAT     H152817   4.132   6.709   2.340
17525WAT     H252818   4.259   6.760   2.430
17526WAT      O52819   0.733   1.698   3.023
17526WAT     H152820   0.816   1.713   3.076
17526WAT     H252821   0.740   1.746   2.936
17527WAT      O52822   6.281   9.098   5.330
17527WAT     H152823   6.272   9.028   5.259
17527WAT     H252824   6.370   9.144   5.320
17528WAT      O52825   8.964   0.576   9.548
17528WAT     H152826   8.969   0.675   9.563
17528WAT     H252827   9.052   0.543   9.513
17529WAT      O52828   7.538   1.076   2.921
17529WAT     H152829   7.477   1.015   2.970
17529WAT     H252830   7.632   1.061   2.951
17530WAT      O52831   5.944   4.807   6.571
17530WAT     H152832   6.023   4.836   6.515
17530WAT     H252833   5.890   4.887   6.596
17531WAT      O52834   9.465   2.753   9.180
17531WAT     H152835   9.502   2.737   9.271
17531WAT     H252836   9.508   2.834   9.140
17532WAT      O52837   8.908   6.699   1.241
17532WAT     H152838   9.007   6.690   1.235
17532WAT     H252839   8.865   6.621   1.196
17533WAT      O52840   4.353   5.268   0.810
17533WAT     H152841   4.286   5.275   0.885
17533WAT     H252842   4.445   5.268   0.848
17534WAT      O52843   8.086   2.731   9.284
17534WAT     H152844   8.054   2.785   9.206
17534WAT     H252845   8.157   2.781   9.332
17535WAT      O52846   4.140   4.531   1.349
17535WAT     H152847   4.211   4.532   1.279
17535WAT     H252848   4.052   4.557   1.309
17536WAT      O52849   1.541   1.009   5.870
17536WAT     H152850   1.558   0.912   5.858
17536WAT     H252851   1.472   1.039   5.803
17537WAT      O52852   0.526   1.102   9.711
17537WAT     H152853   0.517   1.201   9.722
17537WAT     H252854   0.458   1.056   9.768
17538WAT      O52855   6.585   5.178   6.780
17538WAT     H152856   6.623   5.167   6.872
17538WAT     H252857   6.522   5.102   6.761
17539WAT      O52858   8.060   9.189   2.352
17539WAT     H152859   8.087   9.219   2.444
17539WAT     H252860   7.961   9.180   2.348
17540WAT      O52861   9.465   4.453   3.434
17540WAT     H152862   9.496   4.358   3.425
17540WAT     H252863   9.453   4.475   3.530
17541WAT      O52864   7.452   0.787   8.110
17541WAT     H152865   7.481   0.726   8.184
17541WAT     H252866   7.353   0.790   8.106
17542WAT      O52867   8.413   5.290   2.569
17542WAT     H152868   8.420   5.211   2.508
17542WAT     H252869   8.455   5.369   2.526
17543WAT      O52870   9.871   7.668   4.326
17543WAT     H152871   9.915   7.737   4.267
17543WAT     H252872   9.875   7.579   4.281
17544WAT      O52873   0.332   1.778   1.083
17544WAT     H152874   0.354   1.751   1.177
17544WAT     H252875   0.324   1.878   1.078
17545WAT      O52876   6.173   2.859   2.731
17545WAT     H152877   6.223   2.938   2.695
17545WAT     H252878   6.083   2.854   2.688
17546WAT      O52879   6.749   1.387   3.526
17546WAT     H152880   6.673   1.448   3.550
17546WAT     H252881   6.735   1.297   3.568
17547WAT      O52882   3.232   0.882   3.551
17547WAT     H152883   3.316   0.902   3.500
17547WAT     H252884   3.162   0.949   3.529
17548WAT      O52885   1.743   5.763   7.626
17548WAT     H152886   1.779   5.827   7.694
17548WAT     H252887   1.742   5.806   7.536
17549WAT      O52888   0.147   4.704   8.175
17549WAT     H152889   0.057   4.680   8.212
17549WAT     H252890   0.205   4.623   8.175
17550WAT      O52891   4.176   3.029   4.025
17550WAT     H152892   4.213   3.080   4.102
17550WAT     H252893   4.226   3.052   3.942
17551WAT      O52894   4.851   0.714   1.069
17551WAT     H152895   4.902   0.796   1.097
17551WAT     H252896   4.827   0.661   1.151
17552WAT      O52897   7.453   1.900   3.134
17552WAT     H152898   7.450   1.800   3.136
17552WAT     H252899   7.362   1.935   3.113
17553WAT      O52900   3.212   4.878   9.475
17553WAT     H152901   3.161   4.939   9.416
17553WAT     H252902   3.153   4.845   9.549
17554WAT      O52903   8.643   9.137   6.429
17554WAT     H152904   8.729   9.102   6.392
17554WAT     H252905   8.588   9.060   6.461
17555WAT      O52906   7.168   7.698   7.746
17555WAT     H152907   7.175   7.727   7.842
17555WAT     H252908   7.072   7.697   7.719
17556WAT      O52909   4.536   6.582   0.164
17556WAT     H152910   4.438   6.590   0.148
17556WAT     H252911   4.552   6.536   0.251
17557WAT      O52912   1.066   7.957   9.756
17557WAT     H152913   1.003   7.907   9.815
17557WAT     H252914   1.151   7.906   9.746
17558WAT      O52915   1.434   9.789   5.233
17558WAT     H152916   1.410   9.760   5.326
17558WAT     H252917   1.381   9.736   5.167
17559WAT      O52918   9.709   5.339   4.581
17559WAT     H152919   9.802   5.356   4.548
17559WAT     H252920   9.690   5.241   4.576
17560WAT      O52921   0.489   4.496   7.866
17560WAT     H152922   0.552   4.484   7.789
17560WAT     H252923   0.420   4.424   7.864
17561WAT      O52924   7.869   2.383   6.055
17561WAT     H152925   7.897   2.290   6.076
17561WAT     H252926   7.889   2.443   6.132
17562WAT      O52927   6.855   5.330   9.119
17562WAT     H152928   6.893   5.240   9.138
17562WAT     H252929   6.870   5.353   9.023
17563WAT      O52930   6.325   6.535   4.050
17563WAT     H152931   6.356   6.534   4.146
17563WAT     H252932   6.381   6.471   3.997
17564WAT      O52933   6.722   8.596   1.267
17564WAT     H152934   6.788   8.626   1.198
17564WAT     H252935   6.630   8.602   1.229
17565WAT      O52936   3.377   5.265   0.825
17565WAT     H152937   3.459   5.261   0.882
17565WAT     H252938   3.312   5.330   0.864
17566WAT      O52939   3.570   9.339   9.063
17566WAT     H152940   3.652   9.302   9.018
17566WAT     H252941   3.507   9.264   9.084
17567WAT      O52942   5.133   9.334   4.932
17567WAT     H152943   5.112   9.432   4.921
17567WAT     H252944   5.047   9.283   4.938
17568WAT      O52945   1.781   2.133   8.457
17568WAT     H152946   1.762   2.118   8.360
17568WAT     H252947   1.710   2.088   8.512
17569WAT      O52948   8.969   6.901   4.900
17569WAT     H152949   9.061   6.905   4.862
17569WAT     H252950   8.973   6.858   4.991
17570WAT      O52951   4.515   2.680   6.815
17570WAT     H152952   4.492   2.770   6.851
17570WAT     H252953   4.534   2.618   6.890
17571WAT      O52954   1.908   4.133   0.608
17571WAT     H152955   1.867   4.141   0.517
17571WAT     H252956   1.936   4.223   0.640
17572WAT      O52957   8.045   4.828   3.230
17572WAT     H152958   8.094   4.915   3.236
17572WAT     H252959   8.108   4.756   3.202
17573WAT      O52960   3.537   2.555   1.773
17573WAT     H152961   3.551   2.471   1.825
17573WAT     H252962   3.439   2.571   1.761
17574WAT      O52963   0.648   3.772   5.610
17574WAT     H152964   0.620   3.687   5.656
17574WAT     H252965   0.649   3.758   5.511
17575WAT      O52966   3.294   8.655   2.276
17575WAT     H152967   3.286   8.572   2.222
17575WAT     H252968   3.373   8.648   2.337
17576WAT      O52969   0.718   3.888   7.308
17576WAT     H152970   0.623   3.891   7.341
17576WAT     H252971   0.780   3.905   7.385
17577WAT      O52972   1.669   4.724   1.211
17577WAT     H152973   1.723   4.695   1.289
17577WAT     H252974   1.719   4.794   1.160
17578WAT      O52975   3.925   0.035   2.588
17578WAT     H152976   3.877   0.044   2.675
17578WAT     H252977   3.891  -0.045   2.539
17579WAT      O52978   9.093   8.778   8.524
17579WAT     H152979   9.140   8.731   8.599
17579WAT     H252980   8.997   8.750   8.523
17580WAT      O52981   4.563   0.836   2.373
17580WAT     H152982   4.512   0.793   2.447
17580WAT     H252983   4.542   0.790   2.287
17581WAT      O52984   6.411   7.493   6.476
17581WAT     H152985   6.433   7.527   6.568
17581WAT     H252986   6.312   7.478   6.470
17582WAT      O52987   7.230   8.715   9.606
17582WAT     H152988   7.211   8.812   9.619
17582WAT     H252989   7.289   8.682   9.680
17583WAT      O52990   8.901   3.847   8.620
17583WAT     H152991   8.942   3.779   8.560
17583WAT     H252992   8.973   3.898   8.667
17584WAT      O52993   4.504   6.623   0.950
17584WAT     H152994   4.544   6.668   0.871
17584WAT     H252995   4.408   6.602   0.932
17585WAT      O52996   7.819   6.508   3.100
17585WAT     H152997   7.771   6.506   3.012
17585WAT     H252998   7.791   6.430   3.155
17586WAT      O52999   7.307   3.265   1.582
17586WAT     H153000   7.264   3.352   1.557
17586WAT     H253001   7.241   3.207   1.629
17587WAT      O53002   8.256   6.129   3.165
17587WAT     H153003   8.304   6.213   3.138
17587WAT     H253004   8.289   6.052   3.111
17588WAT      O53005   8.750   2.238   6.531
17588WAT     H153006   8.781   2.143   6.526
17588WAT     H253007   8.692   2.259   6.452
17589WAT      O53008   5.070   6.772   3.609
17589WAT     H153009   5.168   6.754   3.624
17589WAT     H253010   5.057   6.869   3.588
17590WAT      O53011   1.362   1.517   7.771
17590WAT     H153012   1.376   1.472   7.683
17590WAT     H253013   1.294   1.590   7.761
17591WAT      O53014   2.836   7.098   1.883
17591WAT     H153015   2.888   7.110   1.968
17591WAT     H253016   2.740   7.121   1.899
17592WAT      O53017   8.704   8.601   4.623
17592WAT     H153018   8.628   8.536   4.621
17592WAT     H253019   8.684   8.678   4.561
17593WAT      O53020   8.340   3.394   5.851
17593WAT     H153021   8.367   3.421   5.759
17593WAT     H253022   8.389   3.310   5.877
17594WAT      O53023   5.576   6.604   2.523
17594WAT     H153024   5.564   6.526   2.461
17594WAT     H253025   5.543   6.580   2.614
17595WAT      O53026   4.510   0.948   8.455
17595WAT     H153027   4.589   0.970   8.513
17595WAT     H253028   4.450   1.028   8.449
17596WAT      O53029   5.034   1.746   9.540
17596WAT     H153030   5.073   1.671   9.486
17596WAT     H253031   4.934   1.744   9.531
17597WAT      O53032   6.777   9.474   5.616
17597WAT     H153033   6.828   9.403   5.665
17597WAT     H253034   6.825   9.561   5.625
17598WAT      O53035   3.272   5.511   4.489
17598WAT     H153036   3.262   5.412   4.485
17598WAT     H253037   3.349   5.535   4.548
17599WAT      O53038   0.459   5.608   1.164
17599WAT     H153039   0.535   5.664   1.131
17599WAT     H253040   0.479   5.511   1.149
17600WAT      O53041   2.127   3.113   0.080
17600WAT     H153042   2.098   3.208   0.087
17600WAT     H253043   2.087   3.060   0.155
17601WAT      O53044   0.230   5.440   7.359
17601WAT     H153045   0.289   5.359   7.364
17601WAT     H253046   0.230   5.475   7.265
17602WAT      O53047   8.779   2.134   9.494
17602WAT     H153048   8.743   2.211   9.546
17602WAT     H253049   8.858   2.163   9.441
17603WAT      O53050   9.268   7.445   9.459
17603WAT     H153051   9.231   7.448   9.366
17603WAT     H253052   9.331   7.522   9.472
17604WAT      O53053   0.164   4.926   9.473
17604WAT     H153054   0.117   4.838   9.474
17604WAT     H253055   0.164   4.965   9.565
17605WAT      O53056   3.788   9.341   8.003
17605WAT     H153057   3.842   9.413   8.046
17605WAT     H253058   3.726   9.381   7.936
17606WAT      O53059   5.186   2.291   8.586
17606WAT     H153060   5.277   2.251   8.596
17606WAT     H253061   5.117   2.219   8.590
17607WAT      O53062   8.580   4.255   5.473
17607WAT     H153063   8.611   4.163   5.493
17607WAT     H253064   8.526   4.290   5.550
17608WAT      O53065   3.487   0.476   4.022
17608WAT     H153066   3.413   0.468   4.090
17608WAT     H253067   3.498   0.572   3.996
17609WAT      O53068   3.797   6.536   2.758
17609WAT     H153069   3.708   6.561   2.720
17609WAT     H253070   3.866   6.536   2.685
17610WAT      O53071   3.705   7.970   0.429
17610WAT     H153072   3.768   7.965   0.352
17610WAT     H253073   3.622   7.918   0.408
17611WAT      O53074   1.450   6.756   6.398
17611WAT     H153075   1.531   6.709   6.431
17611WAT     H253076   1.416   6.818   6.469
17612WAT      O53077   1.588   8.575   2.557
17612WAT     H153078   1.572   8.483   2.521
17612WAT     H253079   1.500   8.621   2.569
17613WAT      O53080   7.568   8.863   0.491
17613WAT     H153081   7.601   8.774   0.460
17613WAT     H253082   7.635   8.933   0.467
17614WAT      O53083   3.982   6.512   2.552
17614WAT     H153084   4.039   6.477   2.626
17614WAT     H253085   4.040   6.541   2.476
17615WAT      O53086   0.283   5.976   7.177
17615WAT     H153087   0.191   5.941   7.193
17615WAT     H253088   0.318   5.940   7.090
17616WAT      O53089   6.315   5.449   1.741
17616WAT     H153090   6.279   5.534   1.704
17616WAT     H253091   6.242   5.382   1.750
17617WAT      O53092   6.416   6.468   6.754
17617WAT     H153093   6.450   6.378   6.783
17617WAT     H253094   6.482   6.510   6.692
17618WAT      O53095   9.218   1.367   7.607
17618WAT     H153096   9.311   1.363   7.571
17618WAT     H253097   9.192   1.462   7.622
17619WAT      O53098   4.854   8.529   0.280
17619WAT     H153099   4.817   8.474   0.356
17619WAT     H253100   4.840   8.480   0.194
17620WAT      O53101   5.566   9.693   0.347
17620WAT     H153102   5.533   9.600   0.326
17620WAT     H253103   5.494   9.759   0.327
17621WAT      O53104   1.620   4.769   3.851
17621WAT     H153105   1.621   4.843   3.783
17621WAT     H253106   1.562   4.695   3.819
17622WAT      O53107   8.073   5.806   5.733
17622WAT     H153108   8.080   5.905   5.747
17622WAT     H253109   8.078   5.759   5.821
17623WAT      O53110   8.982   6.964   6.727
17623WAT     H153111   9.065   6.918   6.698
17623WAT     H253112   8.975   7.053   6.681
17624WAT      O53113   5.831   7.254   8.375
17624WAT     H153114   5.897   7.329   8.380
17624WAT     H253115   5.880   7.167   8.369
17625WAT      O53116   0.933   3.670   7.489
17625WAT     H153117   1.014   3.622   7.522
17625WAT     H253118   0.893   3.620   7.412
17626WAT      O53119   1.478   8.158   9.390
17626WAT     H153120   1.382   8.155   9.364
17626WAT     H253121   1.529   8.092   9.335
17627WAT      O53122   0.311   5.498   5.237
17627WAT     H153123   0.303   5.593   5.208
17627WAT     H253124   0.283   5.488   5.332
17628WAT      O53125   2.573   8.411   3.175
17628WAT     H153126   2.651   8.465   3.204
17628WAT     H253127   2.508   8.470   3.127
17629WAT      O53128   0.461   8.219   3.729
17629WAT     H153129   0.410   8.281   3.669
17629WAT     H253130   0.551   8.202   3.691
17630WAT      O53131   1.844   3.323   5.076
17630WAT     H153132   1.891   3.234   5.077
17630WAT     H253133   1.748   3.310   5.099
17631WAT      O53134   0.187   7.342   2.394
17631WAT     H153135   0.130   7.324   2.314
17631WAT     H253136   0.192   7.441   2.410
17632WAT      O53137   6.237   3.388   6.583
17632WAT     H153138   6.196   3.479   6.581
17632WAT     H253139   6.165   3.319   6.588
17633WAT      O53140   5.085   6.234   7.016
17633WAT     H153141   5.181   6.248   7.042
17633WAT     H253142   5.044   6.322   6.993
17634WAT      O53143   4.746   2.567   4.961
17634WAT     H153144   4.801   2.484   4.968
17634WAT     H253145   4.707   2.589   5.050
17635WAT      O53146   9.350   5.594   3.193
17635WAT     H153147   9.258   5.628   3.177
17635WAT     H253148   9.416   5.654   3.149
17636WAT      O53149   4.364   9.056   7.130
17636WAT     H153150   4.312   9.121   7.075
17636WAT     H253151   4.460   9.084   7.132
17637WAT      O53152   0.478   3.628   2.381
17637WAT     H153153   0.393   3.677   2.397
17637WAT     H253154   0.503   3.577   2.463
17638WAT      O53155   0.710   1.581   0.729
17638WAT     H153156   0.687   1.484   0.739
17638WAT     H253157   0.640   1.636   0.775
17639WAT      O53158   6.694   1.524   7.604
17639WAT     H153159   6.747   1.563   7.528
17639WAT     H253160   6.600   1.559   7.600
17640WAT      O53161   9.010   3.856   6.818
17640WAT     H153162   8.958   3.792   6.875
17640WAT     H253163   8.973   3.948   6.829
17641WAT      O53164   5.312   9.099   6.373
17641WAT     H153165   5.345   9.009   6.404
17641WAT     H253166   5.384   9.146   6.323
17642WAT      O53167   9.045   4.606   0.538
17642WAT     H153168   8.999   4.671   0.599
17642WAT     H253169   9.000   4.607   0.448
17643WAT      O53170   7.813   2.166   4.573
17643WAT     H153171   7.907   2.167   4.539
17643WAT     H253172   7.788   2.258   4.605
17644WAT      O53173   0.530   1.262   7.268
17644WAT     H153174   0.441   1.238   7.229
17644WAT     H253175   0.521   1.346   7.322
17645WAT      O53176   6.769   4.172   2.382
17645WAT     H153177   6.723   4.248   2.427
17645WAT     H253178   6.751   4.087   2.432
17646WAT      O53179   1.811   3.150   3.086
17646WAT     H153180   1.800   3.249   3.101
17646WAT     H253181   1.890   3.118   3.139
17647WAT      O53182   9.625   5.044   0.414
17647WAT     H153183   9.535   5.021   0.377
17647WAT     H253184   9.682   5.085   0.343
17648WAT      O53185   3.950   1.695   5.881
17648WAT     H153186   3.935   1.745   5.795
17648WAT     H253187   3.875   1.715   5.944
17649WAT      O53188   7.089   0.439   3.924
17649WAT     H153189   7.048   0.351   3.898
17649WAT     H253190   7.074   0.454   4.022
17650WAT      O53191   7.436   8.282   3.407
17650WAT     H153192   7.421   8.341   3.328
17650WAT     H253193   7.441   8.337   3.490
17651WAT      O53194   4.493   2.205   6.302
17651WAT     H153195   4.476   2.281   6.240
17651WAT     H253196   4.501   2.120   6.249
17652WAT      O53197   0.463   1.124   3.041
17652WAT     H153198   0.461   1.221   3.065
17652WAT     H253199   0.556   1.099   3.013
17653WAT      O53200   1.659   9.837   9.881
17653WAT     H153201   1.644   9.806   9.975
17653WAT     H253202   1.576   9.823   9.827
17654WAT      O53203   0.772   6.883   3.676
17654WAT     H153204   0.840   6.923   3.738
17654WAT     H253205   0.781   6.926   3.586
17655WAT      O53206   7.193   3.493   1.481
17655WAT     H153207   7.200   3.560   1.408
17655WAT     H253208   7.120   3.519   1.544
17656WAT      O53209   5.266   4.133   5.935
17656WAT     H153210   5.192   4.166   5.993
17656WAT     H253211   5.298   4.207   5.876
17657WAT      O53212   1.614   4.507   9.324
17657WAT     H153213   1.705   4.469   9.311
17657WAT     H253214   1.598   4.524   9.422
17658WAT      O53215   4.978   0.596   5.441
17658WAT     H153216   4.925   0.512   5.454
17658WAT     H253217   5.019   0.595   5.350
17659WAT      O53218   7.903   3.872   3.099
17659WAT     H153219   7.951   3.883   3.186
17659WAT     H253220   7.810   3.840   3.117
17660WAT      O53221   4.776   0.812   7.533
17660WAT     H153222   4.689   0.833   7.489
17660WAT     H253223   4.761   0.744   7.605
17661WAT      O53224   0.041   6.149   1.940
17661WAT     H153225   0.121   6.090   1.947
17661WAT     H253226   0.041   6.194   1.851
17662WAT      O53227   0.529   8.490   3.041
17662WAT     H153228   0.479   8.553   2.981
17662WAT     H253229   0.469   8.414   3.066
17663WAT      O53230   3.155   8.847   6.199
17663WAT     H153231   3.188   8.895   6.280
17663WAT     H253232   3.094   8.773   6.226
17664WAT      O53233   1.978   0.790   4.847
17664WAT     H153234   2.075   0.806   4.835
17664WAT     H253235   1.954   0.803   4.944
17665WAT      O53236   2.414   1.747   1.167
17665WAT     H153237   2.364   1.660   1.168
17665WAT     H253238   2.469   1.755   1.251
17666WAT      O53239   9.162   6.597   7.367
17666WAT     H153240   9.126   6.621   7.277
17666WAT     H253241   9.256   6.563   7.358
17667WAT      O53242   5.715   0.152   4.874
17667WAT     H153243   5.755   0.067   4.909
17667WAT     H253244   5.777   0.193   4.808
17668WAT      O53245   8.299   9.554   1.057
17668WAT     H153246   8.298   9.649   1.089
17668WAT     H253247   8.217   9.536   1.004
17669WAT      O53248   8.285   7.386   9.455
17669WAT     H153249   8.356   7.354   9.518
17669WAT     H253250   8.250   7.475   9.486
17670WAT      O53251   3.205   9.519   7.770
17670WAT     H153252   3.257   9.551   7.849
17670WAT     H253253   3.107   9.525   7.789
17671WAT      O53254   1.209   5.251   8.154
17671WAT     H153255   1.113   5.272   8.174
17671WAT     H253256   1.236   5.296   8.069
17672WAT      O53257   7.239   4.133   9.297
17672WAT     H153258   7.333   4.110   9.321
17672WAT     H253259   7.183   4.050   9.300
17673WAT      O53260   7.762   4.246   8.868
17673WAT     H153261   7.724   4.158   8.841
17673WAT     H253262   7.758   4.309   8.791
17674WAT      O53263   6.120   8.895   0.178
17674WAT     H153264   6.152   8.843   0.257
17674WAT     H253265   6.194   8.951   0.142
17675WAT      O53266   8.417   0.837   9.178
17675WAT     H153267   8.492   0.774   9.199
17675WAT     H253268   8.338   0.815   9.234
17676WAT      O53269   3.863   1.766   1.165
17676WAT     H153270   3.889   1.743   1.071
17676WAT     H253271   3.928   1.832   1.202
17677WAT      O53272   1.894   8.082   0.775
17677WAT     H153273   1.818   8.071   0.839
17677WAT     H253274   1.954   8.002   0.779
17678WAT      O53275   3.514   4.630   4.619
17678WAT     H153276   3.569   4.712   4.632
17678WAT     H253277   3.428   4.654   4.574
17679WAT      O53278   9.553   1.999   4.825
17679WAT     H153279   9.562   2.078   4.765
17679WAT     H253280   9.559   2.029   4.920
17680WAT      O53281   0.696   7.912   3.393
17680WAT     H153282   0.606   7.912   3.437
17680WAT     H253283   0.700   7.837   3.326
17681WAT      O53284   1.789   1.162   0.094
17681WAT     H153285   1.754   1.152   0.001
17681WAT     H253286   1.884   1.193   0.092
17682WAT      O53287   0.903   9.119   2.909
17682WAT     H153288   0.832   9.153   2.970
17682WAT     H253289   0.866   9.045   2.853
17683WAT      O53290   5.726   3.369   3.886
17683WAT     H153291   5.691   3.276   3.901
17683WAT     H253292   5.826   3.367   3.880
17684WAT      O53293   9.122   2.137   0.771
17684WAT     H153294   9.026   2.158   0.752
17684WAT     H253295   9.128   2.046   0.812
17685WAT      O53296   7.920   8.462   0.810
17685WAT     H153297   7.922   8.374   0.857
17685WAT     H253298   8.014   8.494   0.797
17686WAT      O53299   2.409   2.634   3.866
17686WAT     H153300   2.445   2.602   3.954
17686WAT     H253301   2.484   2.644   3.801
17687WAT      O53302   1.845   8.587   8.958
17687WAT     H153303   1.866   8.493   8.982
17687WAT     H253304   1.752   8.609   8.988
17688WAT      O53305   9.497   0.033   9.487
17688WAT     H153306   9.470  -0.039   9.423
17688WAT     H253307   9.596   0.027   9.503
17689WAT      O53308   5.261   8.139   5.157
17689WAT     H153309   5.183   8.094   5.203
17689WAT     H253310   5.322   8.069   5.120
17690WAT      O53311   8.609   1.717   2.591
17690WAT     H153312   8.563   1.790   2.542
17690WAT     H253313   8.685   1.755   2.643
17691WAT      O53314   1.833   3.029   6.535
17691WAT     H153315   1.750   3.063   6.489
17691WAT     H253316   1.864   3.096   6.602
17692WAT      O53317   4.620   7.560   7.021
17692WAT     H153318   4.658   7.525   6.935
17692WAT     H253319   4.691   7.611   7.070
17693WAT      O53320   7.797   5.654   9.485
17693WAT     H153321   7.779   5.605   9.570
17693WAT     H253322   7.883   5.622   9.446
17694WAT      O53323   1.068   2.507   1.193
17694WAT     H153324   1.064   2.487   1.291
17694WAT     H253325   1.059   2.605   1.179
17695WAT      O53326   9.762   3.792   3.811
17695WAT     H153327   9.810   3.875   3.782
17695WAT     H253328   9.822   3.713   3.798
17696WAT      O53329   2.424   6.169   3.872
17696WAT     H153330   2.446   6.146   3.777
17696WAT     H253331   2.335   6.131   3.896
17697WAT      O53332   7.556   5.761   9.632
17697WAT     H153333   7.635   5.818   9.607
17697WAT     H253334   7.586   5.667   9.644
17698WAT      O53335   4.569   0.665   2.732
17698WAT     H153336   4.520   0.674   2.644
17698WAT     H253337   4.518   0.714   2.803
17699WAT      O53338   9.207   0.265   2.907
17699WAT     H153339   9.220   0.181   2.960
17699WAT     H253340   9.206   0.243   2.809
17700WAT      O53341   9.325   6.382   7.585
17700WAT     H153342   9.343   6.390   7.487
17700WAT     H253343   9.363   6.462   7.632
17701WAT      O53344   3.382   2.338   3.429
17701WAT     H153345   3.419   2.408   3.367
17701WAT     H253346   3.406   2.362   3.523
17702WAT      O53347   8.934   6.053   5.195
17702WAT     H153348   8.839   6.028   5.216
17702WAT     H253349   8.937   6.097   5.105
17703WAT      O53350   9.537   1.243   7.706
17703WAT     H153351   9.568   1.153   7.736
17703WAT     H253352   9.606   1.311   7.732
17704WAT      O53353   7.467   4.352   2.820
17704WAT     H153354   7.475   4.401   2.907
17704WAT     H253355   7.517   4.266   2.826
17705WAT      O53356   9.694   7.762   9.253
17705WAT     H153357   9.673   7.776   9.156
17705WAT     H253358   9.718   7.850   9.295
17706WAT      O53359   5.745   9.518   7.935
17706WAT     H153360   5.835   9.520   7.978
17706WAT     H253361   5.755   9.507   7.836
17707WAT      O53362   8.357   8.781   8.792
17707WAT     H153363   8.383   8.854   8.855
17707WAT     H253364   8.338   8.820   8.702
17708WAT      O53365   2.587   7.230   9.799
17708WAT     H153366   2.580   7.330   9.797
17708WAT     H253367   2.617   7.200   9.889
17709WAT      O53368   9.571   1.324   4.623
17709WAT     H153369   9.641   1.263   4.585
17709WAT     H253370   9.605   1.366   4.707
17710WAT      O53371   1.474   3.910   4.437
17710WAT     H153372   1.500   3.835   4.376
17710WAT     H253373   1.449   3.990   4.382
17711WAT      O53374   7.588   0.460   5.069
17711WAT     H153375   7.529   0.513   5.129
17711WAT     H253376   7.674   0.509   5.055
17712WAT      O53377   1.785   7.230   9.321
17712WAT     H153378   1.858   7.298   9.328
17712WAT     H253379   1.824   7.144   9.285
17713WAT      O53380   7.918   9.427   3.983
17713WAT     H153381   7.932   9.337   4.023
17713WAT     H253382   7.822   9.453   3.992
17714WAT      O53383   0.011   4.690   3.095
17714WAT     H153384  -0.087   4.668   3.099
17714WAT     H253385   0.062   4.623   3.149
17715WAT      O53386   6.275   5.370   7.458
17715WAT     H153387   6.246   5.278   7.487
17715WAT     H253388   6.215   5.438   7.501
17716WAT      O53389   0.519   7.075   6.225
17716WAT     H153390   0.471   7.005   6.172
17716WAT     H253391   0.602   7.036   6.264
17717WAT      O53392   4.028   5.289   1.938
17717WAT     H153393   3.966   5.253   1.869
17717WAT     H253394   4.113   5.237   1.938
17718WAT      O53395   7.368   9.286   3.342
17718WAT     H153396   7.437   9.340   3.390
17718WAT     H253397   7.306   9.348   3.293
17719WAT      O53398   6.855   8.682   4.091
17719WAT     H153399   6.940   8.631   4.092
17719WAT     H253400   6.856   8.750   4.165
17720WAT      O53401   7.615   1.686   3.625
17720WAT     H153402   7.632   1.738   3.542
17720WAT     H253403   7.693   1.695   3.687
17721WAT      O53404   4.079   4.262   1.409
17721WAT     H153405   4.123   4.348   1.384
17721WAT     H253406   4.081   4.251   1.508
17722WAT      O53407   3.199   9.223   9.775
17722WAT     H153408   3.225   9.128   9.760
17722WAT     H253409   3.208   9.245   9.872
17723WAT      O53410   6.695   2.727   7.827
17723WAT     H153411   6.738   2.792   7.764
17723WAT     H253412   6.610   2.766   7.862
17724WAT      O53413   4.081   5.721   7.439
17724WAT     H153414   4.095   5.816   7.465
17724WAT     H253415   4.061   5.716   7.341
17725WAT      O53416   8.292   9.523   9.023
17725WAT     H153417   8.204   9.536   8.977
17725WAT     H253418   8.277   9.497   9.118
17726WAT      O53419   0.601   0.812   9.092
17726WAT     H153420   0.627   0.778   9.002
17726WAT     H253421   0.536   0.887   9.082
17727WAT      O53422   0.271   2.718   2.235
17727WAT     H153423   0.364   2.755   2.233
17727WAT     H253424   0.272   2.624   2.201
17728WAT      O53425   1.079   4.430   5.226
17728WAT     H153426   1.102   4.507   5.285
17728WAT     H253427   0.996   4.451   5.175
17729WAT      O53428   5.424   8.350   0.791
17729WAT     H153429   5.331   8.332   0.821
17729WAT     H253430   5.423   8.381   0.695
17730WAT      O53431   9.755   9.285   5.056
17730WAT     H153432   9.845   9.320   5.030
17730WAT     H253433   9.692   9.361   5.069
17731WAT      O53434   3.818   6.747   9.828
17731WAT     H153435   3.767   6.768   9.911
17731WAT     H253436   3.846   6.651   9.829
17732WAT      O53437   7.214   3.926   0.155
17732WAT     H153438   7.117   3.918   0.180
17732WAT     H253439   7.222   3.936   0.056
17733WAT      O53440   7.151   7.468   4.997
17733WAT     H153441   7.073   7.458   5.058
17733WAT     H253442   7.159   7.563   4.967
17734WAT      O53443   2.243   8.779   2.933
17734WAT     H153444   2.264   8.790   3.030
17734WAT     H253445   2.146   8.755   2.923
17735WAT      O53446   1.920   0.067   6.173
17735WAT     H153447   2.014   0.058   6.205
17735WAT     H253448   1.887  -0.021   6.139
17736WAT      O53449   0.626   2.183   1.739
17736WAT     H153450   0.588   2.091   1.746
17736WAT     H253451   0.585   2.231   1.662
17737WAT      O53452   8.465   6.531   2.889
17737WAT     H153453   8.560   6.562   2.883
17737WAT     H253454   8.411   6.599   2.939
17738WAT      O53455   7.649   2.708   3.229
17738WAT     H153456   7.622   2.737   3.137
17738WAT     H253457   7.570   2.710   3.290
17739WAT      O53458   1.184   7.053   2.741
17739WAT     H153459   1.111   7.056   2.810
17739WAT     H253460   1.149   7.009   2.658
17740WAT      O53461   0.803   3.089   5.847
17740WAT     H153462   0.791   3.003   5.897
17740WAT     H253463   0.888   3.132   5.876
17741WAT      O53464   9.431   6.369   0.712
17741WAT     H153465   9.374   6.367   0.794
17741WAT     H253466   9.413   6.453   0.661
17742WAT      O53467   8.999   0.359   1.295
17742WAT     H153468   9.060   0.285   1.325
17742WAT     H253469   8.975   0.417   1.374
17743WAT      O53470   9.783   1.591   0.369
17743WAT     H153471   9.740   1.643   0.443
17743WAT     H253472   9.762   1.635   0.281
17744WAT      O53473   1.100   5.988   1.228
17744WAT     H153474   1.071   6.036   1.311
17744WAT     H253475   1.021   5.941   1.187
17745WAT      O53476   9.354   7.916   9.487
17745WAT     H153477   9.407   7.918   9.572
17745WAT     H253478   9.392   7.981   9.422
17746WAT      O53479   7.175   1.127   7.124
17746WAT     H153480   7.119   1.085   7.195
17746WAT     H253481   7.223   1.056   7.072
17747WAT      O53482   8.808   5.460   3.770
17747WAT     H153483   8.876   5.423   3.833
17747WAT     H253484   8.720   5.469   3.817
17748WAT      O53485   2.549   8.291   4.275
17748WAT     H153486   2.594   8.263   4.360
17748WAT     H253487   2.458   8.249   4.271
17749WAT      O53488   6.671   2.008   6.572
17749WAT     H153489   6.576   2.035   6.585
17749WAT     H253490   6.685   1.976   6.479
17750WAT      O53491   7.693   0.876   1.460
17750WAT     H153492   7.702   0.967   1.419
17750WAT     H253493   7.731   0.877   1.553
17751WAT      O53494   0.390   9.545   6.718
17751WAT     H153495   0.375   9.618   6.784
17751WAT     H253496   0.390   9.583   6.625
17752WAT      O53497   3.586   7.961   7.900
17752WAT     H153498   3.539   7.891   7.953
17752WAT     H253499   3.637   7.917   7.826
17753WAT      O53500   8.278   2.391   8.461
17753WAT     H153501   8.338   2.406   8.539
17753WAT     H253502   8.302   2.454   8.387
17754WAT      O53503   2.549   4.976   2.057
17754WAT     H153504   2.571   4.980   1.960
17754WAT     H253505   2.578   4.888   2.095
17755WAT      O53506   9.337   8.175   8.785
17755WAT     H153507   9.301   8.113   8.855
17755WAT     H253508   9.262   8.202   8.724
17756WAT      O53509   9.777   7.025   1.865
17756WAT     H153510   9.679   7.009   1.851
17756WAT     H253511   9.807   7.096   1.802
17757WAT      O53512   1.199   0.941   0.040
17757WAT     H153513   1.271   0.977  -0.020
17757WAT     H253514   1.238   0.876   0.104
17758WAT      O53515   6.813   0.400   1.386
17758WAT     H153516   6.779   0.375   1.295
17758WAT     H253517   6.907   0.369   1.395
17759WAT      O53518   7.721   0.579   9.085
17759WAT     H153519   7.710   0.480   9.088
17759WAT     H253520   7.632   0.623   9.072
17760WAT      O53521   1.682   0.994   8.438
17760WAT     H153522   1.709   1.070   8.497
17760WAT     H253523   1.678   0.910   8.492
17761WAT      O53524   6.810   4.919   6.186
17761WAT     H153525   6.771   5.004   6.153
17761WAT     H253526   6.753   4.842   6.158
17762WAT      O53527   9.793   9.623   1.874
17762WAT     H153528   9.759   9.635   1.967
17762WAT     H253529   9.833   9.708   1.842
17763WAT      O53530   4.467   0.713   2.110
17763WAT     H153531   4.555   0.667   2.123
17763WAT     H253532   4.405   0.653   2.061
17764WAT      O53533   1.219   0.005   6.152
17764WAT     H153534   1.225  -0.084   6.107
17764WAT     H253535   1.311   0.042   6.166
17765WAT      O53536   5.002   3.875   0.834
17765WAT     H153537   5.001   3.785   0.791
17765WAT     H253538   4.910   3.897   0.868
17766WAT      O53539   1.876   0.276   2.100
17766WAT     H153540   1.850   0.331   2.021
17766WAT     H253541   1.853   0.180   2.084
17767WAT      O53542   4.755   4.826   2.677
17767WAT     H153543   4.723   4.731   2.682
17767WAT     H253544   4.758   4.855   2.581
17768WAT      O53545   4.221   7.934   6.128
17768WAT     H153546   4.125   7.911   6.116
17768WAT     H253547   4.264   7.868   6.190
17769WAT      O53548   7.521   7.677   9.190
17769WAT     H153549   7.597   7.731   9.154
17769WAT     H253550   7.493   7.712   9.279
17770WAT      O53551   9.563   4.796   5.452
17770WAT     H153552   9.544   4.763   5.360
17770WAT     H253553   9.644   4.751   5.488
17771WAT      O53554   4.522   6.980   4.413
17771WAT     H153555   4.549   6.891   4.451
17771WAT     H253556   4.575   6.998   4.330
17772WAT      O53557   7.969   6.399   8.372
17772WAT     H153558   8.023   6.431   8.294
17772WAT     H253559   7.876   6.377   8.342
17773WAT      O53560   9.607   8.713   8.764
17773WAT     H153561   9.664   8.634   8.783
17773WAT     H253562   9.521   8.683   8.722
17774WAT      O53563   0.817   6.631   6.285
17774WAT     H153564   0.916   6.641   6.301
17774WAT     H253565   0.800   6.547   6.233
17775WAT      O53566   5.237   7.852   3.334
17775WAT     H153567   5.277   7.762   3.350
17775WAT     H253568   5.238   7.905   3.419
17776WAT      O53569   9.258   4.326   8.018
17776WAT     H153570   9.270   4.341   8.116
17776WAT     H253571   9.300   4.403   7.968
17777WAT      O53572   6.898   7.283   2.753
17777WAT     H153573   6.842   7.250   2.829
17777WAT     H253574   6.987   7.314   2.788
17778WAT      O53575   6.224   6.041   1.636
17778WAT     H153576   6.204   5.979   1.712
17778WAT     H253577   6.318   6.074   1.644
17779WAT      O53578   5.640   2.735   7.988
17779WAT     H153579   5.623   2.637   7.974
17779WAT     H253580   5.697   2.747   8.069
17780WAT      O53581   7.480   8.049   2.433
17780WAT     H153582   7.515   7.990   2.506
17780WAT     H253583   7.521   8.023   2.346
17781WAT      O53584   3.827   5.554   4.257
17781WAT     H153585   3.888   5.532   4.181
17781WAT     H253586   3.882   5.566   4.340
17782WAT      O53587   1.501   6.549   7.669
17782WAT     H153588   1.578   6.591   7.621
17782WAT     H253589   1.417   6.560   7.616
17783WAT      O53590   7.051   3.483   6.025
17783WAT     H153591   6.996   3.566   6.034
17783WAT     H253592   7.061   3.461   5.928
17784WAT      O53593   5.789   0.158   0.150
17784WAT     H153594   5.812   0.255   0.161
17784WAT     H253595   5.705   0.150   0.096
17785WAT      O53596   3.595   1.952   0.569
17785WAT     H153597   3.633   2.020   0.632
17785WAT     H253598   3.666   1.923   0.506
17786WAT      O53599   3.667   7.877   9.605
17786WAT     H153600   3.670   7.803   9.538
17786WAT     H253601   3.760   7.905   9.628
17787WAT      O53602   8.140   1.686   8.703
17787WAT     H153603   8.225   1.732   8.728
17787WAT     H253604   8.123   1.696   8.605
17788WAT      O53605   4.169   4.150   9.496
17788WAT     H153606   4.216   4.236   9.475
17788WAT     H253607   4.092   4.168   9.557
17789WAT      O53608   3.888   3.918   5.221
17789WAT     H153609   3.962   3.894   5.158
17789WAT     H253610   3.924   3.929   5.313
17790WAT      O53611   1.561   2.609   1.428
17790WAT     H153612   1.493   2.673   1.392
17790WAT     H253613   1.643   2.659   1.454
17791WAT      O53614   7.641   2.662   5.491
17791WAT     H153615   7.683   2.602   5.423
17791WAT     H253616   7.665   2.757   5.471
17792WAT      O53617   7.223   0.947   9.199
17792WAT     H153618   7.177   0.976   9.116
17792WAT     H253619   7.177   0.987   9.279
17793WAT      O53620   5.493   3.451   0.434
17793WAT     H153621   5.564   3.496   0.380
17793WAT     H253622   5.411   3.439   0.378
17794WAT      O53623   8.909   6.755   0.538
17794WAT     H153624   8.960   6.780   0.620
17794WAT     H253625   8.851   6.676   0.556
17795WAT      O53626   0.854   4.244   7.859
17795WAT     H153627   0.821   4.312   7.925
17795WAT     H253628   0.827   4.153   7.890
17796WAT      O53629   2.970   8.764   2.186
17796WAT     H153630   2.884   8.723   2.215
17796WAT     H253631   3.033   8.768   2.263
17797WAT      O53632   5.109   3.159   0.963
17797WAT     H153633   5.128   3.189   0.870
17797WAT     H253634   5.053   3.076   0.961
17798WAT      O53635   1.747   6.700   9.764
17798WAT     H153636   1.821   6.721   9.829
17798WAT     H253637   1.659   6.715   9.808
17799WAT      O53638   6.286   5.185   0.747
17799WAT     H153639   6.303   5.280   0.719
17799WAT     H253640   6.247   5.134   0.671
17800WAT      O53641   6.550   4.029   0.724
17800WAT     H153642   6.514   4.091   0.794
17800WAT     H253643   6.474   3.984   0.677
17801WAT      O53644   2.502   2.286   6.945
17801WAT     H153645   2.431   2.350   6.914
17801WAT     H253646   2.472   2.193   6.928
17802WAT      O53647   7.752   7.703   2.655
17802WAT     H153648   7.655   7.712   2.634
17802WAT     H253649   7.765   7.699   2.754
17803WAT      O53650   5.994   4.880   7.482
17803WAT     H153651   6.003   4.834   7.570
17803WAT     H253652   5.970   4.813   7.412
17804WAT      O53653   7.443   9.714   5.677
17804WAT     H153654   7.512   9.666   5.625
17804WAT     H253655   7.478   9.804   5.705
17805WAT      O53656   4.981   2.552   2.915
17805WAT     H153657   4.941   2.487   2.850
17805WAT     H253658   4.946   2.644   2.897
17806WAT      O53659   1.854   7.492   4.976
17806WAT     H153660   1.939   7.531   5.012
17806WAT     H253661   1.863   7.393   4.969
17807WAT      O53662   3.182   3.169   4.959
17807WAT     H153663   3.265   3.205   5.002
17807WAT     H253664   3.190   3.176   4.859
17808WAT      O53665   3.245   9.636   0.019
17808WAT     H153666   3.146   9.645   0.017
17808WAT     H253667   3.275   9.584  -0.061
17809WAT      O53668   6.392   5.353   4.266
17809WAT     H153669   6.363   5.270   4.312
17809WAT     H253670   6.337   5.430   4.298
17810WAT      O53671   7.066   3.239   9.361
17810WAT     H153672   7.103   3.206   9.274
17810WAT     H253673   7.063   3.339   9.361
17811WAT      O53674   9.440   1.880   3.640
17811WAT     H153675   9.475   1.834   3.558
17811WAT     H253676   9.341   1.890   3.633
17812WAT      O53677   8.691   5.949   1.688
17812WAT     H153678   8.687   6.031   1.745
17812WAT     H253679   8.703   5.869   1.746
17813WAT      O53680   0.150   9.564   9.685
17813WAT     H153681   0.121   9.660   9.689
17813WAT     H253682   0.230   9.556   9.625
17814WAT      O53683   8.640   4.951   2.798
17814WAT     H153684   8.719   5.011   2.783
17814WAT     H253685   8.634   4.885   2.723
17815WAT      O53686   2.941   6.036   8.827
17815WAT     H153687   2.925   6.128   8.863
17815WAT     H253688   2.929   6.036   8.728
17816WAT      O53689   1.033   0.667   3.941
17816WAT     H153690   0.995   0.625   3.859
17816WAT     H253691   1.087   0.747   3.915
17817WAT      O53692   2.152   7.879   2.885
17817WAT     H153693   2.079   7.847   2.825
17817WAT     H253694   2.197   7.958   2.843
17818WAT      O53695   0.076   5.963   1.370
17818WAT     H153696  -0.011   5.993   1.410
17818WAT     H253697   0.085   5.864   1.379
17819WAT      O53698   8.340   4.980   4.473
17819WAT     H153699   8.307   5.036   4.549
17819WAT     H253700   8.385   4.898   4.509
17820WAT      O53701   0.068   8.318   0.639
17820WAT     H153702   0.082   8.394   0.575
17820WAT     H253703   0.067   8.232   0.589
17821WAT      O53704   7.118   0.810   0.342
17821WAT     H153705   7.132   0.768   0.432
17821WAT     H253706   7.119   0.739   0.271
17822WAT      O53707   6.590   0.471   3.080
17822WAT     H153708   6.648   0.413   3.024
17822WAT     H253709   6.615   0.567   3.065
17823WAT      O53710   6.876   3.748   6.055
17823WAT     H153711   6.779   3.737   6.037
17823WAT     H253712   6.898   3.846   6.062
17824WAT      O53713   2.735   8.270   5.627
17824WAT     H153714   2.684   8.349   5.592
17824WAT     H253715   2.758   8.285   5.724
17825WAT      O53716   4.067   0.381   9.383
17825WAT     H153717   4.058   0.472   9.343
17825WAT     H253718   4.025   0.314   9.322
17826WAT      O53719   1.477   8.044   4.586
17826WAT     H153720   1.565   8.055   4.632
17826WAT     H253721   1.461   7.947   4.568
17827WAT      O53722   3.005   0.530   6.837
17827WAT     H153723   2.969   0.438   6.825
17827WAT     H253724   3.024   0.570   6.748
17828WAT      O53725   9.044   3.432   3.764
17828WAT     H153726   9.134   3.475   3.765
17828WAT     H253727   9.010   3.426   3.671
17829WAT      O53728   9.244   0.703   2.934
17829WAT     H153729   9.219   0.794   2.900
17829WAT     H253730   9.261   0.709   3.033
17830WAT      O53731   7.027   0.349   4.336
17830WAT     H153732   7.086   0.429   4.351
17830WAT     H253733   6.941   0.378   4.295
17831WAT      O53734   5.291   9.796   8.071
17831WAT     H153735   5.249   9.705   8.074
17831WAT     H253736   5.384   9.788   8.035
17832WAT      O53737   8.509   6.479   0.995
17832WAT     H153738   8.475   6.563   0.951
17832WAT     H253739   8.458   6.401   0.959
17833WAT      O53740   4.772   9.001   2.569
17833WAT     H153741   4.730   9.074   2.624
17833WAT     H253742   4.783   8.920   2.626
17834WAT      O53743   9.207   8.264   5.939
17834WAT     H153744   9.259   8.183   5.965
17834WAT     H253745   9.268   8.332   5.898
17835WAT      O53746   3.956   5.232   1.186
17835WAT     H153747   3.918   5.139   1.185
17835WAT     H253748   4.019   5.242   1.109
17836WAT      O53749   1.936   2.665   9.575
17836WAT     H153750   1.839   2.670   9.551
17836WAT     H253751   1.970   2.573   9.555
17837WAT      O53752   3.287   3.023   5.536
17837WAT     H153753   3.199   2.999   5.495
17837WAT     H253754   3.318   2.950   5.597
17838WAT      O53755   8.777   7.088   5.447
17838WAT     H153756   8.747   7.183   5.457
17838WAT     H253757   8.742   7.035   5.524
17839WAT      O53758   1.005   2.437   6.175
17839WAT     H153759   1.010   2.390   6.262
17839WAT     H253760   0.967   2.376   6.105
17840WAT      O53761   4.269   3.068   0.957
17840WAT     H153762   4.302   3.155   0.922
17840WAT     H253763   4.232   3.081   1.049
17841WAT      O53764   2.735   3.123   3.653
17841WAT     H153765   2.813   3.064   3.672
17841WAT     H253766   2.652   3.082   3.692
17842WAT      O53767   4.073   7.619   5.986
17842WAT     H153768   4.131   7.596   6.064
17842WAT     H253769   3.985   7.573   5.996
17843WAT      O53770   2.523   2.303   5.828
17843WAT     H153771   2.554   2.289   5.922
17843WAT     H253772   2.441   2.362   5.828
17844WAT      O53773   9.202   6.670   5.246
17844WAT     H153774   9.151   6.597   5.291
17844WAT     H253775   9.280   6.696   5.302
17845WAT      O53776   4.098   3.286   5.525
17845WAT     H153777   4.001   3.269   5.547
17845WAT     H253778   4.155   3.219   5.573
17846WAT      O53779   8.610   7.324   3.172
17846WAT     H153780   8.658   7.254   3.119
17846WAT     H253781   8.564   7.387   3.109
17847WAT      O53782   7.608   7.330   9.690
17847WAT     H153783   7.574   7.297   9.603
17847WAT     H253784   7.623   7.253   9.752
17848WAT      O53785   6.726   7.009   7.682
17848WAT     H153786   6.807   6.979   7.732
17848WAT     H253787   6.734   7.106   7.660
17849WAT      O53788   5.599   6.724   4.827
17849WAT     H153789   5.515   6.686   4.866
17849WAT     H253790   5.577   6.774   4.743
17850WAT      O53791   5.970   8.981   4.922
17850WAT     H153792   6.035   8.942   4.857
17850WAT     H253793   5.878   8.946   4.902
17851WAT      O53794   4.297   7.727   8.442
17851WAT     H153795   4.271   7.782   8.363
17851WAT     H253796   4.214   7.695   8.489
17852WAT      O53797   4.281   6.819   4.202
17852WAT     H153798   4.261   6.852   4.110
17852WAT     H253799   4.378   6.796   4.209
17853WAT      O53800   1.669   9.659   8.083
17853WAT     H153801   1.743   9.616   8.135
17853WAT     H253802   1.582   9.640   8.127
17854WAT      O53803   1.219   7.914   4.776
17854WAT     H153804   1.292   7.982   4.774
17854WAT     H253805   1.214   7.867   4.687
17855WAT      O53806   9.808   6.706   8.232
17855WAT     H153807   9.775   6.622   8.190
17855WAT     H253808   9.773   6.713   8.325
17856WAT      O53809   2.980   8.959   5.993
17856WAT     H153810   3.039   8.966   6.074
17856WAT     H253811   2.902   8.900   6.014
17857WAT      O53812   7.736   6.083   5.520
17857WAT     H153813   7.768   5.989   5.508
17857WAT     H253814   7.683   6.090   5.604
17858WAT      O53815   2.659   2.699   5.163
17858WAT     H153816   2.609   2.747   5.090
17858WAT     H253817   2.594   2.646   5.217
17859WAT      O53818   8.990   5.749   6.858
17859WAT     H153819   8.908   5.777   6.809
17859WAT     H253820   9.060   5.720   6.793
17860WAT      O53821   1.363   3.509   5.642
17860WAT     H153822   1.415   3.552   5.716
17860WAT     H253823   1.288   3.569   5.615
17861WAT      O53824   3.945   9.246   6.233
17861WAT     H153825   4.040   9.226   6.258
17861WAT     H253826   3.888   9.168   6.256
17862WAT      O53827   4.068   9.733   3.250
17862WAT     H153828   4.000   9.800   3.281
17862WAT     H253829   4.027   9.673   3.181
17863WAT      O53830   9.277   9.683   5.725
17863WAT     H153831   9.248   9.752   5.659
17863WAT     H253832   9.376   9.689   5.738
17864WAT      O53833   9.316   9.259   0.177
17864WAT     H153834   9.397   9.299   0.134
17864WAT     H253835   9.325   9.263   0.276
17865WAT      O53836   5.359   8.145   2.002
17865WAT     H153837   5.289   8.189   2.058
17865WAT     H253838   5.319   8.115   1.915
17866WAT      O53839   3.487   0.225   4.726
17866WAT     H153840   3.429   0.146   4.706
17866WAT     H253841   3.438   0.309   4.701
17867WAT      O53842   8.889   4.344   6.070
17867WAT     H153843   8.870   4.298   6.157
17867WAT     H253844   8.985   4.370   6.067
17868WAT      O53845   0.543   2.168   5.374
17868WAT     H153846   0.639   2.196   5.382
17868WAT     H253847   0.484   2.247   5.387
17869WAT      O53848   8.507   8.759   1.553
17869WAT     H153849   8.426   8.791   1.603
17869WAT     H253850   8.480   8.689   1.487
17870WAT      O53851   3.734   2.496   9.271
17870WAT     H153852   3.830   2.469   9.278
17870WAT     H253853   3.689   2.441   9.201
17871WAT      O53854   5.248   4.864   0.726
17871WAT     H153855   5.230   4.934   0.795
17871WAT     H253856   5.305   4.792   0.765
17872WAT      O53857   8.512   0.010   6.927
17872WAT     H153858   8.579  -0.005   7.001
17872WAT     H253859   8.518   0.104   6.895
17873WAT      O53860   0.981   4.657   6.752
17873WAT     H153861   0.981   4.661   6.852
17873WAT     H253862   0.888   4.669   6.718
17874WAT      O53863   0.914   3.385   5.558
17874WAT     H153864   0.879   3.459   5.500
17874WAT     H253865   0.974   3.326   5.505
17875WAT      O53866   4.645   5.491   3.017
17875WAT     H153867   4.617   5.396   3.027
17875WAT     H253868   4.624   5.541   3.101
17876WAT      O53869   8.160   8.038   9.488
17876WAT     H153870   8.071   8.002   9.516
17876WAT     H253871   8.157   8.063   9.391
17877WAT      O53872   7.926   7.737   3.724
17877WAT     H153873   7.946   7.761   3.629
17877WAT     H253874   7.939   7.638   3.736
17878WAT      O53875   8.921   7.353   9.192
17878WAT     H153876   8.882   7.330   9.281
17878WAT     H253877   9.012   7.313   9.184
17879WAT      O53878   1.260   5.846   8.023
17879WAT     H153879   1.236   5.768   7.965
17879WAT     H253880   1.335   5.896   7.980
17880WAT      O53881   8.695   8.566   1.845
17880WAT     H153882   8.715   8.662   1.822
17880WAT     H253883   8.764   8.532   1.909
17881WAT      O53884   7.928   1.049   3.810
17881WAT     H153885   7.837   1.015   3.835
17881WAT     H253886   7.935   1.145   3.834
17882WAT      O53887   4.814   8.246   4.658
17882WAT     H153888   4.883   8.247   4.585
17882WAT     H253889   4.849   8.194   4.736
17883WAT      O53890   0.987   2.891   0.588
17883WAT     H153891   1.021   2.985   0.580
17883WAT     H253892   0.943   2.879   0.677
17884WAT      O53893   8.240   0.202   0.692
17884WAT     H153894   8.267   0.135   0.761
17884WAT     H253895   8.144   0.226   0.704
17885WAT      O53896   5.034   7.579   3.433
17885WAT     H153897   5.043   7.480   3.442
17885WAT     H253898   5.124   7.622   3.445
17886WAT      O53899   7.515   6.636   0.226
17886WAT     H153900   7.547   6.548   0.261
17886WAT     H253901   7.474   6.689   0.301
17887WAT      O53902   8.072   4.610   1.188
17887WAT     H153903   8.113   4.532   1.140
17887WAT     H253904   8.046   4.680   1.121
17888WAT      O53905   0.459   4.137   7.189
17888WAT     H153906   0.421   4.107   7.276
17888WAT     H253907   0.427   4.230   7.170
17889WAT      O53908   4.253   1.933   3.080
17889WAT     H153909   4.193   1.894   3.149
17889WAT     H253910   4.335   1.969   3.123
17890WAT      O53911   1.094   2.249   6.599
17890WAT     H153912   1.102   2.309   6.679
17890WAT     H253913   1.095   2.154   6.629
17891WAT      O53914   7.553   0.081   9.172
17891WAT     H153915   7.465   0.071   9.124
17891WAT     H253916   7.562   0.008   9.240
17892WAT      O53917   6.736   9.070   0.229
17892WAT     H153918   6.673   9.071   0.152
17892WAT     H253919   6.790   8.986   0.227
17893WAT      O53920   0.858   3.907   1.418
17893WAT     H153921   0.817   3.914   1.509
17893WAT     H253922   0.897   3.815   1.406
17894WAT      O53923   5.574   8.385   9.781
17894WAT     H153924   5.616   8.364   9.869
17894WAT     H253925   5.524   8.471   9.788
17895WAT      O53926   9.410   6.625   4.188
17895WAT     H153927   9.336   6.575   4.232
17895WAT     H253928   9.380   6.654   4.096
17896WAT      O53929   8.405   8.122   9.859
17896WAT     H153930   8.406   8.217   9.888
17896WAT     H253931   8.407   8.117   9.759
17897WAT      O53932   5.648   2.477   8.311
17897WAT     H153933   5.701   2.411   8.364
17897WAT     H253934   5.683   2.569   8.327
17898WAT      O53935   4.831   1.945   7.392
17898WAT     H153936   4.906   1.928   7.456
17898WAT     H253937   4.748   1.898   7.425
17899WAT      O53938   7.868   3.911   5.739
17899WAT     H153939   7.959   3.901   5.780
17899WAT     H253940   7.841   3.826   5.696
17900WAT      O53941   7.952   7.023   7.612
17900WAT     H153942   7.878   6.990   7.669
17900WAT     H253943   8.038   6.982   7.641
17901WAT      O53944   5.052   9.050   1.685
17901WAT     H153945   4.979   9.118   1.676
17901WAT     H253946   5.136   9.095   1.716
17902WAT      O53947   9.291   0.820   1.654
17902WAT     H153948   9.238   0.886   1.707
17902WAT     H253949   9.232   0.775   1.587
17903WAT      O53950   6.884   3.427   3.298
17903WAT     H153951   6.847   3.394   3.211
17903WAT     H253952   6.933   3.353   3.344
17904WAT      O53953   6.206   2.175   3.161
17904WAT     H153954   6.193   2.274   3.165
17904WAT     H253955   6.164   2.132   3.241
17905WAT      O53956   4.153   8.422   8.961
17905WAT     H153957   4.098   8.371   8.894
17905WAT     H253958   4.237   8.454   8.918
17906WAT      O53959   9.890   9.564   7.607
17906WAT     H153960   9.890   9.640   7.542
17906WAT     H253961   9.851   9.595   7.694
17907WAT      O53962   8.422   7.473   3.962
17907WAT     H153963   8.481   7.497   3.885
17907WAT     H253964   8.397   7.556   4.012
17908WAT      O53965   4.189   0.127   5.425
17908WAT     H153966   4.133   0.189   5.370
17908WAT     H253967   4.130   0.078   5.490
17909WAT      O53968   0.568   0.937   2.313
17909WAT     H153969   0.599   1.032   2.321
17909WAT     H253970   0.523   0.909   2.397
17910WAT      O53971   2.384   2.051   1.492
17910WAT     H153972   2.416   2.015   1.579
17910WAT     H253973   2.326   2.131   1.508
17911WAT      O53974   5.956   0.568   3.336
17911WAT     H153975   6.049   0.596   3.315
17911WAT     H253976   5.895   0.597   3.262
17912WAT      O53977   1.880   4.045   0.042
17912WAT     H153978   1.948   3.996  -0.012
17912WAT     H253979   1.923   4.122   0.088
17913WAT      O53980   3.168   2.833   9.565
17913WAT     H153981   3.223   2.905   9.607
17913WAT     H253982   3.072   2.847   9.587
17914WAT      O53983   1.960   9.235   4.907
17914WAT     H153984   2.032   9.193   4.963
17914WAT     H253985   1.891   9.275   4.967
17915WAT      O53986   6.024   8.148   7.113
17915WAT     H153987   6.049   8.163   7.208
17915WAT     H253988   5.961   8.070   7.107
17916WAT      O53989   3.155   4.093   9.202
17916WAT     H153990   3.228   4.034   9.167
17916WAT     H253991   3.077   4.037   9.228
17917WAT      O53992   4.153   5.008   2.562
17917WAT     H153993   4.144   5.070   2.484
17917WAT     H253994   4.235   5.031   2.614
17918WAT      O53995   7.824   2.338   1.754
17918WAT     H153996   7.880   2.261   1.722
17918WAT     H253997   7.802   2.398   1.677
17919WAT      O53998   3.474   0.796   7.994
17919WAT     H153999   3.468   0.713   8.050
17919WAT     H254000   3.495   0.771   7.899
17920WAT      O54001   4.397   1.648   7.657
17920WAT     H154002   4.348   1.677   7.739
17920WAT     H254003   4.474   1.590   7.683
17921WAT      O54004   2.578   2.151   4.486
17921WAT     H154005   2.527   2.070   4.515
17921WAT     H254006   2.582   2.216   4.561
17922WAT      O54007   8.492   2.046   9.887
17922WAT     H154008   8.516   1.990   9.807
17922WAT     H254009   8.573   2.093   9.921
17923WAT      O54010   2.656   2.162   7.425
17923WAT     H154011   2.675   2.189   7.331
17923WAT     H254012   2.737   2.117   7.464
17924WAT      O54013   8.244   5.026   6.158
17924WAT     H154014   8.188   5.082   6.219
17924WAT     H254015   8.240   4.931   6.188
17925WAT      O54016   9.049   8.841   4.830
17925WAT     H154017   8.958   8.808   4.854
17925WAT     H254018   9.041   8.920   4.769
17926WAT      O54019   3.864   4.607   6.280
17926WAT     H154020   3.844   4.676   6.210
17926WAT     H254021   3.963   4.597   6.289
17927WAT      O54022   9.555   3.397   9.853
17927WAT     H154023   9.527   3.491   9.831
17927WAT     H254024   9.653   3.395   9.871
17928WAT      O54025   3.178   6.993   4.599
17928WAT     H154026   3.203   7.013   4.505
17928WAT     H254027   3.114   7.062   4.632
17929WAT      O54028   4.646   8.344   4.455
17929WAT     H154029   4.664   8.276   4.385
17929WAT     H254030   4.703   8.325   4.535
17930WAT      O54031   6.306   4.727   1.989
17930WAT     H154032   6.343   4.808   2.035
17930WAT     H254033   6.381   4.668   1.959
17931WAT      O54034   8.717   9.146   8.099
17931WAT     H154035   8.713   9.048   8.081
17931WAT     H254036   8.625   9.185   8.094
17932WAT      O54037   5.772   9.361   6.362
17932WAT     H154038   5.843   9.384   6.296
17932WAT     H254039   5.802   9.285   6.420
17933WAT      O54040   5.447   1.861   7.193
17933WAT     H154041   5.443   1.932   7.122
17933WAT     H254042   5.355   1.845   7.229
17934WAT      O54043   6.659   3.663   8.181
17934WAT     H154044   6.609   3.586   8.221
17934WAT     H254045   6.593   3.733   8.152
17935WAT      O54046   5.150   6.194   6.459
17935WAT     H154047   5.197   6.110   6.431
17935WAT     H254048   5.174   6.216   6.554
17936WAT      O54049   2.853   8.993   7.001
17936WAT     H154050   2.911   9.057   7.052
17936WAT     H254051   2.836   8.912   7.057
17937WAT      O54052   3.285   2.538   4.566
17937WAT     H154053   3.240   2.607   4.510
17937WAT     H254054   3.296   2.572   4.659
17938WAT      O54055   2.466   2.758   9.772
17938WAT     H154056   2.519   2.735   9.854
17938WAT     H254057   2.378   2.798   9.799
17939WAT      O54058   4.014   6.064   6.231
17939WAT     H154059   3.995   5.970   6.202
17939WAT     H254060   4.110   6.073   6.255
17940WAT      O54061   6.824   2.650   1.708
17940WAT     H154062   6.866   2.599   1.633
17940WAT     H254063   6.833   2.598   1.793
17941WAT      O54064   7.205   8.673   3.087
17941WAT     H154065   7.283   8.683   3.149
17941WAT     H254066   7.165   8.582   3.100
17942WAT      O54067   3.378   7.531   1.448
17942WAT     H154068   3.331   7.444   1.433
17942WAT     H254069   3.458   7.536   1.388
17943WAT      O54070   8.013   8.703   9.881
17943WAT     H154071   8.104   8.706   9.923
17943WAT     H254072   7.987   8.608   9.865
17944WAT      O54073   7.201   8.052   5.280
17944WAT     H154074   7.256   8.002   5.347
17944WAT     H254075   7.216   8.013   5.189
17945WAT      O54076   2.108   8.979   7.314
17945WAT     H154077   2.025   9.034   7.326
17945WAT     H254078   2.170   8.996   7.390
17946WAT      O54079   0.405   2.274   9.847
17946WAT     H154080   0.422   2.332   9.767
17946WAT     H254081   0.366   2.187   9.818
17947WAT      O54082   1.019   8.497   9.777
17947WAT     H154083   0.968   8.449   9.848
17947WAT     H254084   1.101   8.444   9.753
17948WAT      O54085   4.321   7.927   9.271
17948WAT     H154086   4.375   7.986   9.210
17948WAT     H254087   4.267   7.863   9.217
17949WAT      O54088   5.246   3.395   8.838
17949WAT     H154089   5.322   3.348   8.793
17949WAT     H254090   5.236   3.486   8.800
17950WAT      O54091   7.862   2.951   3.976
17950WAT     H154092   7.955   2.985   3.964
17950WAT     H254093   7.852   2.864   3.928
17951WAT      O54094   7.748   8.663   5.429
17951WAT     H154095   7.666   8.696   5.476
17951WAT     H254096   7.721   8.613   5.347
17952WAT      O54097   3.917   7.448   7.790
17952WAT     H154098   3.984   7.456   7.863
17952WAT     H254099   3.863   7.364   7.803
17953WAT      O54100   7.891   4.047   6.198
17953WAT     H154101   7.957   4.108   6.154
17953WAT     H254102   7.860   3.978   6.132
17954WAT      O54103   4.455   9.520   9.310
17954WAT     H154104   4.527   9.489   9.372
17954WAT     H254105   4.423   9.443   9.255
17955WAT      O54106   5.124   6.390   0.964
17955WAT     H154107   5.058   6.315   0.956
17955WAT     H254108   5.190   6.384   0.890
17956WAT      O54109   5.749   7.741   1.394
17956WAT     H154110   5.810   7.685   1.449
17956WAT     H254111   5.789   7.832   1.382
17957WAT      O54112   3.819   0.340   5.923
17957WAT     H154113   3.726   0.361   5.953
17957WAT     H254114   3.862   0.276   5.986
17958WAT      O54115   1.659   0.257   3.587
17958WAT     H154116   1.662   0.188   3.659
17958WAT     H254117   1.603   0.334   3.616
17959WAT      O54118   0.099   8.890   7.841
17959WAT     H154119   0.087   8.988   7.858
17959WAT     H254120   0.061   8.839   7.918
17960WAT      O54121   0.072   3.393   7.578
17960WAT     H154122   0.129   3.312   7.592
17960WAT     H254123   0.120   3.474   7.611
17961WAT      O54124   3.649   0.798   2.071
17961WAT     H154125   3.683   0.761   2.158
17961WAT     H254126   3.645   0.898   2.077
17962WAT      O54127   1.537   6.461   6.966
17962WAT     H154128   1.503   6.525   7.035
17962WAT     H254129   1.461   6.407   6.931
17963WAT      O54130   3.132   2.628   5.942
17963WAT     H154131   3.179   2.540   5.942
17963WAT     H254132   3.046   2.621   5.893
17964WAT      O54133   7.005   7.136   3.804
17964WAT     H154134   6.953   7.175   3.880
17964WAT     H254135   6.955   7.153   3.719
17965WAT      O54136   4.234   8.861   3.691
17965WAT     H154137   4.161   8.793   3.689
17965WAT     H254138   4.320   8.817   3.713
17966WAT      O54139   6.618   2.192   7.312
17966WAT     H154140   6.523   2.162   7.317
17966WAT     H254141   6.649   2.222   7.403
17967WAT      O54142   2.504   5.485   8.617
17967WAT     H154143   2.415   5.441   8.622
17967WAT     H254144   2.561   5.438   8.550
17968WAT      O54145   3.981   9.735   5.222
17968WAT     H154146   3.992   9.682   5.306
17968WAT     H254147   3.926   9.682   5.157
17969WAT      O54148   9.743   8.107   6.105
17969WAT     H154149   9.825   8.117   6.162
17969WAT     H254150   9.689   8.030   6.137
17970WAT      O54151   5.609   2.255   7.306
17970WAT     H154152   5.633   2.289   7.397
17970WAT     H254153   5.618   2.156   7.304
17971WAT      O54154   8.846   5.127   6.809
17971WAT     H154155   8.822   5.147   6.904
17971WAT     H254156   8.899   5.042   6.805
17972WAT      O54157   9.226   2.622   9.078
17972WAT     H154158   9.142   2.659   9.118
17972WAT     H254159   9.305   2.670   9.117
17973WAT      O54160   6.798   4.797   4.775
17973WAT     H154161   6.726   4.781   4.843
17973WAT     H254162   6.814   4.713   4.723
17974WAT      O54163   7.311   7.351   4.771
17974WAT     H154164   7.332   7.254   4.755
17974WAT     H254165   7.278   7.362   4.865
17975WAT      O54166   3.287   5.157   6.455
17975WAT     H154167   3.230   5.224   6.408
17975WAT     H254168   3.231   5.080   6.486
17976WAT      O54169   4.613   6.381   9.239
17976WAT     H154170   4.652   6.460   9.190
17976WAT     H254171   4.522   6.405   9.273
17977WAT      O54172   9.700   6.009   4.838
17977WAT     H154173   9.790   5.973   4.814
17977WAT     H254174   9.661   5.955   4.912
17978WAT      O54175   9.854   4.202   7.657
17978WAT     H154176   9.952   4.214   7.642
17978WAT     H254177   9.831   4.105   7.649
17979WAT      O54178   9.255   0.166   4.901
17979WAT     H154179   9.210   0.080   4.874
17979WAT     H254180   9.224   0.192   4.992
17980WAT      O54181   4.872   2.656   1.101
17980WAT     H154182   4.949   2.606   1.061
17980WAT     H254183   4.899   2.693   1.190
17981WAT      O54184   4.712   4.597   6.148
17981WAT     H154185   4.772   4.623   6.224
17981WAT     H254186   4.680   4.679   6.101
17982WAT      O54187   3.690   5.821   5.553
17982WAT     H154188   3.632   5.825   5.635
17982WAT     H254189   3.783   5.793   5.579
17983WAT      O54190   4.087   7.793   4.487
17983WAT     H154191   4.051   7.881   4.456
17983WAT     H254192   4.091   7.730   4.409
17984WAT      O54193   9.832   7.511   6.476
17984WAT     H154194   9.851   7.572   6.399
17984WAT     H254195   9.878   7.423   6.461
17985WAT      O54196   7.801   0.175   7.350
17985WAT     H154197   7.897   0.161   7.327
17985WAT     H254198   7.754   0.086   7.351
17986WAT      O54199   1.946   1.423   1.680
17986WAT     H154200   1.882   1.479   1.627
17986WAT     H254201   1.987   1.478   1.753
17987WAT      O54202   5.133   5.605   2.985
17987WAT     H154203   5.183   5.686   2.954
17987WAT     H254204   5.173   5.572   3.070
17988WAT      O54205   4.061   6.452   0.113
17988WAT     H154206   4.105   6.364   0.098
17988WAT     H254207   4.010   6.479   0.031
17989WAT      O54208   4.801   7.538   2.031
17989WAT     H154209   4.738   7.488   1.972
17989WAT     H254210   4.850   7.606   1.977
17990WAT      O54211   7.531   0.387   8.823
17990WAT     H154212   7.585   0.362   8.903
17990WAT     H254213   7.478   0.307   8.793
17991WAT      O54214   8.876   7.025   6.986
17991WAT     H154215   8.805   6.963   7.020
17991WAT     H254216   8.916   6.988   6.902
17992WAT      O54217   8.671   8.997   5.400
17992WAT     H154218   8.600   8.958   5.458
17992WAT     H254219   8.667   9.097   5.405
17993WAT      O54220   2.684   5.507   5.159
17993WAT     H154221   2.756   5.439   5.167
17993WAT     H254222   2.617   5.493   5.232
17994WAT      O54223   5.835   1.150   5.171
17994WAT     H154224   5.758   1.090   5.146
17994WAT     H254225   5.834   1.231   5.113
17995WAT      O54226   8.978   8.129   5.145
17995WAT     H154227   8.925   8.093   5.221
17995WAT     H254228   8.942   8.218   5.118
17996WAT      O54229   4.145   3.716   6.323
17996WAT     H154230   4.172   3.694   6.229
17996WAT     H254231   4.125   3.814   6.329
17997WAT      O54232   4.902   8.511   5.521
17997WAT     H154233   4.904   8.412   5.535
17997WAT     H254234   4.808   8.540   5.503
17998WAT      O54235   0.572   0.819   0.565
17998WAT     H154236   0.639   0.826   0.638
17998WAT     H254237   0.482   0.797   0.604
17999WAT      O54238   6.315   5.086   4.352
17999WAT     H154239   6.378   5.049   4.284
17999WAT     H254240   6.342   5.053   4.443
18000WAT      O54241   7.247   0.108   4.003
18000WAT     H154242   7.339   0.148   4.012
18000WAT     H254243   7.204   0.101   4.093
18001WAT      O54244   1.743   7.122   3.686
18001WAT     H154245   1.725   7.025   3.703
18001WAT     H254246   1.779   7.164   3.769
18002WAT      O54247   2.244   9.641   1.488
18002WAT     H154248   2.287   9.703   1.554
18002WAT     H254249   2.307   9.623   1.413
18003WAT      O54250   3.234   8.547   9.853
18003WAT     H154251   3.172   8.623   9.871
18003WAT     H254252   3.310   8.578   9.796
18004WAT      O54253   4.771   1.748   9.504
18004WAT     H154254   4.678   1.756   9.539
18004WAT     H254255   4.772   1.769   9.407
18005WAT      O54256   9.636   7.159   0.056
18005WAT     H154257   9.728   7.154   0.017
18005WAT     H254258   9.638   7.213   0.140
18006WAT      O54259   9.230   1.465   5.621
18006WAT     H154260   9.257   1.438   5.528
18006WAT     H254261   9.280   1.547   5.648
18007WAT      O54262   9.292   3.402   7.510
18007WAT     H154263   9.314   3.373   7.604
18007WAT     H254264   9.376   3.405   7.456
18008WAT      O54265   8.216   7.591   7.620
18008WAT     H154266   8.181   7.536   7.544
18008WAT     H254267   8.143   7.604   7.687
18009WAT      O54268   9.338   9.750   1.748
18009WAT     H154269   9.321   9.747   1.847
18009WAT     H254270   9.262   9.706   1.700
18010WAT      O54271   1.272   0.909   4.194
18010WAT     H154272   1.191   0.921   4.252
18010WAT     H254273   1.340   0.979   4.217
18011WAT      O54274   8.399   4.360   5.643
18011WAT     H154275   8.338   4.435   5.619
18011WAT     H254276   8.400   4.348   5.742
18012WAT      O54277   7.762   0.368   2.573
18012WAT     H154278   7.847   0.328   2.607
18012WAT     H254279   7.751   0.460   2.610
18013WAT      O54280   6.666   6.242   2.422
18013WAT     H154281   6.634   6.331   2.389
18013WAT     H254282   6.628   6.224   2.513
18014WAT      O54283   4.126   4.746   5.889
18014WAT     H154284   4.140   4.845   5.887
18014WAT     H254285   4.176   4.707   5.966
18015WAT      O54286   1.372   0.958   1.117
18015WAT     H154287   1.320   0.873   1.128
18015WAT     H254288   1.402   0.991   1.206
18016WAT      O54289   8.970   4.640   2.700
18016WAT     H154290   8.876   4.610   2.716
18016WAT     H254291   8.999   4.700   2.775
18017WAT      O54292   8.833   5.384   6.754
18017WAT     H154293   8.885   5.389   6.668
18017WAT     H254294   8.836   5.290   6.788
18018WAT      O54295   2.936   3.918   2.458
18018WAT     H154296   2.916   3.834   2.407
18018WAT     H254297   2.856   3.977   2.457
18019WAT      O54298   9.828   7.627   6.729
18019WAT     H154299   9.733   7.618   6.760
18019WAT     H254300   9.834   7.606   6.632
18020WAT      O54301   0.971   0.876   6.825
18020WAT     H154302   0.943   0.780   6.818
18020WAT     H254303   1.014   0.891   6.914
18021WAT      O54304   8.718   2.909   5.862
18021WAT     H154305   8.677   2.912   5.771
18021WAT     H254306   8.789   2.838   5.865
18022WAT      O54307   3.381   4.661   7.358
18022WAT     H154308   3.327   4.621   7.284
18022WAT     H254309   3.455   4.599   7.383
18023WAT      O54310   2.535   0.681   1.446
18023WAT     H154311   2.608   0.630   1.402
18023WAT     H254312   2.473   0.717   1.376
18024WAT      O54313   1.331   7.491   5.743
18024WAT     H154314   1.286   7.439   5.816
18024WAT     H254315   1.262   7.518   5.675
18025WAT      O54316   4.230   2.677   8.654
18025WAT     H154317   4.323   2.671   8.619
18025WAT     H254318   4.180   2.593   8.631
18026WAT      O54319   5.677   9.654   2.260
18026WAT     H154320   5.680   9.565   2.306
18026WAT     H254321   5.762   9.704   2.280
18027WAT      O54322   9.387   1.060   2.622
18027WAT     H154323   9.485   1.049   2.638
18027WAT     H254324   9.371   1.067   2.523
18028WAT      O54325   0.702   5.514   4.758
18028WAT     H154326   0.727   5.554   4.670
18028WAT     H254327   0.620   5.558   4.794
18029WAT      O54328   8.542   4.698   6.866
18029WAT     H154329   8.565   4.792   6.839
18029WAT     H254330   8.480   4.700   6.944
18030WAT      O54331   8.343   6.394   9.262
18030WAT     H154332   8.244   6.403   9.269
18030WAT     H254333   8.386   6.484   9.269
18031WAT      O54334   6.145   2.707   1.354
18031WAT     H154335   6.226   2.761   1.378
18031WAT     H254336   6.082   2.704   1.432
18032WAT      O54337   3.526   4.562   5.739
18032WAT     H154338   3.473   4.647   5.736
18032WAT     H254339   3.521   4.522   5.831
18033WAT      O54340   1.411   1.923   4.177
18033WAT     H154341   1.383   1.912   4.272
18033WAT     H254342   1.468   1.845   4.150
18034WAT      O54343   1.114   9.062   5.264
18034WAT     H154344   1.115   8.965   5.242
18034WAT     H254345   1.160   9.114   5.192
18035WAT      O54346   8.186   4.105   4.268
18035WAT     H154347   8.116   4.083   4.335
18035WAT     H254348   8.276   4.079   4.304
18036WAT      O54349   9.073   0.208   9.610
18036WAT     H154350   9.068   0.165   9.520
18036WAT     H254351   9.132   0.289   9.605
18037WAT      O54352   1.617   4.950   3.655
18037WAT     H154353   1.553   5.026   3.663
18037WAT     H254354   1.708   4.985   3.633
18038WAT      O54355   8.167   8.193   8.069
18038WAT     H154356   8.160   8.161   8.163
18038WAT     H254357   8.180   8.115   8.008
18039WAT      O54358   8.746   8.507   9.629
18039WAT     H154359   8.769   8.436   9.563
18039WAT     H254360   8.819   8.575   9.632
18040WAT      O54361   1.908   4.573   6.213
18040WAT     H154362   1.983   4.631   6.180
18040WAT     H254363   1.943   4.507   6.279
18041WAT      O54364   0.861   5.403   4.065
18041WAT     H154365   0.767   5.420   4.035
18041WAT     H254366   0.860   5.333   4.136
18042WAT      O54367   5.566   7.547   5.307
18042WAT     H154368   5.528   7.533   5.398
18042WAT     H254369   5.506   7.503   5.239
18043WAT      O54370   9.817   9.476   4.397
18043WAT     H154371   9.734   9.487   4.452
18043WAT     H254372   9.799   9.506   4.304
18044WAT      O54373   1.612   2.463   2.438
18044WAT     H154374   1.686   2.396   2.435
18044WAT     H254375   1.530   2.424   2.397
18045WAT      O54376   2.067   1.259   4.398
18045WAT     H154377   2.063   1.268   4.298
18045WAT     H254378   2.157   1.226   4.425
18046WAT      O54379   3.140   3.449   0.365
18046WAT     H154380   3.239   3.456   0.355
18046WAT     H254381   3.113   3.353   0.361
18047WAT      O54382   6.526   7.788   3.732
18047WAT     H154383   6.597   7.847   3.770
18047WAT     H254384   6.518   7.706   3.788
18048WAT      O54385   2.957   9.079   1.780
18048WAT     H154386   2.895   9.151   1.811
18048WAT     H254387   2.933   8.993   1.825
18049WAT      O54388   2.613   3.894   2.823
18049WAT     H154389   2.576   3.891   2.730
18049WAT     H254390   2.713   3.891   2.820
18050WAT      O54391   4.636   9.709   6.197
18050WAT     H154392   4.615   9.667   6.109
18050WAT     H254393   4.551   9.724   6.248
18051WAT      O54394   5.039   6.657   1.616
18051WAT     H154395   4.949   6.614   1.622
18051WAT     H254396   5.064   6.668   1.519
18052WAT      O54397   1.767   6.619   1.582
18052WAT     H154398   1.769   6.617   1.682
18052WAT     H254399   1.801   6.532   1.546
18053WAT      O54400   9.285   4.624   6.951
18053WAT     H154401   9.344   4.610   7.030
18053WAT     H254402   9.201   4.672   6.980
18054WAT      O54403   5.458   0.350   5.442
18054WAT     H154404   5.373   0.299   5.429
18054WAT     H254405   5.529   0.313   5.383
18055WAT      O54406   7.479   5.040   5.767
18055WAT     H154407   7.563   5.032   5.819
18055WAT     H254408   7.497   5.089   5.681
18056WAT      O54409   2.010   1.684   5.390
18056WAT     H154410   2.104   1.700   5.359
18056WAT     H254411   1.982   1.760   5.449
18057WAT      O54412   1.250   3.665   7.347
18057WAT     H154413   1.275   3.632   7.256
18057WAT     H254414   1.217   3.589   7.403
18058WAT      O54415   1.051   0.347   3.269
18058WAT     H154416   1.067   0.371   3.174
18058WAT     H254417   1.111   0.271   3.295
18059WAT      O54418   3.570   8.632   9.314
18059WAT     H154419   3.547   8.729   9.316
18059WAT     H254420   3.667   8.621   9.335
18060WAT      O54421   8.589   5.630   6.460
18060WAT     H154422   8.684   5.640   6.431
18060WAT     H254423   8.580   5.547   6.515
18061WAT      O54424   9.229   3.770   7.681
18061WAT     H154425   9.244   3.681   7.724
18061WAT     H254426   9.151   3.815   7.724
18062WAT      O54427   0.386   9.162   3.386
18062WAT     H154428   0.446   9.215   3.446
18062WAT     H254429   0.340   9.091   3.440
18063WAT      O54430   9.475   9.515   2.750
18063WAT     H154431   9.496   9.538   2.655
18063WAT     H254432   9.537   9.564   2.810
18064WAT      O54433   5.404   3.710   6.750
18064WAT     H154434   5.459   3.792   6.763
18064WAT     H254435   5.365   3.682   6.837
18065WAT      O54436   5.355   0.057   9.486
18065WAT     H154437   5.276   0.022   9.536
18065WAT     H254438   5.368   0.153   9.508
18066WAT      O54439   8.176   8.048   1.242
18066WAT     H154440   8.178   7.949   1.231
18066WAT     H254441   8.241   8.075   1.313
18067WAT      O54442   6.494   8.687   0.284
18067WAT     H154443   6.439   8.604   0.300
18067WAT     H254444   6.585   8.674   0.322
18068WAT      O54445   9.644   9.621   8.044
18068WAT     H154446   9.670   9.545   8.104
18068WAT     H254447   9.626   9.702   8.100
18069WAT      O54448   5.167   6.021   3.090
18069WAT     H154449   5.206   6.107   3.121
18069WAT     H254450   5.079   6.006   3.136
18070WAT      O54451   6.114   1.681   6.533
18070WAT     H154452   6.213   1.695   6.535
18070WAT     H254453   6.069   1.767   6.509
18071WAT      O54454   9.755   9.673   0.667
18071WAT     H154455   9.671   9.726   0.656
18071WAT     H254456   9.732   9.577   0.682
18072WAT      O54457   4.037   5.985   3.907
18072WAT     H154458   3.999   6.077   3.897
18072WAT     H254459   4.136   5.989   3.898
18073WAT      O54460   4.233   9.264   0.286
18073WAT     H154461   4.191   9.194   0.227
18073WAT     H254462   4.166   9.336   0.304
18074WAT      O54463   9.776   4.464   4.750
18074WAT     H154464   9.876   4.459   4.758
18074WAT     H254465   9.737   4.372   4.759
18075WAT      O54466   1.738   4.070   4.404
18075WAT     H154467   1.738   3.984   4.455
18075WAT     H254468   1.650   4.080   4.356
18076WAT      O54469   0.838   3.191   4.967
18076WAT     H154470   0.754   3.141   4.944
18076WAT     H254471   0.829   3.231   5.058
18077WAT      O54472   7.834   8.598   6.671
18077WAT     H154473   7.788   8.542   6.740
18077WAT     H254474   7.872   8.680   6.715
18078WAT      O54475   5.685   3.436   5.147
18078WAT     H154476   5.627   3.377   5.202
18078WAT     H254477   5.746   3.380   5.091
18079WAT      O54478   0.055   8.019   7.948
18079WAT     H154479  -0.029   7.970   7.971
18079WAT     H254480   0.133   7.956   7.955
18080WAT      O54481   8.077   1.298   6.927
18080WAT     H154482   8.152   1.331   6.870
18080WAT     H254483   8.114   1.243   7.002
18081WAT      O54484   9.651   0.653   1.648
18081WAT     H154485   9.552   0.641   1.648
18081WAT     H254486   9.695   0.563   1.654
18082WAT      O54487   5.919   7.170   2.609
18082WAT     H154488   5.878   7.258   2.584
18082WAT     H254489   5.846   7.102   2.623
18083WAT      O54490   4.328   6.320   6.585
18083WAT     H154491   4.385   6.317   6.503
18083WAT     H254492   4.234   6.296   6.561
18084WAT      O54493   2.583   0.134   0.340
18084WAT     H154494   2.616   0.179   0.257
18084WAT     H254495   2.487   0.157   0.355
18085WAT      O54496   6.345   5.415   5.804
18085WAT     H154497   6.349   5.343   5.735
18085WAT     H254498   6.292   5.383   5.883
18086WAT      O54499   5.127   0.525   2.101
18086WAT     H154500   5.043   0.571   2.128
18086WAT     H254501   5.167   0.572   2.022
18087WAT      O54502   2.559   1.128   9.180
18087WAT     H154503   2.617   1.081   9.246
18087WAT     H254504   2.512   1.061   9.122
18088WAT      O54505   8.580   9.253   3.928
18088WAT     H154506   8.667   9.213   3.899
18088WAT     H254507   8.530   9.287   3.848
18089WAT      O54508   1.135   8.792   5.193
18089WAT     H154509   1.106   8.737   5.272
18089WAT     H254510   1.229   8.768   5.169
18090WAT      O54511   9.595   8.816   5.470
18090WAT     H154512   9.588   8.864   5.383
18090WAT     H254513   9.505   8.782   5.497
18091WAT      O54514   5.688   1.775   2.410
18091WAT     H154515   5.677   1.846   2.341
18091WAT     H254516   5.607   1.773   2.469
18092WAT      O54517   7.236   0.109   7.872
18092WAT     H154518   7.218   0.041   7.942
18092WAT     H254519   7.334   0.127   7.867
18093WAT      O54520   3.476   0.642   1.934
18093WAT     H154521   3.545   0.690   1.988
18093WAT     H254522   3.435   0.705   1.869
18094WAT      O54523   3.864   3.000   4.836
18094WAT     H154524   3.807   2.923   4.866
18094WAT     H254525   3.872   3.066   4.910
18095WAT      O54526   2.371   1.072   5.127
18095WAT     H154527   2.403   1.116   5.043
18095WAT     H254528   2.451   1.049   5.184
18096WAT      O54529   1.720   9.381   1.956
18096WAT     H154530   1.657   9.458   1.962
18096WAT     H254531   1.734   9.357   1.860
18097WAT      O54532   4.655   6.020   3.965
18097WAT     H154533   4.738   6.053   3.920
18097WAT     H254534   4.585   6.002   3.897
18098WAT      O54535   6.815   1.444   6.494
18098WAT     H154536   6.770   1.479   6.412
18098WAT     H254537   6.757   1.374   6.537
18099WAT      O54538   8.298   6.593   8.557
18099WAT     H154539   8.334   6.681   8.525
18099WAT     H254540   8.369   6.523   8.549
18100WAT      O54541   7.182   6.104   3.645
18100WAT     H154542   7.245   6.169   3.603
18100WAT     H254543   7.212   6.083   3.738
18101WAT      O54544   5.168   8.295   1.086
18101WAT     H154545   5.080   8.311   1.130
18101WAT     H254546   5.158   8.307   0.987
18102WAT      O54547   7.663   2.569   3.640
18102WAT     H154548   7.574   2.615   3.643
18102WAT     H254549   7.656   2.480   3.685
18103WAT      O54550   3.301   4.929   3.806
18103WAT     H154551   3.388   4.979   3.812
18103WAT     H254552   3.252   4.939   3.893
18104WAT      O54553   9.616   5.289   6.265
18104WAT     H154554   9.715   5.278   6.272
18104WAT     H254555   9.574   5.268   6.354
18105WAT      O54556   1.520   3.770   5.171
18105WAT     H154557   1.522   3.866   5.197
18105WAT     H254558   1.567   3.758   5.083
18106WAT      O54559   9.093   0.156   9.336
18106WAT     H154560   9.011   0.203   9.305
18106WAT     H254561   9.172   0.187   9.283
18107WAT      O54562   9.501   6.793   3.729
18107WAT     H154563   9.464   6.700   3.727
18107WAT     H254564   9.600   6.790   3.740
18108WAT      O54565   2.786   5.886   8.322
18108WAT     H154566   2.865   5.867   8.380
18108WAT     H254567   2.818   5.919   8.233
18109WAT      O54568   5.219   1.699   0.510
18109WAT     H154569   5.188   1.789   0.538
18109WAT     H254570   5.146   1.632   0.524
18110WAT      O54571   4.698   5.147   9.105
18110WAT     H154572   4.608   5.122   9.069
18110WAT     H254573   4.767   5.082   9.072
18111WAT      O54574   9.106   8.341   3.145
18111WAT     H154575   9.043   8.282   3.195
18111WAT     H254576   9.129   8.298   3.058
18112WAT      O54577   2.947   5.179   2.532
18112WAT     H154578   2.875   5.119   2.566
18112WAT     H254579   2.911   5.271   2.518
18113WAT      O54580   7.191   5.411   6.691
18113WAT     H154581   7.227   5.387   6.601
18113WAT     H254582   7.261   5.462   6.743
18114WAT      O54583   6.238   4.718   4.378
18114WAT     H154584   6.146   4.702   4.342
18114WAT     H254585   6.299   4.744   4.303
18115WAT      O54586   6.719   5.096   3.667
18115WAT     H154587   6.816   5.117   3.678
18115WAT     H254588   6.693   5.023   3.731
18116WAT      O54589   5.591   0.590   4.760
18116WAT     H154590   5.569   0.653   4.686
18116WAT     H254591   5.521   0.518   4.764
18117WAT      O54592   4.797   7.421   1.435
18117WAT     H154593   4.787   7.519   1.420
18117WAT     H254594   4.707   7.381   1.452
18118WAT      O54595   0.777   2.217   5.458
18118WAT     H154596   0.875   2.226   5.476
18118WAT     H254597   0.736   2.157   5.526
18119WAT      O54598   9.640   3.139   8.928
18119WAT     H154599   9.594   3.184   9.005
18119WAT     H254600   9.734   3.117   8.954
18120WAT      O54601   3.124   3.701   8.930
18120WAT     H154602   3.117   3.786   8.878
18120WAT     H254603   3.217   3.691   8.966
18121WAT      O54604   4.314   3.557   8.796
18121WAT     H154605   4.375   3.480   8.780
18121WAT     H254606   4.220   3.524   8.809
18122WAT      O54607   4.485   7.317   7.939
18122WAT     H154608   4.452   7.367   7.859
18122WAT     H254609   4.567   7.266   7.915
18123WAT      O54610   6.794   5.890   8.636
18123WAT     H154611   6.751   5.935   8.714
18123WAT     H254612   6.894   5.888   8.649
18124WAT      O54613   7.291   6.845   3.809
18124WAT     H154614   7.339   6.873   3.893
18124WAT     H254615   7.349   6.784   3.755
18125WAT      O54616   8.684   9.708   6.151
18125WAT     H154617   8.767   9.726   6.204
18125WAT     H254618   8.605   9.707   6.213
18126WAT      O54619   4.814   9.254   0.109
18126WAT     H154620   4.806   9.185   0.037
18126WAT     H254621   4.723   9.276   0.145
18127WAT      O54622   0.244   4.474   6.053
18127WAT     H154623   0.163   4.527   6.079
18127WAT     H254624   0.257   4.479   5.954
18128WAT      O54625   2.389   7.126   3.903
18128WAT     H154626   2.448   7.164   3.974
18128WAT     H254627   2.310   7.082   3.946
18129WAT      O54628   3.346   9.420   5.061
18129WAT     H154629   3.336   9.331   5.106
18129WAT     H254630   3.337   9.492   5.129
18130WAT      O54631   7.459   6.592   0.971
18130WAT     H154632   7.427   6.499   0.956
18130WAT     H254633   7.553   6.590   1.004
18131WAT      O54634   6.337   0.745   2.857
18131WAT     H154635   6.423   0.759   2.808
18131WAT     H254636   6.319   0.647   2.866
18132WAT      O54637   6.545   7.484   6.219
18132WAT     H154638   6.466   7.443   6.173
18132WAT     H254639   6.525   7.491   6.317
18133WAT      O54640   6.164   8.534   3.690
18133WAT     H154641   6.141   8.603   3.622
18133WAT     H254642   6.256   8.498   3.672
18134WAT      O54643   7.930   1.248   2.646
18134WAT     H154644   7.946   1.173   2.582
18134WAT     H254645   7.999   1.319   2.631
18135WAT      O54646   2.850   5.169   9.689
18135WAT     H154647   2.920   5.238   9.671
18135WAT     H254648   2.838   5.112   9.608
18136WAT      O54649   9.072   1.441   0.164
18136WAT     H154650   9.009   1.493   0.107
18136WAT     H254651   9.158   1.428   0.116
18137WAT      O54652   6.533   4.507   1.712
18137WAT     H154653   6.537   4.596   1.756
18137WAT     H254654   6.543   4.435   1.781
18138WAT      O54655   9.198   6.436   4.016
18138WAT     H154656   9.182   6.340   3.995
18138WAT     H254657   9.112   6.479   4.046
18139WAT      O54658   6.592   7.320   2.561
18139WAT     H154659   6.569   7.412   2.593
18139WAT     H254660   6.687   7.299   2.583
18140WAT      O54661   1.186   6.584   6.621
18140WAT     H154662   1.258   6.514   6.618
18140WAT     H254663   1.222   6.667   6.663
18141WAT      O54664   7.776   3.105   2.571
18141WAT     H154665   7.706   3.175   2.576
18141WAT     H254666   7.862   3.146   2.541
18142WAT      O54667   3.947   5.809   6.167
18142WAT     H154668   3.848   5.798   6.161
18142WAT     H254669   3.988   5.793   6.077
18143WAT      O54670   9.851   5.201   9.104
18143WAT     H154671   9.842   5.298   9.125
18143WAT     H254672   9.818   5.146   9.182
18144WAT      O54673   1.905   7.951   1.638
18144WAT     H154674   1.968   7.884   1.600
18144WAT     H254675   1.956   8.021   1.688
18145WAT      O54676   6.860   3.916   2.152
18145WAT     H154677   6.790   3.852   2.118
18145WAT     H254678   6.913   3.872   2.224
18146WAT      O54679   9.352   8.364   8.306
18146WAT     H154680   9.341   8.279   8.254
18146WAT     H254681   9.414   8.426   8.256
18147WAT      O54682   9.091   3.034   2.641
18147WAT     H154683   9.170   2.988   2.598
18147WAT     H254684   9.008   3.012   2.591
18148WAT      O54685   6.780   4.617   2.874
18148WAT     H154686   6.790   4.605   2.973
18148WAT     H254687   6.798   4.713   2.851
18149WAT      O54688   8.839   8.880   6.307
18149WAT     H154689   8.935   8.878   6.334
18149WAT     H254690   8.785   8.822   6.369
18150WAT      O54691   5.642   0.969   5.370
18150WAT     H154692   5.622   1.059   5.408
18150WAT     H254693   5.619   0.969   5.272
18151WAT      O54694   8.997   5.496   1.880
18151WAT     H154695   9.027   5.534   1.967
18151WAT     H254696   8.897   5.498   1.875
18152WAT      O54697   9.285   3.147   3.091
18152WAT     H154698   9.368   3.129   3.038
18152WAT     H254699   9.278   3.244   3.110
18153WAT      O54700   0.607   2.174   6.904
18153WAT     H154701   0.545   2.107   6.945
18153WAT     H254702   0.565   2.212   6.822
18154WAT      O54703   7.093   0.581   0.191
18154WAT     H154704   7.165   0.526   0.232
18154WAT     H254705   7.111   0.594   0.094
18155WAT      O54706   2.469   6.978   6.200
18155WAT     H154707   2.457   7.028   6.115
18155WAT     H254708   2.504   7.040   6.270
18156WAT      O54709   3.701   4.629   9.077
18156WAT     H154710   3.752   4.602   8.995
18156WAT     H254711   3.611   4.663   9.050
18157WAT      O54712   7.909   5.327   4.813
18157WAT     H154713   7.923   5.229   4.796
18157WAT     H254714   7.937   5.348   4.907
18158WAT      O54715   0.411   5.868   0.467
18158WAT     H154716   0.334   5.900   0.412
18158WAT     H254717   0.492   5.924   0.449
18159WAT      O54718   5.629   2.751   8.438
18159WAT     H154719   5.705   2.809   8.408
18159WAT     H254720   5.614   2.763   8.536
18160WAT      O54721   6.715   3.831   0.634
18160WAT     H154722   6.652   3.902   0.665
18160WAT     H254723   6.711   3.823   0.535
18161WAT      O54724   9.413   3.040   0.561
18161WAT     H154725   9.422   3.063   0.657
18161WAT     H254726   9.355   3.108   0.515
18162WAT      O54727   2.639   1.264   6.737
18162WAT     H154728   2.635   1.171   6.775
18162WAT     H254729   2.603   1.263   6.644
18163WAT      O54730   8.654   4.390   1.979
18163WAT     H154731   8.554   4.395   1.986
18163WAT     H254732   8.694   4.475   2.014
18164WAT      O54733   6.381   3.233   8.372
18164WAT     H154734   6.468   3.210   8.414
18164WAT     H254735   6.307   3.185   8.419
18165WAT      O54736   8.084   0.286   2.389
18165WAT     H154737   8.177   0.321   2.402
18165WAT     H254738   8.052   0.246   2.475
18166WAT      O54739   5.892   6.316   6.047
18166WAT     H154740   5.899   6.258   5.966
18166WAT     H254741   5.982   6.321   6.092
18167WAT      O54742   8.040   2.900   9.058
18167WAT     H154743   7.975   2.967   9.094
18167WAT     H254744   8.096   2.944   8.987
18168WAT      O54745   2.377   9.259   2.781
18168WAT     H154746   2.290   9.299   2.752
18168WAT     H254747   2.402   9.185   2.719
18169WAT      O54748   2.430   3.131   3.429
18169WAT     H154749   2.517   3.181   3.424
18169WAT     H254750   2.411   3.107   3.524
18170WAT      O54751   8.360   3.313   9.586
18170WAT     H154752   8.346   3.378   9.662
18170WAT     H254753   8.411   3.234   9.619
18171WAT      O54754   4.501   2.010   6.133
18171WAT     H154755   4.542   1.968   6.052
18171WAT     H254756   4.450   1.941   6.184
18172WAT      O54757   1.726   1.707   6.210
18172WAT     H154758   1.688   1.784   6.159
18172WAT     H254759   1.759   1.738   6.299
18173WAT      O54760   3.390   4.883   1.393
18173WAT     H154761   3.366   4.965   1.341
18173WAT     H254762   3.346   4.886   1.482
18174WAT      O54763   3.480   2.215   0.303
18174WAT     H154764   3.387   2.224   0.339
18174WAT     H254765   3.501   2.118   0.290
18175WAT      O54766   7.747   0.758   4.785
18175WAT     H154767   7.675   0.780   4.719
18175WAT     H254768   7.835   0.794   4.752
18176WAT      O54769   1.510   0.343   3.152
18176WAT     H154770   1.459   0.352   3.238
18176WAT     H254771   1.589   0.283   3.166
18177WAT      O54772   2.308   4.111   7.375
18177WAT     H154773   2.334   4.015   7.388
18177WAT     H254774   2.242   4.137   7.445
18178WAT      O54775   6.736   4.846   3.431
18178WAT     H154776   6.815   4.792   3.402
18178WAT     H254777   6.754   4.942   3.414
18179WAT      O54778   0.769   1.274   7.880
18179WAT     H154779   0.743   1.238   7.791
18179WAT     H254780   0.869   1.284   7.884
18180WAT      O54781   6.664   4.137   2.098
18180WAT     H154782   6.638   4.182   2.183
18180WAT     H254783   6.745   4.080   2.112
18181WAT      O54784   7.070   5.589   3.099
18181WAT     H154785   7.046   5.493   3.109
18181WAT     H254786   6.991   5.639   3.061
18182WAT      O54787   6.698   8.522   5.168
18182WAT     H154788   6.645   8.594   5.123
18182WAT     H254789   6.642   8.479   5.239
18183WAT      O54790   0.837   4.747   1.678
18183WAT     H154791   0.875   4.773   1.589
18183WAT     H254792   0.909   4.750   1.748
18184WAT      O54793   8.416   3.147   4.081
18184WAT     H154794   8.329   3.107   4.050
18184WAT     H254795   8.424   3.240   4.044
18185WAT      O54796   6.182   6.726   5.035
18185WAT     H154797   6.219   6.783   5.108
18185WAT     H254798   6.186   6.775   4.949
18186WAT      O54799   2.755   8.982   6.305
18186WAT     H154800   2.767   8.919   6.228
18186WAT     H254801   2.779   9.074   6.277
18187WAT      O54802   4.903   0.207   9.350
18187WAT     H154803   4.872   0.244   9.262
18187WAT     H254804   4.987   0.254   9.378
18188WAT      O54805   7.332   5.624   3.034
18188WAT     H154806   7.238   5.605   3.064
18188WAT     H254807   7.351   5.573   2.950
18189WAT      O54808   9.412   7.585   5.931
18189WAT     H154809   9.377   7.604   5.839
18189WAT     H254810   9.511   7.573   5.926
18190WAT      O54811   9.280   5.474   0.548
18190WAT     H154812   9.339   5.393   0.547
18190WAT     H254813   9.206   5.462   0.481
18191WAT      O54814   2.026   8.426   0.876
18191WAT     H154815   1.992   8.360   0.810
18191WAT     H254816   1.980   8.513   0.863
18192WAT      O54817   3.266   1.259   4.872
18192WAT     H154818   3.227   1.288   4.784
18192WAT     H254819   3.215   1.301   4.947
18193WAT      O54820   6.596   2.297   3.353
18193WAT     H154821   6.561   2.206   3.372
18193WAT     H254822   6.596   2.314   3.255
18194WAT      O54823   0.363   6.990   8.450
18194WAT     H154824   0.463   6.985   8.449
18194WAT     H254825   0.325   6.916   8.395
18195WAT      O54826   8.003   5.034   1.475
18195WAT     H154827   8.015   4.935   1.478
18195WAT     H254828   8.046   5.076   1.556
18196WAT      O54829   9.425   3.453   4.785
18196WAT     H154830   9.432   3.519   4.860
18196WAT     H254831   9.443   3.361   4.820
18197WAT      O54832   5.527   0.442   8.434
18197WAT     H154833   5.558   0.352   8.465
18197WAT     H254834   5.606   0.500   8.416
18198WAT      O54835   4.513   5.529   8.376
18198WAT     H154836   4.548   5.453   8.431
18198WAT     H254837   4.572   5.543   8.297
18199WAT      O54838   4.533   3.761   9.839
18199WAT     H154839   4.554   3.846   9.791
18199WAT     H254840   4.567   3.767   9.933
18200WAT      O54841   0.150   9.801   7.135
18200WAT     H154842   0.109   9.732   7.075
18200WAT     H254843   0.079   9.865   7.164
18201WAT      O54844   7.922   4.799   3.691
18201WAT     H154845   7.954   4.730   3.755
18201WAT     H254846   7.883   4.876   3.741
18202WAT      O54847   9.425   8.952   9.512
18202WAT     H154848   9.472   8.864   9.522
18202WAT     H254849   9.408   8.970   9.415
18203WAT      O54850   2.662   2.574   6.004
18203WAT     H154851   2.672   2.477   6.025
18203WAT     H254852   2.601   2.585   5.926
18204WAT      O54853   0.622   6.890   7.296
18204WAT     H154854   0.571   6.931   7.371
18204WAT     H254855   0.599   6.793   7.290
18205WAT      O54856   1.842   1.762   9.419
18205WAT     H154857   1.847   1.790   9.515
18205WAT     H254858   1.794   1.831   9.366
18206WAT      O54859   2.168   0.874   2.510
18206WAT     H154860   2.088   0.921   2.549
18206WAT     H254861   2.215   0.824   2.583
18207WAT      O54862   2.079   4.216   2.044
18207WAT     H154863   2.116   4.252   1.958
18207WAT     H254864   2.154   4.188   2.103
18208WAT      O54865   6.176   1.507   8.820
18208WAT     H154866   6.171   1.606   8.807
18208WAT     H254867   6.219   1.487   8.908
18209WAT      O54868   6.968   6.511   3.258
18209WAT     H154869   7.014   6.589   3.300
18209WAT     H254870   6.908   6.543   3.184
18210WAT      O54871   9.869   5.472   3.847
18210WAT     H154872   9.964   5.472   3.815
18210WAT     H254873   9.822   5.553   3.813
18211WAT      O54874   9.297   7.139   0.815
18211WAT     H154875   9.329   7.204   0.884
18211WAT     H254876   9.374   7.082   0.785
18212WAT      O54877   9.607   6.200   1.696
18212WAT     H154878   9.621   6.294   1.665
18212WAT     H254879   9.637   6.191   1.791
18213WAT      O54880   2.973   3.903   7.313
18213WAT     H154881   2.884   3.899   7.359
18213WAT     H254882   3.046   3.883   7.380
18214WAT      O54883   4.962   3.400   1.384
18214WAT     H154884   4.957   3.379   1.286
18214WAT     H254885   5.023   3.478   1.398
18215WAT      O54886   4.932   3.248   6.350
18215WAT     H154887   5.016   3.274   6.398
18215WAT     H254888   4.936   3.152   6.326
18216WAT      O54889   3.056   9.334   9.561
18216WAT     H154890   2.997   9.386   9.623
18216WAT     H254891   3.137   9.302   9.611
18217WAT      O54892   5.621   3.402   3.421
18217WAT     H154893   5.674   3.329   3.463
18217WAT     H254894   5.603   3.473   3.488
18218WAT      O54895   1.630   8.465   8.189
18218WAT     H154896   1.686   8.420   8.120
18218WAT     H254897   1.684   8.480   8.272
18219WAT      O54898   7.466   6.741   9.023
18219WAT     H154899   7.379   6.715   8.980
18219WAT     H254900   7.517   6.658   9.048
18220WAT      O54901   3.012   8.791   8.533
18220WAT     H154902   3.010   8.847   8.450
18220WAT     H254903   3.075   8.832   8.599
18221WAT      O54904   0.554   9.185   7.372
18221WAT     H154905   0.518   9.224   7.457
18221WAT     H254906   0.482   9.183   7.303
18222WAT      O54907   3.964   1.622   4.198
18222WAT     H154908   4.057   1.599   4.225
18222WAT     H254909   3.914   1.657   4.277
18223WAT      O54910   7.230   5.220   3.877
18223WAT     H154911   7.301   5.253   3.940
18223WAT     H254912   7.231   5.276   3.794
18224WAT      O54913   5.808   8.934   7.182
18224WAT     H154914   5.898   8.893   7.197
18224WAT     H254915   5.754   8.928   7.266
18225WAT      O54916   6.893   2.725   6.300
18225WAT     H154917   6.927   2.803   6.353
18225WAT     H254918   6.861   2.654   6.363
18226WAT      O54919   5.564   1.319   7.694
18226WAT     H154920   5.605   1.315   7.603
18226WAT     H254921   5.582   1.234   7.743
18227WAT      O54922   1.724   1.634   8.686
18227WAT     H154923   1.777   1.575   8.625
18227WAT     H254924   1.659   1.688   8.633
18228WAT      O54925   7.206   7.332   3.127
18228WAT     H154926   7.261   7.370   3.202
18228WAT     H254927   7.109   7.342   3.148
18229WAT      O54928   6.694   6.084   7.927
18229WAT     H154929   6.761   6.110   7.857
18229WAT     H254930   6.736   6.089   8.017
18230WAT      O54931   4.656   6.886   3.521
18230WAT     H154932   4.703   6.835   3.449
18230WAT     H254933   4.628   6.823   3.593
18231WAT      O54934   6.377   3.577   2.537
18231WAT     H154935   6.375   3.524   2.621
18231WAT     H254936   6.391   3.516   2.458
18232WAT      O54937   5.058   3.602   3.094
18232WAT     H154938   5.129   3.543   3.132
18232WAT     H254939   4.972   3.551   3.090
18233WAT      O54940   4.860   7.528   0.022
18233WAT     H154941   4.828   7.548   0.114
18233WAT     H254942   4.838   7.604  -0.039
18234WAT      O54943   8.505   0.505   4.633
18234WAT     H154944   8.405   0.510   4.623
18234WAT     H254945   8.547   0.577   4.577
18235WAT      O54946   1.259   3.973   8.296
18235WAT     H154947   1.299   4.061   8.271
18235WAT     H254948   1.300   3.941   8.381
18236WAT      O54949   2.715   2.409   0.375
18236WAT     H154950   2.712   2.401   0.475
18236WAT     H254951   2.811   2.413   0.345
18237WAT      O54952   6.032   8.922   4.303
18237WAT     H154953   6.057   8.825   4.310
18237WAT     H254954   5.962   8.932   4.232
18238WAT      O54955   4.629   7.921   6.287
18238WAT     H154956   4.629   7.824   6.313
18238WAT     H254957   4.687   7.972   6.350
18239WAT      O54958   8.474   6.663   6.948
18239WAT     H154959   8.428   6.580   6.917
18239WAT     H254960   8.487   6.725   6.870
18240WAT      O54961   2.221   9.772   0.716
18240WAT     H154962   2.225   9.867   0.684
18240WAT     H254963   2.199   9.770   0.813
18241WAT      O54964   2.755   1.688   3.532
18241WAT     H154965   2.738   1.739   3.448
18241WAT     H254966   2.780   1.751   3.605
18242WAT      O54967   0.254   0.712   4.483
18242WAT     H154968   0.289   0.618   4.493
18242WAT     H254969   0.211   0.722   4.393
18243WAT      O54970   5.034   9.552   3.433
18243WAT     H154971   5.040   9.452   3.431
18243WAT     H254972   4.938   9.579   3.436
18244WAT      O54973   6.494   7.988   2.937
18244WAT     H154974   6.574   7.929   2.925
18244WAT     H254975   6.455   8.010   2.848
18245WAT      O54976   5.837   8.950   0.228
18245WAT     H154977   5.937   8.952   0.226
18245WAT     H254978   5.802   8.911   0.143
18246WAT      O54979   7.767   6.929   5.188
18246WAT     H154980   7.785   6.842   5.233
18246WAT     H254981   7.853   6.967   5.154
18247WAT      O54982   7.417   0.069   3.643
18247WAT     H154983   7.358   0.149   3.634
18247WAT     H254984   7.471   0.077   3.727
18248WAT      O54985   1.296   1.515   2.248
18248WAT     H154986   1.304   1.559   2.159
18248WAT     H254987   1.387   1.496   2.284
18249WAT      O54988   0.368   4.845   8.227
18249WAT     H154989   0.284   4.796   8.203
18249WAT     H254990   0.431   4.841   8.150
18250WAT      O54991   9.617   0.904   4.209
18250WAT     H154992   9.627   0.903   4.309
18250WAT     H254993   9.536   0.851   4.184
18251WAT      O54994   9.323   5.217   5.729
18251WAT     H154995   9.316   5.180   5.637
18251WAT     H254996   9.294   5.148   5.795
18252WAT      O54997   2.689   4.732   9.340
18252WAT     H154998   2.720   4.826   9.328
18252WAT     H254999   2.740   4.672   9.279
18253WAT      O55000   3.871   1.845   8.340
18253WAT     H155001   3.940   1.869   8.272
18253WAT     H255002   3.816   1.769   8.306
18254WAT      O55003   6.212   8.197   6.929
18254WAT     H155004   6.294   8.244   6.964
18254WAT     H255005   6.150   8.177   7.005
18255WAT      O55006   2.823   5.438   6.811
18255WAT     H155007   2.894   5.384   6.765
18255WAT     H255008   2.844   5.535   6.801
18256WAT      O55009   0.997   8.955   1.199
18256WAT     H155010   0.963   8.972   1.106
18256WAT     H255011   0.930   8.900   1.249
18257WAT      O55012   0.349   4.614   8.898
18257WAT     H155013   0.290   4.622   8.817
18257WAT     H255014   0.428   4.674   8.887
18258WAT      O55015   5.372   4.638   6.570
18258WAT     H155016   5.298   4.592   6.618
18258WAT     H255017   5.430   4.686   6.635
18259WAT      O55018   9.380   6.565   0.271
18259WAT     H155019   9.285   6.546   0.292
18259WAT     H255020   9.385   6.630   0.195
18260WAT      O55021   6.080   8.043   0.418
18260WAT     H155022   6.095   7.946   0.400
18260WAT     H255023   6.090   8.060   0.516
18261WAT      O55024   8.697   3.072   0.824
18261WAT     H155025   8.744   3.030   0.902
18261WAT     H255026   8.599   3.072   0.841
18262WAT      O55027   9.274   1.332   4.416
18262WAT     H155028   9.288   1.382   4.501
18262WAT     H255029   9.351   1.270   4.401
18263WAT      O55030   2.420   2.562   0.878
18263WAT     H155031   2.491   2.510   0.926
18263WAT     H255032   2.332   2.515   0.888
18264WAT      O55033   1.332   2.243   1.009
18264WAT     H155034   1.308   2.224   1.104
18264WAT     H255035   1.280   2.322   0.977
18265WAT      O55036   3.374   9.147   6.379
18265WAT     H155037   3.438   9.204   6.327
18265WAT     H255038   3.282   9.154   6.340
18266WAT      O55039   4.246   3.355   2.465
18266WAT     H155040   4.252   3.273   2.409
18266WAT     H255041   4.150   3.378   2.480
18267WAT      O55042   1.643   0.789   3.998
18267WAT     H155043   1.628   0.714   4.063
18267WAT     H255044   1.629   0.756   3.905
18268WAT      O55045   0.471   1.733   4.544
18268WAT     H155046   0.386   1.691   4.576
18268WAT     H255047   0.504   1.798   4.612
18269WAT      O55048   5.435   0.826   0.097
18269WAT     H155049   5.436   0.786   0.189
18269WAT     H255050   5.366   0.898   0.094
18270WAT      O55051   7.265   7.160   7.613
18270WAT     H155052   7.299   7.089   7.551
18270WAT     H255053   7.249   7.244   7.562
18271WAT      O55054   3.611   4.869   6.273
18271WAT     H155055   3.694   4.908   6.315
18271WAT     H255056   3.637   4.813   6.194
18272WAT      O55057   9.848   7.524   7.346
18272WAT     H155058   9.773   7.547   7.284
18272WAT     H255059   9.897   7.445   7.310
18273WAT      O55060   9.282   2.343   9.091
18273WAT     H155061   9.247   2.435   9.072
18273WAT     H255062   9.335   2.344   9.175
18274WAT      O55063   4.672   4.079   3.121
18274WAT     H155064   4.710   4.068   3.213
18274WAT     H255065   4.592   4.021   3.111
18275WAT      O55066   0.705   0.329   5.462
18275WAT     H155067   0.750   0.316   5.551
18275WAT     H255068   0.613   0.289   5.466
18276WAT      O55069   4.267   3.848   5.415
18276WAT     H155070   4.294   3.764   5.463
18276WAT     H255071   4.324   3.859   5.333
18277WAT      O55072   5.962   1.019   9.220
18277WAT     H155073   6.053   1.036   9.181
18277WAT     H255074   5.924   0.935   9.181
18278WAT      O55075   7.314   3.354   9.530
18278WAT     H155076   7.282   3.412   9.605
18278WAT     H255077   7.257   3.271   9.526
18279WAT      O55078   6.041   4.705   5.794
18279WAT     H155079   6.046   4.725   5.696
18279WAT     H255080   6.033   4.790   5.846
18280WAT      O55081   9.016   1.441   2.784
18280WAT     H155082   9.105   1.477   2.755
18280WAT     H255083   8.948   1.515   2.784
18281WAT      O55084   8.374   1.937   7.014
18281WAT     H155085   8.322   2.017   6.984
18281WAT     H255086   8.463   1.937   6.970
18282WAT      O55087   3.744   6.452   7.825
18282WAT     H155088   3.712   6.434   7.732
18282WAT     H255089   3.666   6.453   7.887
18283WAT      O55090   1.964   4.389   3.440
18283WAT     H155091   1.982   4.467   3.501
18283WAT     H255092   2.001   4.306   3.481
18284WAT      O55093   0.046   3.222   9.308
18284WAT     H155094   0.019   3.285   9.235
18284WAT     H255095   0.060   3.274   9.392
18285WAT      O55096   3.269   7.484   0.264
18285WAT     H155097   3.296   7.389   0.248
18285WAT     H255098   3.327   7.545   0.210
18286WAT      O55099   0.844   5.106   2.092
18286WAT     H155100   0.781   5.059   2.031
18286WAT     H255101   0.791   5.155   2.162
18287WAT      O55102   8.872   5.460   0.805
18287WAT     H155103   8.777   5.488   0.820
18287WAT     H255104   8.917   5.526   0.744
18288WAT      O55105   0.659   6.206   6.654
18288WAT     H155106   0.625   6.118   6.686
18288WAT     H255107   0.759   6.209   6.660
18289WAT      O55108   4.317   4.928   3.592
18289WAT     H155109   4.320   5.025   3.618
18289WAT     H255110   4.318   4.871   3.674
18290WAT      O55111   0.076   2.242   6.532
18290WAT     H155112   0.145   2.171   6.541
18290WAT     H255113   0.116   2.322   6.488
18291WAT      O55114   6.819   1.788   8.421
18291WAT     H155115   6.773   1.736   8.349
18291WAT     H255116   6.856   1.725   8.489
18292WAT      O55117   2.886   2.103   8.138
18292WAT     H155118   2.911   2.152   8.221
18292WAT     H255119   2.931   2.014   8.137
18293WAT      O55120   9.165   8.154   3.934
18293WAT     H155121   9.109   8.235   3.915
18293WAT     H255122   9.121   8.073   3.895
18294WAT      O55123   6.089   5.951   2.964
18294WAT     H155124   6.113   5.978   3.057
18294WAT     H255125   5.998   5.986   2.942
18295WAT      O55126   9.071   0.378   4.738
18295WAT     H155127   9.021   0.465   4.746
18295WAT     H255128   9.028   0.309   4.795
18296WAT      O55129   0.087   3.604   6.525
18296WAT     H155130   0.131   3.639   6.442
18296WAT     H255131  -0.011   3.625   6.523
18297WAT      O55132   8.097   0.783   6.312
18297WAT     H155133   8.001   0.808   6.302
18297WAT     H255134   8.108   0.722   6.390
18298WAT      O55135   9.438   7.159   2.869
18298WAT     H155136   9.469   7.069   2.838
18298WAT     H255137   9.431   7.220   2.790
18299WAT      O55138   3.210   9.718   6.824
18299WAT     H155139   3.199   9.619   6.823
18299WAT     H255140   3.120   9.762   6.826
18300WAT      O55141   6.784   0.372   7.674
18300WAT     H155142   6.869   0.358   7.725
18300WAT     H255143   6.734   0.449   7.713
18301WAT      O55144   2.206   3.246   2.531
18301WAT     H155145   2.113   3.208   2.538
18301WAT     H255146   2.209   3.334   2.578
18302WAT      O55147   5.590   6.031   2.118
18302WAT     H155148   5.493   6.010   2.105
18302WAT     H255149   5.645   5.950   2.095
18303WAT      O55150   8.037   9.560   0.961
18303WAT     H155151   8.015   9.591   0.869
18303WAT     H255152   7.995   9.622   1.028
18304WAT      O55153   7.750   8.927   1.757
18304WAT     H155154   7.802   8.850   1.720
18304WAT     H255155   7.687   8.961   1.688
18305WAT      O55156   8.047   6.540   2.696
18305WAT     H155157   8.063   6.557   2.599
18305WAT     H255158   7.980   6.467   2.706
18306WAT      O55159   5.668   7.763   4.592
18306WAT     H155160   5.675   7.844   4.534
18306WAT     H255161   5.677   7.681   4.535
18307WAT      O55162   6.284   1.308   4.582
18307WAT     H155163   6.323   1.355   4.661
18307WAT     H255164   6.195   1.349   4.559
18308WAT      O55165   4.217   3.491   3.482
18308WAT     H155166   4.240   3.432   3.405
18308WAT     H255167   4.180   3.577   3.447
18309WAT      O55168   7.287   1.837   4.045
18309WAT     H155169   7.286   1.755   3.988
18309WAT     H255170   7.382   1.865   4.061
18310WAT      O55171   0.863   2.890   3.431
18310WAT     H155172   0.901   2.907   3.522
18310WAT     H255173   0.928   2.836   3.377
18311WAT      O55174   6.609   3.097   6.784
18311WAT     H155175   6.653   3.020   6.830
18311WAT     H255176   6.598   3.172   6.849
18312WAT      O55177   7.044   7.739   4.914
18312WAT     H155178   6.952   7.728   4.878
18312WAT     H255179   7.108   7.750   4.838
18313WAT      O55180   0.859   6.217   1.641
18313WAT     H155181   0.920   6.241   1.566
18313WAT     H255182   0.857   6.293   1.706
18314WAT      O55183   2.757   0.905   5.962
18314WAT     H155184   2.714   0.855   5.887
18314WAT     H255185   2.811   0.842   6.018
18315WAT      O55186   8.268   6.553   1.441
18315WAT     H155187   8.233   6.597   1.523
18315WAT     H255188   8.245   6.609   1.361
18316WAT      O55189   3.252   8.627   3.419
18316WAT     H155190   3.175   8.691   3.416
18316WAT     H255191   3.249   8.568   3.339
18317WAT      O55192   1.419   2.317   2.218
18317WAT     H155193   1.323   2.337   2.201
18317WAT     H255194   1.429   2.221   2.245
18318WAT      O55195   8.073   8.626   8.865
18318WAT     H155196   8.084   8.612   8.767
18318WAT     H255197   7.994   8.575   8.898
18319WAT      O55198   1.786   5.861   7.338
18319WAT     H155199   1.725   5.925   7.291
18319WAT     H255200   1.854   5.827   7.274
18320WAT      O55201   9.423   2.040   9.724
18320WAT     H155202   9.515   2.075   9.703
18320WAT     H255203   9.430   1.948   9.762
18321WAT      O55204   3.173   5.727   3.486
18321WAT     H155205   3.216   5.648   3.529
18321WAT     H255206   3.244   5.792   3.458
18322WAT      O55207   4.603   5.255   6.428
18322WAT     H155208   4.589   5.233   6.524
18322WAT     H255209   4.590   5.173   6.372
18323WAT      O55210   4.994   7.250   8.776
18323WAT     H155211   4.908   7.205   8.801
18323WAT     H255212   5.040   7.283   8.859
18324WAT      O55213   5.039   7.161   1.491
18324WAT     H155214   5.061   7.255   1.464
18324WAT     H255215   4.944   7.157   1.520
18325WAT      O55216   9.352   0.258   6.978
18325WAT     H155217   9.320   0.200   6.904
18325WAT     H255218   9.351   0.353   6.949
18326WAT      O55219   2.456   3.408   9.124
18326WAT     H155220   2.428   3.315   9.148
18326WAT     H255221   2.433   3.426   9.028
18327WAT      O55222   2.799   3.599   6.096
18327WAT     H155223   2.728   3.550   6.045
18327WAT     H255224   2.788   3.582   6.193
18328WAT      O55225   5.459   1.754   3.100
18328WAT     H155226   5.531   1.717   3.157
18328WAT     H255227   5.429   1.684   3.034
18329WAT      O55228   5.400   7.802   4.753
18329WAT     H155229   5.432   7.878   4.810
18329WAT     H255230   5.474   7.772   4.693
18330WAT      O55231   2.813   5.321   7.382
18330WAT     H155232   2.817   5.370   7.295
18330WAT     H255233   2.823   5.223   7.366
18331WAT      O55234   3.911   3.129   4.003
18331WAT     H155235   3.999   3.086   4.021
18331WAT     H255236   3.871   3.161   4.089
18332WAT      O55237   9.106   2.453   8.020
18332WAT     H155238   9.056   2.414   8.097
18332WAT     H255239   9.201   2.470   8.046
18333WAT      O55240   5.182   8.160   5.525
18333WAT     H155241   5.281   8.169   5.539
18333WAT     H255242   5.138   8.247   5.543
18334WAT      O55243   0.144   5.618   2.480
18334WAT     H155244   0.081   5.548   2.446
18334WAT     H255245   0.098   5.674   2.549
18335WAT      O55246   0.146   9.793   4.527
18335WAT     H155247   0.125   9.709   4.577
18335WAT     H255248   0.072   9.859   4.542
18336WAT      O55249   7.056   1.696   0.659
18336WAT     H155250   7.052   1.652   0.569
18336WAT     H255251   7.039   1.628   0.730
18337WAT      O55252   4.382   7.173   7.446
18337WAT     H155253   4.309   7.226   7.489
18337WAT     H255254   4.457   7.233   7.420
18338WAT      O55255   2.130   4.367   1.349
18338WAT     H155256   2.155   4.272   1.366
18338WAT     H255257   2.212   4.425   1.355
18339WAT      O55258   7.257   1.991   0.592
18339WAT     H155259   7.165   1.993   0.553
18339WAT     H255260   7.294   1.898   0.583
18340WAT      O55261   1.163   7.483   8.221
18340WAT     H155262   1.225   7.464   8.297
18340WAT     H255263   1.100   7.556   8.248
18341WAT      O55264   7.541   1.212   2.106
18341WAT     H155265   7.619   1.255   2.152
18341WAT     H255266   7.571   1.174   2.019
18342WAT      O55267   2.343   1.787   6.867
18342WAT     H155268   2.361   1.733   6.785
18342WAT     H255269   2.286   1.735   6.930
18343WAT      O55270   5.695   8.009   4.951
18343WAT     H155271   5.751   7.934   4.916
18343WAT     H255272   5.727   8.036   5.042
18344WAT      O55273   4.874   0.716   0.813
18344WAT     H155274   4.838   0.715   0.906
18344WAT     H255275   4.941   0.643   0.802
18345WAT      O55276   4.131   1.068   5.204
18345WAT     H155277   4.127   1.062   5.304
18345WAT     H255278   4.098   0.982   5.164
18346WAT      O55279   4.457   1.205   2.218
18346WAT     H155280   4.459   1.111   2.185
18346WAT     H255281   4.414   1.264   2.150
18347WAT      O55282   4.614   4.920   9.730
18347WAT     H155283   4.634   4.867   9.812
18347WAT     H255284   4.545   4.989   9.750
18348WAT      O55285   8.582   1.305   3.381
18348WAT     H155286   8.567   1.317   3.283
18348WAT     H255287   8.507   1.349   3.431
18349WAT      O55288   6.695   6.348   9.659
18349WAT     H155289   6.717   6.351   9.561
18349WAT     H255290   6.776   6.321   9.710
18350WAT      O55291   7.416   8.647   1.074
18350WAT     H155292   7.448   8.614   0.985
18350WAT     H255293   7.356   8.726   1.061
18351WAT      O55294   7.991   3.492   2.225
18351WAT     H155295   8.060   3.441   2.276
18351WAT     H255296   7.991   3.461   2.130
18352WAT      O55297   4.102   2.408   8.863
18352WAT     H155298   4.091   2.327   8.921
18352WAT     H255299   4.196   2.442   8.871
18353WAT      O55300   0.380   4.905   5.347
18353WAT     H155301   0.426   4.990   5.321
18353WAT     H255302   0.420   4.869   5.431
18354WAT      O55303   7.573   8.526   8.703
18354WAT     H155304   7.625   8.440   8.699
18354WAT     H255305   7.476   8.506   8.715
18355WAT      O55306   9.562   4.057   5.483
18355WAT     H155307   9.550   3.961   5.508
18355WAT     H255308   9.495   4.082   5.413
18356WAT      O55309   6.856   3.857   2.912
18356WAT     H155310   6.936   3.907   2.946
18356WAT     H255311   6.784   3.858   2.981
18357WAT      O55312   0.142   5.250   8.673
18357WAT     H155313   0.057   5.237   8.724
18357WAT     H255314   0.206   5.304   8.727
18358WAT      O55315   6.033   4.328   9.749
18358WAT     H155316   5.998   4.383   9.673
18358WAT     H255317   6.002   4.367   9.836
18359WAT      O55318   1.159   1.505   3.869
18359WAT     H155319   1.176   1.479   3.965
18359WAT     H255320   1.225   1.575   3.842
18360WAT      O55321   4.151   9.726   4.505
18360WAT     H155322   4.176   9.630   4.524
18360WAT     H255323   4.212   9.786   4.556
18361WAT      O55324   1.258   5.169   0.498
18361WAT     H155325   1.275   5.241   0.431
18361WAT     H255326   1.206   5.206   0.575
18362WAT      O55327   8.188   9.783   8.238
18362WAT     H155328   8.191   9.746   8.330
18362WAT     H255329   8.212   9.880   8.240
18363WAT      O55330   6.580   9.420   9.182
18363WAT     H155331   6.505   9.364   9.218
18363WAT     H255332   6.647   9.436   9.253
18364WAT      O55333   9.797   8.492   0.319
18364WAT     H155334   9.793   8.532   0.227
18364WAT     H255335   9.781   8.393   0.312
18365WAT      O55336   4.814   2.725   0.383
18365WAT     H155337   4.896   2.780   0.398
18365WAT     H255338   4.793   2.673   0.466
18366WAT      O55339   2.169   4.749   1.413
18366WAT     H155340   2.187   4.722   1.318
18366WAT     H255341   2.101   4.687   1.453
18367WAT      O55342   1.214   5.621   7.883
18367WAT     H155343   1.114   5.615   7.885
18367WAT     H255344   1.253   5.531   7.899
18368WAT      O55345   0.299   9.323   3.951
18368WAT     H155346   0.362   9.401   3.953
18368WAT     H255347   0.317   9.267   3.870
18369WAT      O55348   7.940   6.501   3.497
18369WAT     H155349   8.014   6.568   3.492
18369WAT     H255350   7.964   6.421   3.441
18370WAT      O55351   2.122   6.075   1.896
18370WAT     H155352   2.204   6.090   1.841
18370WAT     H255353   2.086   6.164   1.926
18371WAT      O55354   1.681   1.534   9.425
18371WAT     H155355   1.721   1.625   9.418
18371WAT     H255356   1.648   1.505   9.335
18372WAT      O55357   8.489   9.336   6.747
18372WAT     H155358   8.533   9.420   6.715
18372WAT     H255359   8.390   9.344   6.739
18373WAT      O55360   7.482   7.918   4.489
18373WAT     H155361   7.405   7.932   4.552
18373WAT     H255362   7.555   7.982   4.511
18374WAT      O55363   7.067   6.066   7.653
18374WAT     H155364   6.968   6.079   7.641
18374WAT     H255365   7.115   6.112   7.579
18375WAT      O55366   4.721   1.765   7.876
18375WAT     H155367   4.698   1.673   7.844
18375WAT     H255368   4.664   1.832   7.829
18376WAT      O55369   4.687   5.652   2.101
18376WAT     H155370   4.739   5.645   2.016
18376WAT     H255371   4.719   5.584   2.167
18377WAT      O55372   1.022   4.278   8.216
18377WAT     H155373   0.928   4.277   8.251
18377WAT     H255374   1.042   4.191   8.171
18378WAT      O55375   3.768   8.182   5.191
18378WAT     H155376   3.738   8.103   5.244
18378WAT     H255377   3.782   8.156   5.096
18379WAT      O55378   6.416   4.389   7.008
18379WAT     H155379   6.342   4.322   7.004
18379WAT     H255380   6.504   4.340   7.011
18380WAT      O55381   1.641   3.898   1.284
18380WAT     H155382   1.621   3.996   1.286
18380WAT     H255383   1.652   3.865   1.377
18381WAT      O55384   0.717   0.188   0.022
18381WAT     H155385   0.707   0.279  -0.019
18381WAT     H255386   0.712   0.119  -0.050
18382WAT      O55387   3.154   4.710   6.366
18382WAT     H155388   3.147   4.704   6.266
18382WAT     H255389   3.099   4.637   6.407
18383WAT      O55390   9.564   1.204   6.660
18383WAT     H155391   9.468   1.176   6.663
18383WAT     H255392   9.569   1.303   6.647
18384WAT      O55393   8.460   7.303   0.565
18384WAT     H155394   8.425   7.265   0.479
18384WAT     H255395   8.408   7.385   0.588
18385WAT      O55396   8.750   4.003   5.040
18385WAT     H155397   8.743   3.975   4.944
18385WAT     H255398   8.683   4.074   5.060
18386WAT      O55399   3.312   6.813   4.253
18386WAT     H155400   3.270   6.894   4.293
18386WAT     H255401   3.267   6.792   4.166
18387WAT      O55402   3.192   7.897   9.713
18387WAT     H155403   3.167   7.986   9.675
18387WAT     H255404   3.115   7.834   9.704
18388WAT      O55405   9.116   8.902   1.192
18388WAT     H155406   9.101   8.812   1.234
18388WAT     H255407   9.199   8.942   1.231
18389WAT      O55408   9.246   7.847   7.688
18389WAT     H155409   9.269   7.936   7.647
18389WAT     H255410   9.254   7.775   7.619
18390WAT      O55411   7.038   6.202   6.291
18390WAT     H155412   7.063   6.241   6.380
18390WAT     H255413   7.099   6.238   6.221
18391WAT      O55414   8.485   9.120   7.742
18391WAT     H155415   8.411   9.174   7.702
18391WAT     H255416   8.449   9.031   7.771
18392WAT      O55417   9.573   4.006   3.628
18392WAT     H155418   9.563   4.032   3.724
18392WAT     H255419   9.524   3.920   3.612
18393WAT      O55420   6.545   4.497   3.828
18393WAT     H155421   6.507   4.517   3.738
18393WAT     H255422   6.609   4.569   3.854
18394WAT      O55423   1.314   3.700   3.720
18394WAT     H155424   1.347   3.655   3.803
18394WAT     H255425   1.217   3.679   3.707
18395WAT      O55426   8.425   0.457   4.027
18395WAT     H155427   8.498   0.390   4.038
18395WAT     H255428   8.455   0.545   4.062
18396WAT      O55429   0.016   5.218   0.009
18396WAT     H155430   0.008   5.318   0.015
18396WAT     H255431   0.083   5.187   0.077
18397WAT      O55432   5.305   8.339   7.661
18397WAT     H155433   5.386   8.304   7.709
18397WAT     H255434   5.267   8.415   7.713
18398WAT      O55435   0.269   0.276   5.710
18398WAT     H155436   0.254   0.186   5.670
18398WAT     H255437   0.364   0.303   5.697
18399WAT      O55438   3.785   7.737   4.979
18399WAT     H155439   3.825   7.712   5.067
18399WAT     H255440   3.855   7.733   4.908
18400WAT      O55441   7.150   8.103   9.215
18400WAT     H155442   7.135   8.192   9.172
18400WAT     H255443   7.227   8.057   9.171
18401WAT      O55444   2.829   1.638   3.057
18401WAT     H155445   2.736   1.610   3.035
18401WAT     H255446   2.890   1.559   3.054
18402WAT      O55447   6.570   8.129   0.336
18402WAT     H155448   6.641   8.073   0.378
18402WAT     H255449   6.604   8.223   0.327
18403WAT      O55450   5.431   3.729   1.229
18403WAT     H155451   5.389   3.776   1.307
18403WAT     H255452   5.361   3.681   1.177
18404WAT      O55453   8.346   2.482   6.721
18404WAT     H155454   8.425   2.473   6.782
18404WAT     H255455   8.268   2.434   6.760
18405WAT      O55456   1.986   3.520   0.670
18405WAT     H155457   1.921   3.585   0.631
18405WAT     H255458   2.048   3.487   0.598
18406WAT      O55459   1.567   2.963   5.799
18406WAT     H155460   1.532   2.896   5.864
18406WAT     H255461   1.648   2.926   5.753
18407WAT      O55462   6.490   4.444   3.468
18407WAT     H155463   6.454   4.351   3.476
18407WAT     H255464   6.421   4.509   3.502
18408WAT      O55465   4.848   8.532   3.796
18408WAT     H155466   4.936   8.550   3.752
18408WAT     H255467   4.775   8.580   3.748
18409WAT      O55468   9.030   3.920   0.567
18409WAT     H155469   8.968   3.844   0.585
18409WAT     H255470   9.111   3.887   0.518
18410WAT      O55471   2.419   9.570   1.062
18410WAT     H155472   2.437   9.483   1.015
18410WAT     H255473   2.321   9.583   1.072
18411WAT      O55474   6.903   8.383   1.191
18411WAT     H155475   6.816   8.423   1.220
18411WAT     H255476   6.902   8.372   1.092
18412WAT      O55477   4.906   3.346   7.034
18412WAT     H155478   4.956   3.342   6.947
18412WAT     H255479   4.949   3.413   7.094
18413WAT      O55480   8.722   4.706   8.349
18413WAT     H155481   8.656   4.764   8.300
18413WAT     H255482   8.764   4.759   8.423
18414WAT      O55483   9.641   8.894   7.773
18414WAT     H155484   9.562   8.922   7.718
18414WAT     H255485   9.725   8.918   7.726
18415WAT      O55486   5.092   8.721   4.605
18415WAT     H155487   5.058   8.746   4.696
18415WAT     H255488   5.019   8.730   4.538
18416WAT      O55489   0.428   0.035   9.455
18416WAT     H155490   0.484  -0.023   9.515
18416WAT     H255491   0.443   0.131   9.478
18417WAT      O55492   2.856   0.199   6.103
18417WAT     H155493   2.943   0.152   6.119
18417WAT     H255494   2.845   0.215   6.005
18418WAT      O55495   4.113   8.348   2.376
18418WAT     H155496   4.205   8.376   2.404
18418WAT     H255497   4.059   8.430   2.356
18419WAT      O55498   6.263   6.913   0.064
18419WAT     H155499   6.289   6.910   0.160
18419WAT     H255500   6.331   6.966   0.013
18420WAT      O55501   2.531   5.478   5.395
18420WAT     H155502   2.436   5.484   5.425
18420WAT     H255503   2.591   5.491   5.474
18421WAT      O55504   9.301   1.126   6.726
18421WAT     H155505   9.289   1.105   6.629
18421WAT     H255506   9.234   1.195   6.754
18422WAT      O55507   4.233   3.434   2.876
18422WAT     H155508   4.176   3.466   2.800
18422WAT     H255509   4.237   3.505   2.947
18423WAT      O55510   3.868   7.600   4.103
18423WAT     H155511   3.867   7.697   4.078
18423WAT     H255512   3.801   7.584   4.176
18424WAT      O55513   9.232   4.953   5.574
18424WAT     H155514   9.181   5.035   5.548
18424WAT     H255515   9.269   4.910   5.492
18425WAT      O55516   9.072   8.927   6.009
18425WAT     H155517   9.150   8.966   5.960
18425WAT     H255518   9.043   8.843   5.963
18426WAT      O55519   6.842   2.765   4.784
18426WAT     H155520   6.861   2.714   4.700
18426WAT     H255521   6.760   2.728   4.828
18427WAT      O55522   5.948   8.137   5.372
18427WAT     H155523   5.926   8.071   5.444
18427WAT     H255524   6.007   8.209   5.409
18428WAT      O55525   7.375   8.401   7.523
18428WAT     H155526   7.382   8.327   7.590
18428WAT     H255527   7.432   8.478   7.552
18429WAT      O55528   4.577   7.054   8.145
18429WAT     H155529   4.498   7.041   8.205
18429WAT     H255530   4.656   7.084   8.199
18430WAT      O55531   0.316   2.942   4.989
18430WAT     H155532   0.383   3.009   5.021
18430WAT     H255533   0.224   2.977   5.004
18431WAT      O55534   0.702   8.422   4.897
18431WAT     H155535   0.743   8.344   4.945
18431WAT     H255536   0.681   8.495   4.962
18432WAT      O55537   1.351   0.387   2.949
18432WAT     H155538   1.341   0.480   2.913
18432WAT     H255539   1.436   0.381   3.002
18433WAT      O55540   7.779   8.393   7.035
18433WAT     H155541   7.872   8.406   7.001
18433WAT     H255542   7.768   8.299   7.066
18434WAT      O55543   7.697   3.057   1.486
18434WAT     H155544   7.616   3.102   1.448
18434WAT     H255545   7.772   3.123   1.490
18435WAT      O55546   4.553   1.569   8.787
18435WAT     H155547   4.461   1.609   8.794
18435WAT     H255548   4.548   1.483   8.735
18436WAT      O55549   4.964   6.117   1.206
18436WAT     H155550   4.986   6.030   1.250
18436WAT     H255551   4.930   6.100   1.113
18437WAT      O55552   0.679   1.362   4.904
18437WAT     H155553   0.765   1.348   4.953
18437WAT     H255554   0.689   1.437   4.840
18438WAT      O55555   5.413   5.984   0.386
18438WAT     H155556   5.454   5.958   0.473
18438WAT     H255557   5.475   5.961   0.311
18439WAT      O55558   4.969   8.971   3.310
18439WAT     H155559   4.929   8.879   3.302
18439WAT     H255560   4.986   8.992   3.406
18440WAT      O55561   2.243   0.448   9.869
18440WAT     H155562   2.274   0.437   9.963
18440WAT     H255563   2.308   0.505   9.819
18441WAT      O55564   0.904   0.821   2.767
18441WAT     H155565   0.839   0.749   2.791
18441WAT     H255566   0.862   0.884   2.701
18442WAT      O55567   7.599   7.692   6.521
18442WAT     H155568   7.512   7.729   6.552
18442WAT     H255569   7.614   7.715   6.425
18443WAT      O55570   9.662   4.010   4.636
18443WAT     H155571   9.661   3.932   4.698
18443WAT     H255572   9.568   4.040   4.619
18444WAT      O55573   7.044   5.972   2.039
18444WAT     H155574   7.113   6.009   1.976
18444WAT     H255575   6.955   5.968   1.992
18445WAT      O55576   0.448   0.088   9.164
18445WAT     H155577   0.434   0.078   9.262
18445WAT     H255578   0.451   0.185   9.139
18446WAT      O55579   3.223   7.835   0.825
18446WAT     H155580   3.209   7.809   0.920
18446WAT     H255581   3.204   7.933   0.813
18447WAT      O55582   6.305   2.903   7.405
18447WAT     H155583   6.306   2.899   7.305
18447WAT     H255584   6.274   2.994   7.434
18448WAT      O55585   1.774   5.365   5.872
18448WAT     H155586   1.826   5.304   5.812
18448WAT     H255587   1.822   5.374   5.959
18449WAT      O55588   1.146   5.317   3.625
18449WAT     H155589   1.233   5.319   3.575
18449WAT     H255590   1.111   5.410   3.634
18450WAT      O55591   6.625   4.735   6.098
18450WAT     H155592   6.616   4.743   5.999
18450WAT     H255593   6.677   4.652   6.120
18451WAT      O55594   0.906   3.862   5.550
18451WAT     H155595   0.816   3.846   5.592
18451WAT     H255596   0.950   3.941   5.593
18452WAT      O55597   8.199   8.015   0.788
18452WAT     H155598   8.237   8.067   0.711
18452WAT     H255599   8.204   8.070   0.871
18453WAT      O55600   6.842   5.810   0.310
18453WAT     H155601   6.861   5.908   0.302
18453WAT     H255602   6.901   5.760   0.246
18454WAT      O55603   8.263   8.271   9.608
18454WAT     H155604   8.355   8.310   9.601
18454WAT     H255605   8.251   8.201   9.538
18455WAT      O55606   8.653   7.779   8.034
18455WAT     H155607   8.580   7.714   8.017
18455WAT     H255608   8.616   7.861   8.078
18456WAT      O55609   5.698   8.901   1.216
18456WAT     H155610   5.772   8.927   1.153
18456WAT     H255611   5.720   8.932   1.308
18457WAT      O55612   9.598   7.058   5.044
18457WAT     H155613   9.519   7.119   5.041
18457WAT     H255614   9.574   6.970   5.003
18458WAT      O55615   4.551   7.106   6.846
18458WAT     H155616   4.590   7.196   6.826
18458WAT     H255617   4.566   7.046   6.768
18459WAT      O55618   1.509   4.187   1.559
18459WAT     H155619   1.556   4.102   1.583
18459WAT     H255620   1.500   4.244   1.640
18460WAT      O55621   9.579   4.926   4.091
18460WAT     H155622   9.663   4.978   4.075
18460WAT     H255623   9.534   4.907   4.004
18461WAT      O55624   5.323   0.062   7.039
18461WAT     H155625   5.287   0.155   7.032
18461WAT     H255626   5.284   0.005   6.967
18462WAT      O55627   5.675   1.797   1.850
18462WAT     H155628   5.676   1.740   1.932
18462WAT     H255629   5.708   1.744   1.772
18463WAT      O55630   2.987   1.856   6.612
18463WAT     H155631   2.923   1.901   6.673
18463WAT     H255632   2.944   1.776   6.571
18464WAT      O55633   6.504   6.887   2.461
18464WAT     H155634   6.503   6.787   2.464
18464WAT     H255635   6.441   6.923   2.530
18465WAT      O55636   6.337   7.693   5.547
18465WAT     H155637   6.359   7.635   5.625
18465WAT     H255638   6.418   7.744   5.519
18466WAT      O55639   8.483   3.013   8.353
18466WAT     H155640   8.407   3.030   8.416
18466WAT     H255641   8.447   3.002   8.260
18467WAT      O55642   5.331   8.243   9.341
18467WAT     H155643   5.392   8.272   9.267
18467WAT     H255644   5.383   8.189   9.408
18468WAT      O55645   0.973   2.646   2.523
18468WAT     H155646   1.048   2.586   2.496
18468WAT     H255647   0.903   2.645   2.452
18469WAT      O55648   4.968   8.071   9.370
18469WAT     H155649   4.973   8.001   9.298
18469WAT     H255650   5.048   8.065   9.429
18470WAT      O55651   0.093   9.791   3.195
18470WAT     H155652   0.018   9.726   3.208
18470WAT     H255653   0.094   9.823   3.100
18471WAT      O55654   5.553   3.202   0.205
18471WAT     H155655   5.518   3.292   0.181
18471WAT     H255656   5.606   3.208   0.290
18472WAT      O55657   9.672   6.516   4.454
18472WAT     H155658   9.668   6.593   4.390
18472WAT     H255659   9.628   6.436   4.414
18473WAT      O55660   5.108   9.214   6.247
18473WAT     H155661   5.024   9.179   6.290
18473WAT     H255662   5.187   9.166   6.284
18474WAT      O55663   8.476   3.003   2.450
18474WAT     H155664   8.529   2.994   2.366
18474WAT     H255665   8.407   2.931   2.453
18475WAT      O55666   2.870   3.527   6.540
18475WAT     H155667   2.941   3.486   6.483
18475WAT     H255668   2.797   3.460   6.555
18476WAT      O55669   4.243   9.335   8.134
18476WAT     H155670   4.253   9.253   8.078
18476WAT     H255671   4.233   9.415   8.076
18477WAT      O55672   7.177   2.490   3.279
18477WAT     H155673   7.232   2.409   3.257
18477WAT     H255674   7.231   2.554   3.333
18478WAT      O55675   2.575   6.829   5.435
18478WAT     H155676   2.527   6.761   5.380
18478WAT     H255677   2.523   6.846   5.519
18479WAT      O55678   7.454   8.566   2.801
18479WAT     H155679   7.373   8.625   2.803
18479WAT     H255680   7.445   8.500   2.727
18480WAT      O55681   4.074   3.422   1.436
18480WAT     H155682   4.108   3.441   1.528
18480WAT     H255683   3.981   3.458   1.426
18481WAT      O55684   1.167   3.570   4.826
18481WAT     H155685   1.197   3.579   4.920
18481WAT     H255686   1.166   3.473   4.800
18482WAT      O55687   6.951   1.608   4.307
18482WAT     H155688   6.999   1.688   4.342
18482WAT     H255689   6.867   1.594   4.359
18483WAT      O55690   6.196   2.544   4.608
18483WAT     H155691   6.128   2.471   4.619
18483WAT     H255692   6.180   2.592   4.522
18484WAT      O55693   8.469   1.119   3.840
18484WAT     H155694   8.535   1.068   3.786
18484WAT     H255695   8.379   1.113   3.797
18485WAT      O55696   9.394   0.969   5.893
18485WAT     H155697   9.326   0.941   5.961
18485WAT     H255698   9.485   0.973   5.936
18486WAT      O55699   6.310   4.457   6.224
18486WAT     H155700   6.265   4.520   6.161
18486WAT     H255701   6.246   4.430   6.296
18487WAT      O55702   2.990   8.092   1.448
18487WAT     H155703   2.915   8.114   1.511
18487WAT     H255704   3.052   8.029   1.493
18488WAT      O55705   2.624   0.502   2.751
18488WAT     H155706   2.608   0.404   2.765
18488WAT     H255707   2.584   0.530   2.663
18489WAT      O55708   2.448   0.919   2.469
18489WAT     H155709   2.497   0.869   2.398
18489WAT     H255710   2.352   0.930   2.443
18490WAT      O55711   4.012   1.169   2.805
18490WAT     H155712   3.950   1.107   2.756
18490WAT     H255713   4.052   1.234   2.740
18491WAT      O55714   0.901   2.931   9.792
18491WAT     H155715   0.833   2.902   9.860
18491WAT     H255716   0.869   3.015   9.748
18492WAT      O55717   3.982   4.836   7.308
18492WAT     H155718   4.022   4.883   7.387
18492WAT     H255719   3.916   4.897   7.264
18493WAT      O55720   4.349   4.792   2.091
18493WAT     H155721   4.340   4.874   2.035
18493WAT     H255722   4.259   4.760   2.119
18494WAT      O55723   0.067   4.796   4.532
18494WAT     H155724   0.153   4.847   4.540
18494WAT     H255725   0.009   4.817   4.611
18495WAT      O55726   4.738   4.471   2.158
18495WAT     H155727   4.835   4.447   2.160
18495WAT     H255728   4.696   4.447   2.246
18496WAT      O55729   9.655   7.859   3.597
18496WAT     H155730   9.644   7.877   3.695
18496WAT     H255731   9.603   7.778   3.572
18497WAT      O55732   0.130   8.840   3.828
18497WAT     H155733   0.153   8.882   3.916
18497WAT     H255734   0.191   8.763   3.811
18498WAT      O55735   4.857   5.765   1.529
18498WAT     H155736   4.769   5.720   1.544
18498WAT     H255737   4.856   5.856   1.572
18499WAT      O55738   4.568   7.748   9.872
18499WAT     H155739   4.634   7.787   9.936
18499WAT     H255740   4.550   7.653   9.896
18500WAT      O55741   0.648   2.926   9.288
18500WAT     H155742   0.578   2.948   9.356
18500WAT     H255743   0.645   2.828   9.268
18501WAT      O55744   7.349   7.955   9.093
18501WAT     H155745   7.440   7.983   9.122
18501WAT     H255746   7.337   7.973   8.995
18502WAT      O55747   2.226   9.348   1.830
18502WAT     H155748   2.178   9.287   1.892
18502WAT     H255749   2.277   9.416   1.882
18503WAT      O55750   6.501   7.240   5.558
18503WAT     H155751   6.475   7.257   5.654
18503WAT     H255752   6.508   7.326   5.509
18504WAT      O55753   7.787   0.942   4.164
18504WAT     H155754   7.778   1.021   4.225
18504WAT     H255755   7.845   0.873   4.208
18505WAT      O55756   1.185   5.000   5.188
18505WAT     H155757   1.272   5.012   5.236
18505WAT     H255758   1.110   5.006   5.254
18506WAT      O55759   9.234   1.388   8.583
18506WAT     H155760   9.305   1.441   8.628
18506WAT     H255761   9.144   1.427   8.606
18507WAT      O55762   2.537   1.328   2.089
18507WAT     H155763   2.633   1.312   2.067
18507WAT     H255764   2.480   1.261   2.042
18508WAT      O55765   8.609   0.658   5.231
18508WAT     H155766   8.511   0.662   5.251
18508WAT     H255767   8.661   0.680   5.314
18509WAT      O55768   0.239   0.364   7.992
18509WAT     H155769   0.259   0.355   7.895
18509WAT     H255770   0.152   0.319   8.013
18510WAT      O55771   9.699   5.433   7.617
18510WAT     H155772   9.703   5.342   7.575
18510WAT     H255773   9.782   5.449   7.670
18511WAT      O55774   0.369   7.182   4.781
18511WAT     H155775   0.395   7.252   4.848
18511WAT     H255776   0.446   7.120   4.765
18512WAT      O55777   0.992   6.560   9.349
18512WAT     H155778   1.054   6.521   9.281
18512WAT     H255779   1.031   6.547   9.440
18513WAT      O55780   8.777   4.672   3.021
18513WAT     H155781   8.747   4.621   2.941
18513WAT     H255782   8.845   4.740   2.993
18514WAT      O55783   6.845   7.227   8.850
18514WAT     H155784   6.870   7.299   8.915
18514WAT     H255785   6.751   7.197   8.869
18515WAT      O55786   0.928   9.020   0.956
18515WAT     H155787   0.946   9.117   0.947
18515WAT     H255788   0.864   8.991   0.884
18516WAT      O55789   4.813   2.998   5.378
18516WAT     H155790   4.816   2.898   5.373
18516WAT     H255791   4.800   3.026   5.473
18517WAT      O55792   4.828   8.281   3.248
18517WAT     H155793   4.855   8.193   3.210
18517WAT     H255794   4.817   8.348   3.174
18518WAT      O55795   8.539   6.275   5.455
18518WAT     H155796   8.532   6.185   5.497
18518WAT     H255797   8.526   6.267   5.356
18519WAT      O55798   6.981   6.474   8.473
18519WAT     H155799   6.910   6.428   8.527
18519WAT     H255800   7.025   6.545   8.529
18520WAT      O55801   0.803   1.237   9.071
18520WAT     H155802   0.742   1.288   9.010
18520WAT     H255803   0.753   1.206   9.151
18521WAT      O55804   2.170   8.140   2.739
18521WAT     H155805   2.229   8.159   2.661
18521WAT     H255806   2.169   8.220   2.799
18522WAT      O55807   6.161   8.299   5.996
18522WAT     H155808   6.218   8.218   5.983
18522WAT     H255809   6.137   8.308   6.092
18523WAT      O55810   3.335   1.088   0.435
18523WAT     H155811   3.241   1.069   0.463
18523WAT     H255812   3.398   1.040   0.496
18524WAT      O55813   8.749   7.829   0.543
18524WAT     H155814   8.718   7.757   0.481
18524WAT     H255815   8.709   7.916   0.515
18525WAT      O55816   6.842   5.744   9.269
18525WAT     H155817   6.780   5.666   9.259
18525WAT     H255818   6.799   5.814   9.325
18526WAT      O55819   0.051   2.791   2.899
18526WAT     H155820   0.012   2.726   2.833
18526WAT     H255821   0.133   2.832   2.860
18527WAT      O55822   3.665   6.568   0.849
18527WAT     H155823   3.570   6.542   0.831
18527WAT     H255824   3.692   6.640   0.784
18528WAT      O55825   1.566   5.102   3.344
18528WAT     H155826   1.526   5.061   3.262
18528WAT     H255827   1.552   5.201   3.343
18529WAT      O55828   8.114   7.775   1.200
18529WAT     H155829   8.186   7.718   1.160
18529WAT     H255830   8.073   7.727   1.277
18530WAT      O55831   1.810   7.246   8.580
18530WAT     H155832   1.748   7.277   8.653
18530WAT     H255833   1.803   7.307   8.502
18531WAT      O55834   3.005   3.225   9.070
18531WAT     H155835   2.938   3.212   8.996
18531WAT     H255836   3.009   3.142   9.126
18532WAT      O55837   9.712   5.064   1.821
18532WAT     H155838   9.651   5.068   1.900
18532WAT     H255839   9.781   4.993   1.837
18533WAT      O55840   9.437   7.393   6.961
18533WAT     H155841   9.378   7.461   7.003
18533WAT     H255842   9.498   7.354   7.030
18534WAT      O55843   5.924   3.018   0.260
18534WAT     H155844   5.947   3.023   0.357
18534WAT     H255845   5.954   3.102   0.214
18535WAT      O55846   5.723   9.062   0.429
18535WAT     H155847   5.751   9.014   0.345
18535WAT     H255848   5.716   8.996   0.504
18536WAT      O55849   3.023   2.876   2.751
18536WAT     H155850   3.004   2.797   2.808
18536WAT     H255851   3.080   2.848   2.673
18537WAT      O55852   2.971   8.131   4.248
18537WAT     H155853   3.005   8.125   4.342
18537WAT     H255854   3.047   8.118   4.184
18538WAT      O55855   9.368   9.596   8.440
18538WAT     H155856   9.353   9.683   8.485
18538WAT     H255857   9.364   9.608   8.341
18539WAT      O55858   9.382   6.911   9.670
18539WAT     H155859   9.362   6.941   9.576
18539WAT     H255860   9.303   6.862   9.706
18540WAT      O55861   4.542   2.501   4.751
18540WAT     H155862   4.467   2.551   4.793
18540WAT     H255863   4.619   2.497   4.815
18541WAT      O55864   1.780   7.915   0.579
18541WAT     H155865   1.846   7.988   0.599
18541WAT     H255866   1.829   7.828   0.574
18542WAT      O55867   2.093   7.630   4.458
18542WAT     H155868   2.167   7.677   4.409
18542WAT     H255869   2.122   7.536   4.479
18543WAT      O55870   1.237   4.090   1.536
18543WAT     H155871   1.333   4.086   1.564
18543WAT     H255872   1.196   4.175   1.567
18544WAT      O55873   9.185   5.175   4.436
18544WAT     H155874   9.097   5.156   4.393
18544WAT     H255875   9.231   5.249   4.387
18545WAT      O55876   0.110   6.464   7.378
18545WAT     H155877   0.141   6.380   7.334
18545WAT     H255878   0.033   6.502   7.326
18546WAT      O55879   7.085   1.334   6.075
18546WAT     H155880   7.129   1.423   6.063
18546WAT     H255881   7.121   1.290   6.158
18547WAT      O55882   6.336   0.171   3.153
18547WAT     H155883   6.354   0.138   3.060
18547WAT     H255884   6.315   0.269   3.150
18548WAT      O55885   1.052   8.731   4.894
18548WAT     H155886   1.003   8.649   4.866
18548WAT     H255887   1.150   8.720   4.874
18549WAT      O55888   1.117   6.156   0.785
18549WAT     H155889   1.027   6.180   0.821
18549WAT     H255890   1.170   6.110   0.856
18550WAT      O55891   5.917   0.414   9.361
18550WAT     H155892   5.985   0.341   9.372
18550WAT     H255893   5.938   0.466   9.278
18551WAT      O55894   0.198   4.458   7.414
18551WAT     H155895   0.240   4.549   7.414
18551WAT     H255896   0.107   4.464   7.372
18552WAT      O55897   1.207   8.241   5.568
18552WAT     H155898   1.180   8.157   5.615
18552WAT     H255899   1.247   8.219   5.479
18553WAT      O55900   3.903   4.208   2.837
18553WAT     H155901   3.916   4.175   2.743
18553WAT     H255902   3.857   4.296   2.835
18554WAT      O55903   5.761   4.994   6.921
18554WAT     H155904   5.795   5.060   6.988
18554WAT     H255905   5.664   4.979   6.935
18555WAT      O55906   5.904   3.198   7.702
18555WAT     H155907   5.998   3.230   7.712
18555WAT     H255908   5.897   3.137   7.623
18556WAT      O55909   3.505   7.030   0.027
18556WAT     H155910   3.552   7.106   0.070
18556WAT     H255911   3.539   7.018  -0.066
18557WAT      O55912   7.536   7.275   3.108
18557WAT     H155913   7.471   7.283   3.184
18557WAT     H255914   7.626   7.306   3.138
18558WAT      O55915   7.337   3.341   6.428
18558WAT     H155916   7.433   3.341   6.400
18558WAT     H255917   7.290   3.418   6.385
18559WAT      O55918   4.734   0.724   4.910
18559WAT     H155919   4.758   0.746   5.004
18559WAT     H255920   4.699   0.806   4.864
18560WAT      O55921   0.128   0.284   1.335
18560WAT     H155922   0.151   0.338   1.416
18560WAT     H255923   0.117   0.188   1.360
18561WAT      O55924   4.815   1.787   3.885
18561WAT     H155925   4.912   1.763   3.874
18561WAT     H255926   4.805   1.851   3.961
18562WAT      O55927   5.171   6.728   2.328
18562WAT     H155928   5.258   6.768   2.301
18562WAT     H255929   5.159   6.639   2.284
18563WAT      O55930   9.868   2.098   2.807
18563WAT     H155931   9.809   2.097   2.727
18563WAT     H255932   9.816   2.131   2.886
18564WAT      O55933   2.722   7.928   8.834
18564WAT     H155934   2.782   7.947   8.756
18564WAT     H255935   2.682   8.013   8.867
18565WAT      O55936   8.425   5.833   4.814
18565WAT     H155937   8.427   5.880   4.901
18565WAT     H255938   8.479   5.883   4.747
18566WAT      O55939   0.566   4.111   0.501
18566WAT     H155940   0.633   4.129   0.429
18566WAT     H255941   0.477   4.092   0.459
18567WAT      O55942   1.618   5.503   8.072
18567WAT     H155943   1.560   5.484   7.993
18567WAT     H255944   1.702   5.449   8.066
18568WAT      O55945   5.752   2.810   6.571
18568WAT     H155946   5.693   2.814   6.651
18568WAT     H255947   5.778   2.715   6.554
18569WAT      O55948   4.427   0.642   2.521
18569WAT     H155949   4.486   0.575   2.477
18569WAT     H255950   4.352   0.595   2.567
18570WAT      O55951   3.640   6.437   1.459
18570WAT     H155952   3.577   6.366   1.426
18570WAT     H255953   3.731   6.397   1.471
18571WAT      O55954   9.270   4.293   4.631
18571WAT     H155955   9.335   4.271   4.704
18571WAT     H255956   9.284   4.387   4.601
18572WAT      O55957   2.833   9.752   5.998
18572WAT     H155958   2.831   9.802   6.085
18572WAT     H255959   2.923   9.709   5.987
18573WAT      O55960   7.696   8.080   4.513
18573WAT     H155961   7.733   8.111   4.426
18573WAT     H255962   7.659   8.158   4.563
18574WAT      O55963   2.489   9.317   6.746
18574WAT     H155964   2.525   9.252   6.813
18574WAT     H255965   2.530   9.298   6.657
18575WAT      O55966   0.247   7.476   6.056
18575WAT     H155967   0.319   7.407   6.050
18575WAT     H255968   0.273   7.556   6.002
18576WAT      O55969   6.008   0.704   0.427
18576WAT     H155970   5.978   0.787   0.380
18576WAT     H255971   6.076   0.728   0.496
18577WAT      O55972   1.427   9.675   6.368
18577WAT     H155973   1.345   9.693   6.423
18577WAT     H255974   1.399   9.642   6.278
18578WAT      O55975   7.904   0.755   7.521
18578WAT     H155976   7.813   0.786   7.495
18578WAT     H255977   7.920   0.663   7.484
18579WAT      O55978   8.402   0.729   8.620
18579WAT     H155979   8.490   0.776   8.621
18579WAT     H255980   8.355   0.747   8.534
18580WAT      O55981   8.789   5.759   1.412
18580WAT     H155982   8.693   5.739   1.432
18580WAT     H255983   8.847   5.697   1.465
18581WAT      O55984   7.276   2.498   2.710
18581WAT     H155985   7.301   2.421   2.652
18581WAT     H255986   7.329   2.579   2.682
18582WAT      O55987   4.234   7.875   1.368
18582WAT     H155988   4.153   7.903   1.316
18582WAT     H255989   4.316   7.902   1.318
18583WAT      O55990   6.202   3.012   9.137
18583WAT     H155991   6.131   3.052   9.079
18583WAT     H255992   6.273   3.081   9.156
18584WAT      O55993   6.862   1.114   3.139
18584WAT     H155994   6.798   1.038   3.128
18584WAT     H255995   6.814   1.200   3.122
18585WAT      O55996   7.654   8.636   0.392
18585WAT     H155997   7.723   8.666   0.326
18585WAT     H255998   7.666   8.538   0.409
18586WAT      O55999   8.087   9.367   0.221
18586WAT     H156000   8.160   9.364   0.288
18586WAT     H256001   8.125   9.357   0.129
18587WAT      O56002   1.269   2.709   6.962
18587WAT     H156003   1.266   2.738   6.867
18587WAT     H256004   1.329   2.630   6.972
18588WAT      O56005   2.069   2.081   1.287
18588WAT     H156006   2.140   2.034   1.235
18588WAT     H256007   1.997   2.113   1.225
18589WAT      O56008   6.604   2.387   3.101
18589WAT     H156009   6.551   2.308   3.070
18589WAT     H256010   6.690   2.391   3.051
18590WAT      O56011   5.488   4.079   2.719
18590WAT     H156012   5.444   4.161   2.756
18590WAT     H256013   5.428   4.036   2.652
18591WAT      O56014   9.648   6.183   3.702
18591WAT     H156015   9.681   6.168   3.608
18591WAT     H256016   9.648   6.281   3.722
18592WAT      O56017   7.594   4.988   4.909
18592WAT     H156018   7.586   5.025   5.001
18592WAT     H256019   7.515   4.929   4.890
18593WAT      O56020   2.322   6.465   8.633
18593WAT     H156021   2.311   6.376   8.589
18593WAT     H256022   2.416   6.474   8.667
18594WAT      O56023   2.555   9.622   7.329
18594WAT     H156024   2.469   9.616   7.380
18594WAT     H256025   2.631   9.616   7.393
18595WAT      O56026   0.281   4.115   8.600
18595WAT     H156027   0.306   4.172   8.522
18595WAT     H256028   0.301   4.165   8.685
18596WAT      O56029   4.813   4.123   7.900
18596WAT     H156030   4.848   4.167   7.984
18596WAT     H256031   4.825   4.024   7.907
18597WAT      O56032   6.487   1.946   5.583
18597WAT     H156033   6.518   1.915   5.492
18597WAT     H256034   6.415   1.885   5.615
18598WAT      O56035   3.850   7.242   2.189
18598WAT     H156036   3.775   7.284   2.139
18598WAT     H256037   3.817   7.161   2.238
18599WAT      O56038   3.789   1.666   2.101
18599WAT     H156039   3.861   1.661   2.033
18599WAT     H256040   3.786   1.580   2.153
18600WAT      O56041   9.270   8.308   3.681
18600WAT     H156042   9.355   8.254   3.678
18600WAT     H256043   9.237   8.312   3.775
18601WAT      O56044   8.058   3.303   7.122
18601WAT     H156045   8.022   3.291   7.030
18601WAT     H256046   7.987   3.282   7.190
18602WAT      O56047   6.982   5.804   5.130
18602WAT     H156048   6.927   5.886   5.115
18602WAT     H256049   7.030   5.811   5.217
18603WAT      O56050   3.519   4.207   1.442
18603WAT     H156051   3.612   4.193   1.407
18603WAT     H256052   3.518   4.287   1.502
18604WAT      O56053   8.320   8.011   8.768
18604WAT     H156054   8.405   7.958   8.772
18604WAT     H256055   8.335   8.102   8.804
18605WAT      O56056   9.628   7.294   2.002
18605WAT     H156057   9.637   7.336   2.093
18605WAT     H256058   9.647   7.196   2.009
18606WAT      O56059   8.959   8.338   6.564
18606WAT     H156060   8.975   8.314   6.659
18606WAT     H256061   9.017   8.282   6.505
18607WAT      O56062   7.008   6.665   6.891
18607WAT     H156063   7.040   6.642   6.799
18607WAT     H256064   6.969   6.583   6.934
18608WAT      O56065   5.622   9.304   5.940
18608WAT     H156066   5.715   9.301   5.902
18608WAT     H256067   5.619   9.370   6.015
18609WAT      O56068   0.935   9.058   6.555
18609WAT     H156069   0.908   9.046   6.650
18609WAT     H256070   0.854   9.058   6.497
18610WAT      O56071   3.464   4.746   8.965
18610WAT     H156072   3.390   4.678   8.955
18610WAT     H256073   3.466   4.804   8.883
18611WAT      O56074   9.427   4.078   4.542
18611WAT     H156075   9.359   4.151   4.553
18611WAT     H256076   9.387   4.002   4.492
18612WAT      O56077   0.022   8.176   3.587
18612WAT     H156078  -0.025   8.164   3.675
18612WAT     H256079  -0.029   8.242   3.531
18613WAT      O56080   0.063   2.446   8.609
18613WAT     H156081  -0.012   2.511   8.621
18613WAT     H256082   0.057   2.404   8.518
18614WAT      O56083   4.321   8.732   5.234
18614WAT     H156084   4.418   8.707   5.234
18614WAT     H256085   4.303   8.793   5.157
18615WAT      O56086   7.456   7.524   0.870
18615WAT     H156087   7.434   7.612   0.827
18615WAT     H256088   7.395   7.509   0.948
18616WAT      O56089   7.533   0.352   6.865
18616WAT     H156090   7.576   0.261   6.864
18616WAT     H256091   7.461   0.356   6.796
18617WAT      O56092   1.578   9.062   6.849
18617WAT     H156093   1.479   9.061   6.855
18617WAT     H256094   1.607   9.144   6.799
18618WAT      O56095   4.447   4.633   5.837
18618WAT     H156096   4.502   4.553   5.858
18618WAT     H256097   4.394   4.659   5.917
18619WAT      O56098   0.854   4.404   6.358
18619WAT     H156099   0.927   4.371   6.298
18619WAT     H256100   0.853   4.350   6.442
18620WAT      O56101   6.706   7.012   9.075
18620WAT     H156102   6.787   6.969   9.035
18620WAT     H256103   6.668   7.078   9.010
18621WAT      O56104   2.017   6.274   8.645
18621WAT     H156105   1.981   6.359   8.683
18621WAT     H256106   1.961   6.247   8.566
18622WAT      O56107   5.545   8.862   2.441
18622WAT     H156108   5.527   8.906   2.529
18622WAT     H256109   5.498   8.774   2.438
18623WAT      O56110   1.843   2.571   4.172
18623WAT     H156111   1.827   2.481   4.132
18623WAT     H256112   1.785   2.638   4.126
18624WAT      O56113   4.307   1.654   0.094
18624WAT     H156114   4.210   1.679   0.093
18624WAT     H256115   4.331   1.608   0.009
18625WAT      O56116   3.897   2.431   1.273
18625WAT     H156117   3.958   2.453   1.349
18625WAT     H256118   3.859   2.339   1.286
18626WAT      O56119   9.304   8.203   7.085
18626WAT     H156120   9.271   8.246   7.169
18626WAT     H256121   9.389   8.154   7.104
18627WAT      O56122   6.145   0.199   6.927
18627WAT     H156123   6.054   0.199   6.967
18627WAT     H256124   6.165   0.290   6.888
18628WAT      O56125   4.271   9.319   8.833
18628WAT     H156126   4.355   9.372   8.845
18628WAT     H256127   4.293   9.221   8.835
18629WAT      O56128   0.174   8.120   7.563
18629WAT     H156129   0.256   8.174   7.583
18629WAT     H256130   0.168   8.103   7.464
18630WAT      O56131   1.239   3.618   7.831
18630WAT     H156132   1.214   3.666   7.915
18630WAT     H256133   1.262   3.523   7.852
18631WAT      O56134   8.064   0.749   4.533
18631WAT     H156135   8.110   0.833   4.506
18631WAT     H256136   8.003   0.767   4.610
18632WAT      O56137   3.793   8.076   4.908
18632WAT     H156138   3.838   7.991   4.936
18632WAT     H256139   3.845   8.119   4.834
18633WAT      O56140   9.157   4.480   3.352
18633WAT     H156141   9.193   4.421   3.280
18633WAT     H256142   9.078   4.531   3.318
18634WAT      O56143   4.939   5.712   0.032
18634WAT     H156144   4.899   5.685   0.120
18634WAT     H256145   4.880   5.781  -0.011
18635WAT      O56146   1.574   5.754   1.247
18635WAT     H156147   1.545   5.714   1.160
18635WAT     H256148   1.671   5.777   1.241
18636WAT      O56149   9.325   8.248   5.497
18636WAT     H156150   9.423   8.267   5.508
18636WAT     H256151   9.295   8.283   5.409
18637WAT      O56152   7.032   7.546   7.477
18637WAT     H156153   7.098   7.619   7.460
18637WAT     H256154   6.962   7.579   7.540
18638WAT      O56155   6.301   1.572   0.125
18638WAT     H156156   6.363   1.620   0.187
18638WAT     H256157   6.208   1.575   0.162
18639WAT      O56158   7.142   6.518   4.704
18639WAT     H156159   7.058   6.560   4.669
18639WAT     H256160   7.186   6.465   4.632
18640WAT      O56161   4.090   4.329   1.678
18640WAT     H156162   4.140   4.366   1.757
18640WAT     H256163   3.992   4.344   1.692
18641WAT      O56164   5.318   7.562   3.446
18641WAT     H156165   5.321   7.486   3.381
18641WAT     H256166   5.345   7.529   3.537
18642WAT      O56167   0.343   5.663   6.240
18642WAT     H156168   0.269   5.727   6.261
18642WAT     H256169   0.425   5.690   6.290
18643WAT      O56170   6.230   7.332   0.561
18643WAT     H156171   6.220   7.301   0.466
18643WAT     H256172   6.309   7.392   0.568
18644WAT      O56173   0.003   8.440   6.260
18644WAT     H156174  -0.060   8.470   6.332
18644WAT     H256175   0.095   8.473   6.281
18645WAT      O56176   7.104   3.674   9.180
18645WAT     H156177   7.185   3.676   9.122
18645WAT     H256178   7.024   3.704   9.128
18646WAT      O56179   5.277   4.604   7.613
18646WAT     H156180   5.366   4.611   7.659
18646WAT     H256181   5.234   4.694   7.612
18647WAT      O56182   6.518   4.181   8.657
18647WAT     H156183   6.615   4.189   8.683
18647WAT     H256184   6.461   4.217   8.731
18648WAT      O56185   6.019   9.589   8.005
18648WAT     H156186   6.116   9.613   8.001
18648WAT     H256187   5.964   9.673   8.003
18649WAT      O56188   9.681   0.115   0.970
18649WAT     H156189   9.671   0.209   1.002
18649WAT     H256190   9.595   0.085   0.928
18650WAT      O56191   1.394   7.695   4.884
18650WAT     H156192   1.491   7.685   4.865
18650WAT     H256193   1.364   7.787   4.857
18651WAT      O56194   0.803   8.429   3.802
18651WAT     H156195   0.872   8.464   3.867
18651WAT     H256196   0.822   8.333   3.783
18652WAT      O56197   9.112   1.450   8.271
18652WAT     H156198   9.157   1.365   8.242
18652WAT     H256199   9.014   1.445   8.249
18653WAT      O56200   0.434   4.030   1.534
18653WAT     H156201   0.398   4.011   1.625
18653WAT     H256202   0.410   4.124   1.508
18654WAT      O56203   9.429   7.322   3.098
18654WAT     H156204   9.385   7.273   3.023
18654WAT     H256205   9.453   7.414   3.069
18655WAT      O56206   6.725   4.533   5.635
18655WAT     H156207   6.696   4.580   5.718
18655WAT     H256208   6.665   4.560   5.559
18656WAT      O56209   6.887   7.836   9.731
18656WAT     H156210   6.875   7.736   9.730
18656WAT     H256211   6.849   7.873   9.816
18657WAT      O56212   8.594   0.266   7.192
18657WAT     H156213   8.542   0.303   7.115
18657WAT     H256214   8.533   0.213   7.251
18658WAT      O56215   7.463   4.464   8.609
18658WAT     H156216   7.459   4.377   8.657
18658WAT     H256217   7.495   4.535   8.671
18659WAT      O56218   2.305   6.553   3.777
18659WAT     H156219   2.259   6.469   3.748
18659WAT     H256220   2.273   6.579   3.868
18660WAT      O56221   4.427   5.525   0.686
18660WAT     H156222   4.387   5.479   0.765
18660WAT     H256223   4.444   5.621   0.709
18661WAT      O56224   2.739   3.249   6.511
18661WAT     H156225   2.671   3.177   6.496
18661WAT     H256226   2.829   3.208   6.524
18662WAT      O56227   0.340   9.412   4.643
18662WAT     H156228   0.241   9.425   4.646
18662WAT     H256229   0.364   9.356   4.563
18663WAT      O56230   8.927   1.262   0.773
18663WAT     H156231   8.947   1.190   0.707
18663WAT     H256232   8.903   1.346   0.725
18664WAT      O56233   7.528   3.680   9.749
18664WAT     H156234   7.457   3.732   9.701
18664WAT     H256235   7.488   3.597   9.789
18665WAT      O56236   2.375   0.475   9.591
18665WAT     H156237   2.331   0.536   9.525
18665WAT     H256238   2.443   0.419   9.545
18666WAT      O56239   4.467   6.793   1.506
18666WAT     H156240   4.392   6.857   1.484
18666WAT     H256241   4.552   6.828   1.467
18667WAT      O56242   6.803   8.901   5.601
18667WAT     H156243   6.752   8.868   5.521
18667WAT     H256244   6.880   8.840   5.618
18668WAT      O56245   8.426   6.242   1.961
18668WAT     H156246   8.464   6.286   2.042
18668WAT     H256247   8.331   6.271   1.949
18669WAT      O56248   5.322   6.086   3.497
18669WAT     H156249   5.393   6.038   3.445
18669WAT     H256250   5.258   6.020   3.536
18670WAT      O56251   8.050   9.006   4.413
18670WAT     H156252   8.054   8.910   4.385
18670WAT     H256253   8.091   9.017   4.504
18671WAT      O56254   8.055   8.092   0.387
18671WAT     H156255   8.025   8.075   0.293
18671WAT     H256256   8.022   8.019   0.447
18672WAT      O56257   1.758   8.853   4.689
18672WAT     H156258   1.757   8.952   4.707
18672WAT     H256259   1.735   8.804   4.773
18673WAT      O56260   4.727   6.162   7.769
18673WAT     H156261   4.680   6.103   7.834
18673WAT     H256262   4.731   6.116   7.680
18674WAT      O56263   9.461   0.153   1.268
18674WAT     H156264   9.386   0.124   1.327
18674WAT     H256265   9.425   0.210   1.195
18675WAT      O56266   3.735   0.821   4.580
18675WAT     H156267   3.651   0.834   4.632
18675WAT     H256268   3.795   0.757   4.629
18676WAT      O56269   5.019   7.092   2.450
18676WAT     H156270   5.095   7.064   2.508
18676WAT     H256271   5.050   7.162   2.385
18677WAT      O56272   5.946   9.306   8.759
18677WAT     H156273   5.883   9.360   8.814
18677WAT     H256274   5.920   9.312   8.662
18678WAT      O56275   3.198   6.359   0.467
18678WAT     H156276   3.180   6.267   0.501
18678WAT     H256277   3.164   6.367   0.373
18679WAT      O56278   2.820   5.981   8.064
18679WAT     H156279   2.779   5.956   7.976
18679WAT     H256280   2.796   6.076   8.086
18680WAT      O56281   8.945   9.259   8.173
18680WAT     H156282   8.868   9.197   8.154
18680WAT     H256283   8.940   9.290   8.268
18681WAT      O56284   0.795   3.487   8.263
18681WAT     H156285   0.796   3.566   8.325
18681WAT     H256286   0.877   3.432   8.278
18682WAT      O56287   0.383   3.611   9.442
18682WAT     H156288   0.295   3.604   9.489
18682WAT     H256289   0.392   3.703   9.402
18683WAT      O56290   7.607   6.558   3.440
18683WAT     H156291   7.643   6.518   3.524
18683WAT     H256292   7.675   6.622   3.402
18684WAT      O56293   0.160   1.211   4.182
18684WAT     H156294   0.116   1.129   4.145
18684WAT     H256295   0.181   1.197   4.279
18685WAT      O56296   7.532   4.581   0.223
18685WAT     H156297   7.510   4.507   0.159
18685WAT     H256298   7.621   4.563   0.265
18686WAT      O56299   8.987   0.522   2.757
18686WAT     H156300   8.928   0.597   2.788
18686WAT     H256301   9.020   0.542   2.665
18687WAT      O56302   3.472   1.459   6.332
18687WAT     H156303   3.500   1.491   6.423
18687WAT     H256304   3.375   1.436   6.334
18688WAT      O56305   0.437   9.308   7.593
18688WAT     H156306   0.397   9.250   7.662
18688WAT     H256307   0.371   9.377   7.564
18689WAT      O56308   7.073   4.274   5.816
18689WAT     H156309   7.063   4.183   5.857
18689WAT     H256310   6.991   4.296   5.764
18690WAT      O56311   0.222   8.170   1.656
18690WAT     H156312   0.176   8.244   1.704
18690WAT     H256313   0.154   8.114   1.608
18691WAT      O56314   9.424   6.170   0.534
18691WAT     H156315   9.444   6.241   0.602
18691WAT     H256316   9.485   6.092   0.549
18692WAT      O56317   0.827   9.424   9.377
18692WAT     H156318   0.921   9.407   9.348
18692WAT     H256319   0.827   9.474   9.464
18693WAT      O56320   7.479   6.222   9.181
18693WAT     H156321   7.420   6.227   9.261
18693WAT     H256322   7.441   6.156   9.116
18694WAT      O56323   7.173   6.608   1.487
18694WAT     H156324   7.231   6.670   1.540
18694WAT     H256325   7.209   6.600   1.394
18695WAT      O56326   7.430   1.559   0.821
18695WAT     H156327   7.454   1.623   0.893
18695WAT     H256328   7.366   1.491   0.856
18696WAT      O56329   2.790   6.929   7.199
18696WAT     H156330   2.883   6.960   7.183
18696WAT     H256331   2.735   7.003   7.237
18697WAT      O56332   2.677   5.238   9.882
18697WAT     H156333   2.581   5.257   9.860
18697WAT     H256334   2.727   5.219   9.798
18698WAT      O56335   3.695   9.731   7.218
18698WAT     H156336   3.684   9.792   7.296
18698WAT     H256337   3.610   9.730   7.164
18699WAT      O56338   4.977   1.715   1.100
18699WAT     H156339   5.066   1.755   1.122
18699WAT     H256340   4.913   1.732   1.176
18700WAT      O56341   4.232   0.833   8.033
18700WAT     H156342   4.150   0.842   7.976
18700WAT     H256343   4.210   0.779   8.115
18701WAT      O56344   4.036   0.061   5.886
18701WAT     H156345   3.997   0.107   5.966
18701WAT     H256346   4.076  -0.026   5.914
18702WAT      O56347   1.806   7.079   4.705
18702WAT     H156348   1.745   7.133   4.646
18702WAT     H256349   1.895   7.069   4.661
18703WAT      O56350   1.151   3.012   0.014
18703WAT     H156351   1.155   3.008   0.114
18703WAT     H256352   1.057   2.995  -0.016
18704WAT      O56353   8.830   8.080   4.754
18704WAT     H156354   8.926   8.101   4.732
18704WAT     H256355   8.805   7.993   4.711
18705WAT      O56356   3.768   8.551   8.242
18705WAT     H156357   3.692   8.521   8.185
18705WAT     H256358   3.732   8.589   8.328
18706WAT      O56359   0.928   3.022   7.906
18706WAT     H156360   0.963   3.115   7.921
18706WAT     H256361   0.831   3.026   7.882
18707WAT      O56362   4.451   8.181   2.463
18707WAT     H156363   4.384   8.240   2.508
18707WAT     H256364   4.465   8.099   2.518
18708WAT      O56365   8.982   1.491   4.309
18708WAT     H156366   8.984   1.422   4.236
18708WAT     H256367   9.071   1.495   4.354
18709WAT      O56368   2.634   5.668   3.575
18709WAT     H156369   2.552   5.610   3.584
18709WAT     H256370   2.675   5.681   3.665
18710WAT      O56371   5.469   3.992   8.449
18710WAT     H156372   5.376   3.996   8.413
18710WAT     H256373   5.467   3.971   8.546
18711WAT      O56374   3.619   6.515   8.545
18711WAT     H156375   3.653   6.454   8.473
18711WAT     H256376   3.531   6.481   8.579
18712WAT      O56377   4.291   6.792   1.978
18712WAT     H156378   4.314   6.871   2.034
18712WAT     H256379   4.373   6.759   1.930
18713WAT      O56380   4.167   0.539   2.591
18713WAT     H156381   4.069   0.559   2.600
18713WAT     H256382   4.179   0.467   2.522
18714WAT      O56383   3.824   8.684   1.023
18714WAT     H156384   3.811   8.594   0.984
18714WAT     H256385   3.773   8.752   0.969
18715WAT      O56386   0.987   7.733   7.256
18715WAT     H156387   0.962   7.637   7.261
18715WAT     H256388   1.080   7.742   7.222
18716WAT      O56389   7.733   9.464   1.069
18716WAT     H156390   7.658   9.398   1.078
18716WAT     H256391   7.736   9.523   1.150
18717WAT      O56392   4.394   7.910   2.605
18717WAT     H156393   4.438   7.962   2.679
18717WAT     H256394   4.421   7.814   2.612
18718WAT      O56395   4.238   7.557   9.697
18718WAT     H156396   4.285   7.572   9.610
18718WAT     H256397   4.226   7.459   9.712
18719WAT      O56398   0.354   6.885   0.056
18719WAT     H156399   0.361   6.808  -0.008
18719WAT     H256400   0.370   6.971   0.006
18720WAT      O56401   7.081   4.730   6.443
18720WAT     H156402   7.115   4.679   6.364
18720WAT     H256403   7.131   4.701   6.525
18721WAT      O56404   5.412   8.098   0.387
18721WAT     H156405   5.378   8.010   0.420
18721WAT     H256406   5.501   8.117   0.428
18722WAT      O56407   6.950   5.453   8.871
18722WAT     H156408   6.880   5.517   8.841
18722WAT     H256409   7.001   5.420   8.791
18723WAT      O56410   9.836   9.307   8.872
18723WAT     H156411   9.756   9.249   8.889
18723WAT     H256412   9.812   9.403   8.886
18724WAT      O56413   6.590   2.890   9.136
18724WAT     H156414   6.603   2.840   9.050
18724WAT     H256415   6.540   2.832   9.201
18725WAT      O56416   2.089   6.569   9.850
18725WAT     H156417   2.050   6.657   9.880
18725WAT     H256418   2.108   6.573   9.752
18726WAT      O56419   8.812   2.035   5.281
18726WAT     H156420   8.908   2.060   5.295
18726WAT     H256421   8.761   2.114   5.247
18727WAT      O56422   4.819   7.303   4.886
18727WAT     H156423   4.722   7.301   4.912
18727WAT     H256424   4.836   7.236   4.814
18728WAT      O56425   6.186   6.966   1.614
18728WAT     H156426   6.087   6.981   1.610
18728WAT     H256427   6.219   6.992   1.705
18729WAT      O56428   9.236   9.268   0.429
18729WAT     H156429   9.169   9.334   0.465
18729WAT     H256430   9.195   9.177   0.424
18730WAT      O56431   3.508   6.376   7.953
18730WAT     H156432   3.529   6.285   7.991
18730WAT     H256433   3.445   6.423   8.014
18731WAT      O56434   0.543   0.171   1.351
18731WAT     H156435   0.612   0.148   1.283
18731WAT     H256436   0.515   0.266   1.339
18732WAT      O56437   1.584   1.540   6.611
18732WAT     H156438   1.682   1.560   6.603
18732WAT     H256439   1.542   1.604   6.675
18733WAT      O56440   9.850   3.901   6.758
18733WAT     H156441   9.928   3.913   6.819
18733WAT     H256442   9.852   3.972   6.688
18734WAT      O56443   3.361   2.736   6.134
18734WAT     H156444   3.299   2.810   6.111
18734WAT     H256445   3.314   2.648   6.126
18735WAT      O56446   6.674   0.499   2.162
18735WAT     H156447   6.670   0.471   2.066
18735WAT     H256448   6.715   0.427   2.216
18736WAT      O56449   2.930   0.648   8.417
18736WAT     H156450   2.984   0.577   8.462
18736WAT     H256451   2.922   0.727   8.477
18737WAT      O56452   8.835   6.366   2.647
18737WAT     H156453   8.919   6.396   2.692
18737WAT     H256454   8.854   6.350   2.550
18738WAT      O56455   8.058   3.760   2.573
18738WAT     H156456   8.013   3.795   2.491
18738WAT     H256457   8.014   3.798   2.654
18739WAT      O56458   1.417   5.630   1.057
18739WAT     H156459   1.325   5.597   1.077
18739WAT     H256460   1.430   5.633   0.958
18740WAT      O56461   1.329   2.882   0.371
18740WAT     H156462   1.327   2.833   0.458
18740WAT     H256463   1.235   2.909   0.345
18741WAT      O56464   4.446   8.808   5.936
18741WAT     H156465   4.392   8.788   6.018
18741WAT     H256466   4.544   8.799   5.958
18742WAT      O56467   9.844   9.783   6.050
18742WAT     H156468   9.901   9.762   5.971
18742WAT     H256469   9.809   9.876   6.042
18743WAT      O56470   6.073   0.606   7.542
18743WAT     H156471   6.049   0.599   7.445
18743WAT     H256472   5.993   0.583   7.597
18744WAT      O56473   5.997   5.264   1.442
18744WAT     H156474   6.045   5.193   1.391
18744WAT     H256475   6.020   5.354   1.403
18745WAT      O56476   1.407   4.508   8.045
18745WAT     H156477   1.399   4.410   8.027
18745WAT     H256478   1.325   4.555   8.013
18746WAT      O56479   7.518   6.672   3.742
18746WAT     H156480   7.560   6.761   3.723
18746WAT     H256481   7.587   6.600   3.733
18747WAT      O56482   8.034   7.682   4.591
18747WAT     H156483   8.030   7.769   4.541
18747WAT     H256484   8.128   7.666   4.621
18748WAT      O56485   5.469   5.856   8.019
18748WAT     H156486   5.505   5.866   8.112
18748WAT     H256487   5.546   5.851   7.954
18749WAT      O56488   4.642   5.590   9.851
18749WAT     H156489   4.734   5.553   9.841
18749WAT     H256490   4.578   5.517   9.872
18750WAT      O56491   6.292   4.487   5.085
18750WAT     H156492   6.230   4.556   5.046
18750WAT     H256493   6.251   4.450   5.169
18751WAT      O56494   3.000   1.312   8.958
18751WAT     H156495   3.038   1.228   8.922
18751WAT     H256496   2.902   1.316   8.938
18752WAT      O56497   1.514   0.474   2.585
18752WAT     H156498   1.584   0.526   2.534
18752WAT     H256499   1.527   0.376   2.568
18753WAT      O56500   2.532   5.095   9.542
18753WAT     H156501   2.497   5.131   9.629
18753WAT     H256502   2.457   5.092   9.476
18754WAT      O56503   3.404   8.927   5.992
18754WAT     H156504   3.344   9.005   5.978
18754WAT     H256505   3.406   8.871   5.909
18755WAT      O56506   4.532   6.157   8.677
18755WAT     H156507   4.608   6.163   8.611
18755WAT     H256508   4.448   6.135   8.628
18756WAT      O56509   9.391   0.849   6.279
18756WAT     H156510   9.361   0.820   6.370
18756WAT     H256511   9.479   0.895   6.286
18757WAT      O56512   7.131   0.633   4.805
18757WAT     H156513   7.218   0.666   4.843
18757WAT     H256514   7.057   0.694   4.834
18758WAT      O56515   4.277   0.337   5.564
18758WAT     H156516   4.281   0.243   5.530
18758WAT     H256517   4.319   0.398   5.497
18759WAT      O56518   1.078   0.342   0.058
18759WAT     H156519   1.112   0.389   0.140
18759WAT     H256520   1.132   0.260   0.041
18760WAT      O56521   2.962   6.150   9.231
18760WAT     H156522   2.994   6.107   9.315
18760WAT     H256523   2.889   6.095   9.191
18761WAT      O56524   5.445   1.759   0.249
18761WAT     H156525   5.504   1.764   0.329
18761WAT     H256526   5.440   1.849   0.206
18762WAT      O56527   9.495   3.743   3.788
18762WAT     H156528   9.449   3.791   3.863
18762WAT     H256529   9.594   3.748   3.801
18763WAT      O56530   0.842   8.646   5.952
18763WAT     H156531   0.867   8.558   5.912
18763WAT     H256532   0.902   8.718   5.915
18764WAT      O56533   4.966   7.484   7.478
18764WAT     H156534   4.870   7.490   7.503
18764WAT     H256535   5.001   7.392   7.499
18765WAT      O56536   9.263   7.800   9.217
18765WAT     H156537   9.314   7.879   9.250
18765WAT     H256538   9.275   7.792   9.118
18766WAT      O56539   6.605   3.148   3.917
18766WAT     H156540   6.616   3.224   3.852
18766WAT     H256541   6.656   3.069   3.885
18767WAT      O56542   3.348   7.866   4.496
18767WAT     H156543   3.265   7.914   4.527
18767WAT     H256544   3.335   7.768   4.507
18768WAT      O56545   4.462   5.762   0.406
18768WAT     H156546   4.466   5.798   0.313
18768WAT     H256547   4.486   5.665   0.405
18769WAT      O56548   1.082   8.346   8.634
18769WAT     H156549   1.074   8.371   8.538
18769WAT     H256550   1.173   8.309   8.652
18770WAT      O56551   9.021   2.319   1.996
18770WAT     H156552   9.058   2.255   2.064
18770WAT     H256553   9.030   2.413   2.031
18771WAT      O56554   1.982   0.585   2.411
18771WAT     H156555   2.040   0.641   2.352
18771WAT     H256556   2.039   0.532   2.474
18772WAT      O56557   8.487   0.041   3.602
18772WAT     H156558   8.388   0.026   3.600
18772WAT     H256559   8.515   0.064   3.695
18773WAT      O56560   9.001   0.441   8.131
18773WAT     H156561   9.015   0.491   8.046
18773WAT     H256562   8.987   0.344   8.111
18774WAT      O56563   3.348   2.710   7.253
18774WAT     H156564   3.402   2.794   7.242
18774WAT     H256565   3.290   2.718   7.334
18775WAT      O56566   5.489   5.376   3.852
18775WAT     H156567   5.428   5.344   3.924
18775WAT     H256568   5.501   5.475   3.861
18776WAT      O56569   1.904   9.012   0.386
18776WAT     H156570   1.905   9.061   0.473
18776WAT     H256571   1.998   8.988   0.360
18777WAT      O56572   4.326   0.017   8.935
18777WAT     H156573   4.280   0.105   8.925
18777WAT     H256574   4.264  -0.056   8.907
18778WAT      O56575   6.624   6.858   4.636
18778WAT     H156576   6.525   6.872   4.638
18778WAT     H256577   6.644   6.761   4.626
18779WAT      O56578   2.785   1.233   8.581
18779WAT     H156579   2.881   1.261   8.590
18779WAT     H256580   2.777   1.164   8.509
18780WAT      O56581   6.435   7.720   3.486
18780WAT     H156582   6.351   7.670   3.465
18780WAT     H256583   6.444   7.732   3.585
18781WAT      O56584   3.688   6.032   0.434
18781WAT     H156585   3.675   6.119   0.483
18781WAT     H256586   3.603   5.978   0.441
18782WAT      O56587   2.160   1.336   7.513
18782WAT     H156588   2.092   1.278   7.557
18782WAT     H256589   2.223   1.372   7.582
18783WAT      O56590   2.189   0.022   4.286
18783WAT     H156591   2.232   0.110   4.266
18783WAT     H256592   2.174   0.014   4.385
18784WAT      O56593   8.912   1.922   9.149
18784WAT     H156594   8.959   2.010   9.153
18784WAT     H256595   8.969   1.851   9.190
18785WAT      O56596   5.306   9.121   1.504
18785WAT     H156597   5.291   9.127   1.603
18785WAT     H256598   5.219   9.138   1.457
18786WAT      O56599   5.959   7.058   0.589
18786WAT     H156600   5.887   7.088   0.651
18786WAT     H256601   6.045   7.047   0.640
18787WAT      O56602   3.734   8.316   0.641
18787WAT     H156603   3.694   8.371   0.567
18787WAT     H256604   3.820   8.358   0.671
18788WAT      O56605   3.847   2.262   6.415
18788WAT     H156606   3.766   2.247   6.359
18788WAT     H256607   3.840   2.350   6.462
18789WAT      O56608   3.105   1.684   5.096
18789WAT     H156609   3.101   1.704   5.194
18789WAT     H256610   3.012   1.677   5.060
18790WAT      O56611   4.073   7.448   1.620
18790WAT     H156612   4.102   7.492   1.535
18790WAT     H256613   4.122   7.488   1.697
18791WAT      O56614   3.859   2.909   8.346
18791WAT     H156615   3.897   2.958   8.268
18791WAT     H256616   3.934   2.867   8.398
18792WAT      O56617   5.504   4.331   0.568
18792WAT     H156618   5.520   4.308   0.472
18792WAT     H256619   5.459   4.420   0.574
18793WAT      O56620   3.594   2.193   3.040
18793WAT     H156621   3.683   2.188   2.994
18793WAT     H256622   3.533   2.125   3.001
18794WAT      O56623   4.122   8.718   0.988
18794WAT     H156624   4.161   8.794   0.936
18794WAT     H256625   4.031   8.697   0.953
18795WAT      O56626   6.224   5.643   3.579
18795WAT     H156627   6.292   5.625   3.508
18795WAT     H256628   6.189   5.736   3.569
18796WAT      O56629   2.093   8.438   5.131
18796WAT     H156630   2.015   8.491   5.164
18796WAT     H256631   2.060   8.362   5.075
18797WAT      O56632   5.561   8.564   6.873
18797WAT     H156633   5.631   8.627   6.906
18797WAT     H256634   5.533   8.590   6.781
18798WAT      O56635   0.136   2.756   0.166
18798WAT     H156636   0.168   2.707   0.247
18798WAT     H256637   0.049   2.800   0.186
18799WAT      O56638   9.363   4.212   4.185
18799WAT     H156639   9.308   4.174   4.110
18799WAT     H256640   9.303   4.233   4.262
18800WAT      O56641   8.400   2.416   6.477
18800WAT     H156642   8.416   2.502   6.429
18800WAT     H256643   8.362   2.435   6.568
18801WAT      O56644   3.813   0.188   0.470
18801WAT     H156645   3.751   0.148   0.538
18801WAT     H256646   3.760   0.234   0.399
18802WAT      O56647   2.765   4.953   9.121
18802WAT     H156648   2.721   4.913   9.041
18802WAT     H256649   2.727   5.043   9.139
18803WAT      O56650   9.641   6.985   9.653
18803WAT     H156651   9.653   7.063   9.592
18803WAT     H256652   9.545   6.978   9.680
18804WAT      O56653   8.327   8.435   8.878
18804WAT     H156654   8.313   8.383   8.963
18804WAT     H256655   8.277   8.521   8.882
18805WAT      O56656   2.291   3.295   6.406
18805WAT     H156657   2.212   3.348   6.438
18805WAT     H256658   2.278   3.271   6.310
18806WAT      O56659   0.854   4.012   5.147
18806WAT     H156660   0.920   3.953   5.193
18806WAT     H256661   0.779   4.033   5.210
18807WAT      O56662   0.299   7.289   8.369
18807WAT     H156663   0.227   7.305   8.302
18807WAT     H256664   0.315   7.190   8.377
18808WAT      O56665   9.774   8.166   8.198
18808WAT     H156666   9.708   8.233   8.233
18808WAT     H256667   9.860   8.175   8.247
18809WAT      O56668   9.154   8.854   9.578
18809WAT     H156669   9.097   8.919   9.628
18809WAT     H256670   9.246   8.891   9.568
18810WAT      O56671   6.728   8.732   6.490
18810WAT     H156672   6.755   8.742   6.586
18810WAT     H256673   6.744   8.638   6.460
18811WAT      O56674   3.793   8.925   5.496
18811WAT     H156675   3.870   8.984   5.472
18811WAT     H256676   3.824   8.831   5.505
18812WAT      O56677   3.761   2.019   9.529
18812WAT     H156678   3.770   1.952   9.455
18812WAT     H256679   3.669   2.014   9.567
18813WAT      O56680   0.752   4.883   5.455
18813WAT     H156681   0.829   4.843   5.505
18813WAT     H256682   0.668   4.870   5.508
18814WAT      O56683   4.358   5.449   3.859
18814WAT     H156684   4.358   5.388   3.938
18814WAT     H256685   4.268   5.490   3.849
18815WAT      O56686   2.699   7.782   5.140
18815WAT     H156687   2.792   7.786   5.103
18815WAT     H256688   2.702   7.746   5.233
18816WAT      O56689   8.311   5.111   3.964
18816WAT     H156690   8.288   5.100   4.061
18816WAT     H256691   8.235   5.078   3.908
18817WAT      O56692   6.756   7.430   3.800
18817WAT     H156693   6.765   7.369   3.721
18817WAT     H256694   6.776   7.379   3.883
18818WAT      O56695   5.483   3.472   7.774
18818WAT     H156696   5.507   3.568   7.770
18818WAT     H256697   5.444   3.444   7.685
18819WAT      O56698   8.982   8.474   8.406
18819WAT     H156699   8.928   8.393   8.428
18819WAT     H256700   8.939   8.555   8.447
18820WAT      O56701   1.070   0.316   7.046
18820WAT     H156702   1.072   0.371   7.129
18820WAT     H256703   1.111   0.367   6.971
18821WAT      O56704   9.133   1.911   7.563
18821WAT     H156705   9.091   1.923   7.653
18821WAT     H256706   9.062   1.911   7.492
18822WAT      O56707   0.625   4.333   2.665
18822WAT     H156708   0.591   4.425   2.682
18822WAT     H256709   0.707   4.338   2.608
18823WAT      O56710   8.233   0.404   9.344
18823WAT     H156711   8.188   0.363   9.424
18823WAT     H256712   8.313   0.457   9.375
18824WAT      O56713   5.267   2.454   3.704
18824WAT     H156714   5.210   2.508   3.642
18824WAT     H256715   5.295   2.511   3.782
18825WAT      O56716   8.622   4.674   3.884
18825WAT     H156717   8.614   4.773   3.873
18825WAT     H256718   8.544   4.640   3.937
18826WAT      O56719   8.947   3.129   3.387
18826WAT     H156720   8.903   3.070   3.319
18826WAT     H256721   9.024   3.080   3.429
18827WAT      O56722   1.596   7.489   4.577
18827WAT     H156723   1.520   7.516   4.517
18827WAT     H256724   1.682   7.506   4.530
18828WAT      O56725   1.019   7.617   8.668
18828WAT     H156726   0.929   7.623   8.710
18828WAT     H256727   1.089   7.630   8.739
18829WAT      O56728   1.392   3.439   2.711
18829WAT     H156729   1.393   3.519   2.651
18829WAT     H256730   1.452   3.368   2.674
18830WAT      O56731   4.084   1.402   4.539
18830WAT     H156732   4.065   1.330   4.472
18830WAT     H256733   4.138   1.474   4.496
18831WAT      O56734   7.566   9.347   7.113
18831WAT     H156735   7.481   9.295   7.104
18831WAT     H256736   7.546   9.445   7.110
18832WAT      O56737   0.456   2.880   2.588
18832WAT     H156738   0.542   2.829   2.596
18832WAT     H256739   0.411   2.856   2.502
18833WAT      O56740   7.274   7.512   9.098
18833WAT     H156741   7.272   7.606   9.134
18833WAT     H256742   7.368   7.479   9.096
18834WAT      O56743   8.015   7.097   0.812
18834WAT     H156744   8.050   7.154   0.738
18834WAT     H256745   7.931   7.136   0.848
18835WAT      O56746   1.424   0.633   7.686
18835WAT     H156747   1.342   0.681   7.653
18835WAT     H256748   1.407   0.535   7.685
18836WAT      O56749   3.281   7.079   9.335
18836WAT     H156750   3.246   7.009   9.273
18836WAT     H256751   3.279   7.044   9.429
18837WAT      O56752   4.284   6.629   8.373
18837WAT     H156753   4.381   6.629   8.399
18837WAT     H256754   4.268   6.702   8.306
18838WAT      O56755   7.328   8.935   8.037
18838WAT     H156756   7.307   8.903   8.129
18838WAT     H256757   7.248   8.926   7.979
18839WAT      O56758   3.103   7.995   6.079
18839WAT     H156759   3.179   8.047   6.039
18839WAT     H256760   3.016   8.038   6.052
18840WAT      O56761   7.859   8.773   0.228
18840WAT     H156762   7.920   8.715   0.174
18840WAT     H256763   7.906   8.858   0.250
18841WAT      O56764   5.002   9.425   3.918
18841WAT     H156765   5.016   9.377   4.005
18841WAT     H256766   5.058   9.507   3.916
18842WAT      O56767   4.382   1.765   6.318
18842WAT     H156768   4.383   1.696   6.245
18842WAT     H256769   4.474   1.773   6.357
18843WAT      O56770   5.416   6.968   4.035
18843WAT     H156771   5.495   6.930   3.988
18843WAT     H256772   5.352   6.895   4.057
18844WAT      O56773   8.770   0.087   3.369
18844WAT     H156774   8.670   0.078   3.374
18844WAT     H256775   8.811   0.040   3.447
18845WAT      O56776   5.857   4.321   5.235
18845WAT     H156777   5.917   4.340   5.157
18845WAT     H256778   5.888   4.239   5.283
18846WAT      O56779   4.997   8.079   1.702
18846WAT     H156780   5.056   8.045   1.776
18846WAT     H256781   5.011   8.177   1.691
18847WAT      O56782   5.421   9.579   5.917
18847WAT     H156783   5.487   9.517   5.959
18847WAT     H256784   5.359   9.527   5.859
18848WAT      O56785   5.165   3.996   9.343
18848WAT     H156786   5.204   3.979   9.252
18848WAT     H256787   5.184   3.917   9.402
18849WAT      O56788   6.122   6.667   1.776
18849WAT     H156789   6.140   6.684   1.680
18849WAT     H256790   6.084   6.749   1.818
18850WAT      O56791   4.627   2.549   7.030
18850WAT     H156792   4.632   2.603   7.114
18850WAT     H256793   4.612   2.453   7.053
18851WAT      O56794   3.389   3.489   3.604
18851WAT     H156795   3.426   3.556   3.540
18851WAT     H256796   3.451   3.410   3.609
18852WAT      O56797   0.448   2.645   7.944
18852WAT     H156798   0.385   2.586   7.994
18852WAT     H256799   0.477   2.721   8.002
18853WAT      O56800   9.587   3.456   3.248
18853WAT     H156801   9.579   3.556   3.247
18853WAT     H256802   9.564   3.422   3.339
18854WAT      O56803   9.447   0.555   8.490
18854WAT     H156804   9.429   0.528   8.395
18854WAT     H256805   9.390   0.501   8.551
18855WAT      O56806   3.699   3.138   6.328
18855WAT     H156807   3.637   3.209   6.362
18855WAT     H256808   3.705   3.142   6.229
18856WAT      O56809   4.062   3.866   4.800
18856WAT     H156810   3.966   3.878   4.773
18856WAT     H256811   4.117   3.842   4.720
18857WAT      O56812   1.511   5.977   1.864
18857WAT     H156813   1.446   5.904   1.845
18857WAT     H256814   1.551   6.009   1.778
18858WAT      O56815   6.095   8.661   4.372
18858WAT     H156816   6.148   8.708   4.443
18858WAT     H256817   6.131   8.568   4.361
18859WAT      O56818   1.800   4.911   3.329
18859WAT     H156819   1.821   4.948   3.238
18859WAT     H256820   1.715   4.952   3.363
18860WAT      O56821   5.502   6.865   4.627
18860WAT     H156822   5.435   6.918   4.677
18860WAT     H256823   5.508   6.898   4.533
18861WAT      O56824   8.750   0.561   3.725
18861WAT     H156825   8.798   0.586   3.641
18861WAT     H256826   8.797   0.484   3.768
18862WAT      O56827   0.796   6.104   0.416
18862WAT     H156828   0.847   6.170   0.472
18862WAT     H256829   0.861   6.047   0.365
18863WAT      O56830   3.906   5.504   7.487
18863WAT     H156831   3.969   5.580   7.470
18863WAT     H256832   3.955   5.417   7.476
18864WAT      O56833   9.214   4.663   6.143
18864WAT     H156834   9.196   4.605   6.064
18864WAT     H256835   9.128   4.699   6.178
18865WAT      O56836   6.865   6.830   4.797
18865WAT     H156837   6.793   6.857   4.733
18865WAT     H256838   6.837   6.748   4.847
18866WAT      O56839   8.819   9.243   1.612
18866WAT     H156840   8.860   9.209   1.528
18866WAT     H256841   8.845   9.183   1.688
18867WAT      O56842   8.220   2.865   2.423
18867WAT     H156843   8.225   2.765   2.418
18867WAT     H256844   8.127   2.894   2.443
18868WAT      O56845   7.127   7.063   5.210
18868WAT     H156846   7.123   6.969   5.245
18868WAT     H256847   7.052   7.078   5.146
18869WAT      O56848   3.222   6.437   4.886
18869WAT     H156849   3.215   6.345   4.848
18869WAT     H256850   3.249   6.431   4.982
18870WAT      O56851   9.787   3.232   2.690
18870WAT     H156852   9.802   3.283   2.775
18870WAT     H256853   9.739   3.290   2.625
18871WAT      O56854   5.285   2.048   4.830
18871WAT     H156855   5.262   2.066   4.926
18871WAT     H256856   5.304   2.134   4.784
18872WAT      O56857   2.964   6.401   7.833
18872WAT     H156858   3.031   6.397   7.758
18872WAT     H256859   3.012   6.413   7.920
18873WAT      O56860   9.327   6.131   4.544
18873WAT     H156861   9.402   6.111   4.607
18873WAT     H256862   9.255   6.063   4.556
18874WAT      O56863   4.378   6.671   9.269
18874WAT     H156864   4.378   6.576   9.241
18874WAT     H256865   4.401   6.730   9.192
18875WAT      O56866   1.487   6.704   9.132
18875WAT     H156867   1.521   6.624   9.182
18875WAT     H256868   1.529   6.787   9.170
18876WAT      O56869   7.317   3.154   4.839
18876WAT     H156870   7.374   3.185   4.916
18876WAT     H256871   7.221   3.174   4.858
18877WAT      O56872   4.553   0.200   5.603
18877WAT     H156873   4.468   0.208   5.656
18877WAT     H256874   4.627   0.247   5.651
18878WAT      O56875   9.213   2.074   1.521
18878WAT     H156876   9.290   2.136   1.530
18878WAT     H256877   9.212   2.010   1.599
18879WAT      O56878   5.238   3.845   2.198
18879WAT     H156879   5.299   3.909   2.247
18879WAT     H256880   5.293   3.786   2.139
18880WAT      O56881   3.717   6.038   1.562
18880WAT     H156882   3.746   6.032   1.467
18880WAT     H256883   3.618   6.049   1.567
18881WAT      O56884   8.952   6.522   0.868
18881WAT     H156885   8.996   6.483   0.788
18881WAT     H256886   8.944   6.621   0.856
18882WAT      O56887   1.223   4.554   1.596
18882WAT     H156888   1.190   4.533   1.504
18882WAT     H256889   1.323   4.552   1.597
18883WAT      O56890   6.245   7.040   5.800
18883WAT     H156891   6.178   7.113   5.787
18883WAT     H256892   6.288   7.049   5.890
18884WAT      O56893   7.781   5.020   9.880
18884WAT     H156894   7.841   5.044   9.804
18884WAT     H256895   7.764   4.921   9.879
18885WAT      O56896   1.713   0.426   5.821
18885WAT     H156897   1.775   0.349   5.837
18885WAT     H256898   1.733   0.468   5.733
18886WAT      O56899   2.805   2.697   7.992
18886WAT     H156900   2.741   2.621   7.984
18886WAT     H256901   2.783   2.767   7.924
18887WAT      O56902   4.159   2.680   6.668
18887WAT     H156903   4.239   2.732   6.638
18887WAT     H256904   4.077   2.735   6.651
18888WAT      O56905   1.867   5.148   1.753
18888WAT     H156906   1.920   5.220   1.798
18888WAT     H256907   1.772   5.178   1.742
18889WAT      O56908   4.780   9.383   4.813
18889WAT     H156909   4.706   9.319   4.834
18889WAT     H256910   4.805   9.434   4.895
18890WAT      O56911   8.249   8.295   4.002
18890WAT     H156912   8.258   8.202   3.968
18890WAT     H256913   8.204   8.351   3.932
18891WAT      O56914   7.835   9.767   0.011
18891WAT     H156915   7.736   9.761  -0.005
18891WAT     H256916   7.852   9.775   0.109
18892WAT      O56917   7.698   1.241   0.785
18892WAT     H156918   7.616   1.240   0.843
18892WAT     H256919   7.725   1.147   0.764
18893WAT      O56920   1.441   9.673   8.570
18893WAT     H156921   1.460   9.758   8.521
18893WAT     H256922   1.499   9.668   8.651
18894WAT      O56923   0.499   4.601   4.581
18894WAT     H156924   0.507   4.576   4.678
18894WAT     H256925   0.409   4.576   4.547
18895WAT      O56926   1.584   9.210   3.793
18895WAT     H156927   1.506   9.260   3.755
18895WAT     H256928   1.650   9.191   3.721
18896WAT      O56929   2.922   4.474   1.882
18896WAT     H156930   2.986   4.415   1.833
18896WAT     H256931   2.894   4.429   1.967
18897WAT      O56932   8.253   7.374   0.934
18897WAT     H156933   8.167   7.355   0.982
18897WAT     H256934   8.312   7.293   0.939
18898WAT      O56935   0.554   2.873   3.682
18898WAT     H156936   0.600   2.790   3.713
18898WAT     H256937   0.465   2.881   3.727
18899WAT      O56938   9.054   3.379   5.127
18899WAT     H156939   9.104   3.295   5.108
18899WAT     H256940   9.027   3.421   5.040
18900WAT      O56941   4.041   3.125   2.098
18900WAT     H156942   3.985   3.150   2.019
18900WAT     H256943   4.056   3.026   2.098
18901WAT      O56944   6.725   9.811   3.995
18901WAT     H156945   6.718   9.879   4.068
18901WAT     H256946   6.717   9.856   3.907
18902WAT      O56947   7.202   2.086   5.899
18902WAT     H156948   7.138   2.121   5.831
18902WAT     H256949   7.284   2.143   5.902
18903WAT      O56950   4.832   8.712   2.234
18903WAT     H156951   4.793   8.800   2.206
18903WAT     H256952   4.918   8.697   2.185
18904WAT      O56953   0.376   8.632   2.854
18904WAT     H156954   0.351   8.714   2.905
18904WAT     H256955   0.379   8.653   2.756
18905WAT      O56956   2.111   3.335   7.460
18905WAT     H156957   2.067   3.397   7.524
18905WAT     H256958   2.179   3.280   7.508
18906WAT      O56959   1.134   4.320   2.594
18906WAT     H156960   1.123   4.419   2.583
18906WAT     H256961   1.046   4.275   2.577
18907WAT      O56962   2.558   3.796   3.947
18907WAT     H156963   2.620   3.737   3.895
18907WAT     H256964   2.488   3.833   3.886
18908WAT      O56965   9.661   4.703   3.661
18908WAT     H156966   9.609   4.643   3.721
18908WAT     H256967   9.599   4.767   3.615
18909WAT      O56968   4.671   6.625   9.130
18909WAT     H156969   4.586   6.658   9.089
18909WAT     H256970   4.746   6.638   9.065
18910WAT      O56971   6.774   2.263   1.358
18910WAT     H156972   6.835   2.228   1.288
18910WAT     H256973   6.696   2.309   1.315
18911WAT      O56974   5.611   0.921   2.123
18911WAT     H156975   5.530   0.896   2.177
18911WAT     H256976   5.631   1.018   2.135
18912WAT      O56977   5.671   7.973   4.356
18912WAT     H156978   5.719   8.058   4.333
18912WAT     H256979   5.716   7.896   4.310
18913WAT      O56980   9.275   2.890   2.455
18913WAT     H156981   9.340   2.878   2.379
18913WAT     H256982   9.231   2.803   2.475
18914WAT      O56983   4.940   8.608   0.916
18914WAT     H156984   4.912   8.581   0.824
18914WAT     H256985   5.019   8.669   0.910
18915WAT      O56986   2.925   2.747   9.073
18915WAT     H156987   2.907   2.658   9.116
18915WAT     H256988   3.023   2.760   9.063
18916WAT      O56989   9.801   7.794   1.913
18916WAT     H156990   9.814   7.737   1.995
18916WAT     H256991   9.726   7.756   1.858
18917WAT      O56992   0.900   1.604   2.609
18917WAT     H156993   0.972   1.653   2.559
18917WAT     H256994   0.857   1.666   2.674
18918WAT      O56995   9.795   7.428   4.225
18918WAT     H156996   9.834   7.336   4.214
18918WAT     H256997   9.695   7.422   4.224
18919WAT      O56998   2.733   1.021   6.821
18919WAT     H156999   2.790   1.076   6.883
18919WAT     H257000   2.792   0.965   6.763
18920WAT      O57001   7.488   8.343   1.466
18920WAT     H157002   7.472   8.269   1.532
18920WAT     H257003   7.479   8.308   1.373
18921WAT      O57004   9.566   0.575   2.999
18921WAT     H157005   9.521   0.627   3.071
18921WAT     H257006   9.498   0.534   2.938
18922WAT      O57007   3.472   6.377   3.879
18922WAT     H157008   3.509   6.442   3.945
18922WAT     H257009   3.537   6.365   3.804
18923WAT      O57010   1.841   3.901   5.731
18923WAT     H157011   1.914   3.852   5.684
18923WAT     H257012   1.825   3.857   5.820
18924WAT      O57013   3.051   4.093   4.975
18924WAT     H157014   2.959   4.054   4.969
18924WAT     H257015   3.045   4.193   4.976
18925WAT      O57016   4.379   0.929   9.600
18925WAT     H157017   4.372   0.833   9.627
18925WAT     H257018   4.475   0.953   9.587
18926WAT      O57019   0.382   0.450   7.356
18926WAT     H157020   0.427   0.394   7.286
18926WAT     H257021   0.294   0.409   7.381
18927WAT      O57022   8.520   1.510   7.733
18927WAT     H157023   8.556   1.444   7.799
18927WAT     H257024   8.549   1.602   7.758
18928WAT      O57025   4.630   7.299   7.360
18928WAT     H157026   4.698   7.235   7.324
18928WAT     H257027   4.673   7.359   7.427
18929WAT      O57028   7.538   5.858   9.888
18929WAT     H157029   7.447   5.883   9.921
18929WAT     H257030   7.531   5.819   9.796
18930WAT      O57031   8.954   1.436   7.160
18930WAT     H157032   9.009   1.520   7.162
18930WAT     H257033   8.915   1.424   7.069
18931WAT      O57034   9.801   0.421   0.334
18931WAT     H157035   9.884   0.402   0.282
18931WAT     H257036   9.810   0.509   0.380
18932WAT      O57037   6.269   2.896   3.511
18932WAT     H157038   6.359   2.893   3.468
18932WAT     H257039   6.233   2.803   3.521
18933WAT      O57040   7.281   5.167   2.551
18933WAT     H157041   7.379   5.187   2.560
18933WAT     H257042   7.264   5.070   2.567
18934WAT      O57043   0.210   7.579   5.402
18934WAT     H157044   0.170   7.666   5.431
18934WAT     H257045   0.210   7.574   5.303
18935WAT      O57046   5.930   2.661   0.957
18935WAT     H157047   5.833   2.679   0.938
18935WAT     H257048   5.945   2.563   0.966
18936WAT      O57049   4.982   8.211   8.019
18936WAT     H157050   4.958   8.191   8.114
18936WAT     H257051   5.019   8.129   7.976
18937WAT      O57052   8.531   1.100   1.923
18937WAT     H157053   8.585   1.040   1.863
18937WAT     H257054   8.566   1.094   2.017
18938WAT      O57055   8.469   8.677   4.225
18938WAT     H157056   8.483   8.646   4.130
18938WAT     H257057   8.508   8.610   4.288
18939WAT      O57058   0.427   9.823   2.001
18939WAT     H157059   0.521   9.790   2.013
18939WAT     H257060   0.427   9.902   1.940
18940WAT      O57061   1.899   5.998   8.962
18940WAT     H157062   1.981   6.055   8.973
18940WAT     H257063   1.833   6.046   8.904
18941WAT      O57064   6.620   4.800   6.424
18941WAT     H157065   6.601   4.702   6.432
18941WAT     H257066   6.703   4.812   6.368
18942WAT      O57067   3.899   7.568   3.014
18942WAT     H157068   3.876   7.495   2.949
18942WAT     H257069   3.998   7.582   3.014
18943WAT      O57070   6.661   6.247   5.663
18943WAT     H157071   6.606   6.256   5.580
18943WAT     H257072   6.758   6.246   5.640
18944WAT      O57073   1.304   8.758   6.602
18944WAT     H157074   1.379   8.708   6.556
18944WAT     H257075   1.302   8.852   6.569
18945WAT      O57076   6.946   3.193   5.231
18945WAT     H157077   6.945   3.174   5.329
18945WAT     H257078   7.039   3.214   5.202
18946WAT      O57079   4.268   8.110   4.613
18946WAT     H157080   4.278   8.049   4.535
18946WAT     H257081   4.327   8.079   4.688
18947WAT      O57082   7.942   7.434   4.491
18947WAT     H157083   7.900   7.376   4.560
18947WAT     H257084   7.968   7.522   4.532
18948WAT      O57085   3.983   6.720   0.538
18948WAT     H157086   4.071   6.673   0.541
18948WAT     H257087   3.969   6.759   0.448
18949WAT      O57088   7.079   8.583   9.408
18949WAT     H157089   7.126   8.628   9.485
18949WAT     H257090   7.078   8.484   9.422
18950WAT      O57091   7.677   2.932   3.372
18950WAT     H157092   7.675   2.837   3.341
18950WAT     H257093   7.635   2.990   3.303
18951WAT      O57094   9.642   0.960   5.988
18951WAT     H157095   9.698   0.921   5.915
18951WAT     H257096   9.695   1.027   6.039
18952WAT      O57097   0.011   1.895   3.539
18952WAT     H157098  -0.022   1.812   3.584
18952WAT     H257099  -0.024   1.898   3.446
18953WAT      O57100   4.107   7.493   3.985
18953WAT     H157101   4.186   7.553   3.991
18953WAT     H257102   4.025   7.547   3.967
18954WAT      O57103   0.445   0.462   2.463
18954WAT     H157104   0.522   0.521   2.438
18954WAT     H257105   0.463   0.369   2.432
18955WAT      O57106   3.951   6.831   6.031
18955WAT     H157107   3.900   6.901   5.982
18955WAT     H257108   3.889   6.779   6.089
18956WAT      O57109   9.849   4.474   0.974
18956WAT     H157110   9.845   4.375   0.983
18956WAT     H257111   9.944   4.505   0.986
18957WAT      O57112   0.539   4.595   2.732
18957WAT     H157113   0.469   4.579   2.802
18957WAT     H257114   0.607   4.659   2.767
18958WAT      O57115   7.358   3.067   2.355
18958WAT     H157116   7.418   3.145   2.368
18958WAT     H257117   7.265   3.099   2.338
18959WAT      O57118   0.533   4.262   0.716
18959WAT     H157119   0.484   4.348   0.701
18959WAT     H257120   0.549   4.217   0.628
18960WAT      O57121   6.330   0.709   6.705
18960WAT     H157122   6.387   0.778   6.750
18960WAT     H257123   6.357   0.618   6.736
18961WAT      O57124   2.094   1.516   0.084
18961WAT     H157125   2.081   1.417   0.087
18961WAT     H257126   2.097   1.546  -0.011
18962WAT      O57127   3.538   0.833   5.563
18962WAT     H157128   3.608   0.901   5.582
18962WAT     H257129   3.563   0.780   5.483
18963WAT      O57130   2.730   5.091   5.193
18963WAT     H157131   2.641   5.047   5.195
18963WAT     H257132   2.788   5.053   5.265
18964WAT      O57133   6.479   6.113   1.741
18964WAT     H157134   6.564   6.166   1.739
18964WAT     H257135   6.447   6.107   1.835
18965WAT      O57136   4.151   1.840   7.173
18965WAT     H157137   4.106   1.758   7.207
18965WAT     H257138   4.091   1.919   7.186
18966WAT      O57139   0.211   8.499   6.752
18966WAT     H157140   0.166   8.558   6.819
18966WAT     H257141   0.278   8.552   6.700
18967WAT      O57142   2.405   9.838   8.517
18967WAT     H157143   2.428   9.773   8.589
18967WAT     H257144   2.409   9.792   8.428
18968WAT      O57145   8.388   8.506   9.213
18968WAT     H157146   8.411   8.561   9.293
18968WAT     H257147   8.338   8.563   9.147
18969WAT      O57148   2.601   6.914   2.694
18969WAT     H157149   2.595   6.819   2.664
18969WAT     H257150   2.647   6.919   2.782
18970WAT      O57151   4.161   5.544   8.767
18970WAT     H157152   4.122   5.520   8.856
18970WAT     H257153   4.121   5.630   8.736
18971WAT      O57154   3.938   5.705   0.770
18971WAT     H157155   4.008   5.633   0.769
18971WAT     H257156   3.970   5.784   0.718
18972WAT      O57157   7.144   2.278   8.222
18972WAT     H157158   7.224   2.312   8.272
18972WAT     H257159   7.062   2.294   8.276
18973WAT      O57160   3.861   6.353   0.653
18973WAT     H157161   3.900   6.403   0.575
18973WAT     H257162   3.933   6.328   0.717
18974WAT      O57163   7.558   2.574   9.576
18974WAT     H157164   7.496   2.498   9.558
18974WAT     H257165   7.528   2.624   9.657
18975WAT      O57166   1.880   3.002   9.812
18975WAT     H157167   1.795   2.964   9.775
18975WAT     H257168   1.871   3.011   9.912
18976WAT      O57169   9.368   1.739   3.937
18976WAT     H157170   9.306   1.786   4.000
18976WAT     H257171   9.406   1.805   3.872
18977WAT      O57172   6.355   7.196   8.156
18977WAT     H157173   6.318   7.282   8.192
18977WAT     H257174   6.320   7.181   8.064
18978WAT      O57175   0.958   9.830   9.098
18978WAT     H157176   0.976   9.843   9.195
18978WAT     H257177   0.967   9.733   9.075
18979WAT      O57178   4.705   6.203   8.409
18979WAT     H157179   4.734   6.182   8.316
18979WAT     H257180   4.625   6.262   8.407
18980WAT      O57181   3.350   7.991   6.926
18980WAT     H157182   3.345   8.091   6.923
18980WAT     H257183   3.359   7.955   6.833
18981WAT      O57184   5.206   1.990   3.654
18981WAT     H157185   5.199   1.902   3.701
18981WAT     H257186   5.117   2.016   3.616
18982WAT      O57187   2.918   0.281   7.903
18982WAT     H157188   3.016   0.290   7.889
18982WAT     H257189   2.874   0.370   7.889
18983WAT      O57190   3.326   5.955   1.247
18983WAT     H157191   3.362   5.918   1.162
18983WAT     H257192   3.248   6.014   1.228
18984WAT      O57193   8.532   9.430   2.573
18984WAT     H157194   8.551   9.340   2.536
18984WAT     H257195   8.502   9.491   2.500
18985WAT      O57196   4.584   2.899   7.765
18985WAT     H157197   4.619   2.808   7.789
18985WAT     H257198   4.619   2.966   7.831
18986WAT      O57199   9.731   3.643   2.545
18986WAT     H157200   9.742   3.709   2.471
18986WAT     H257201   9.634   3.627   2.561
18987WAT      O57202   5.440   2.807   7.276
18987WAT     H157203   5.436   2.728   7.337
18987WAT     H257204   5.390   2.787   7.192
18988WAT      O57205   6.558   8.039   9.524
18988WAT     H157206   6.548   7.939   9.518
18988WAT     H257207   6.468   8.080   9.540
18989WAT      O57208   2.293   7.749   0.793
18989WAT     H157209   2.350   7.831   0.792
18989WAT     H257210   2.198   7.773   0.772
18990WAT      O57211   4.298   8.292   8.256
18990WAT     H157212   4.212   8.241   8.265
18990WAT     H257213   4.332   8.284   8.163
18991WAT      O57214   0.111   1.440   5.211
18991WAT     H157215   0.083   1.366   5.150
18991WAT     H257216   0.203   1.471   5.186
18992WAT      O57217   8.000   9.359   9.243
18992WAT     H157218   7.950   9.384   9.326
18992WAT     H257219   8.093   9.396   9.247
18993WAT      O57220   3.595   2.662   8.644
18993WAT     H157221   3.545   2.699   8.722
18993WAT     H257222   3.543   2.679   8.560
18994WAT      O57223   8.825   9.086   3.756
18994WAT     H157224   8.905   9.145   3.744
18994WAT     H257225   8.775   9.080   3.670
18995WAT      O57226   7.485   6.387   6.362
18995WAT     H157227   7.538   6.401   6.278
18995WAT     H257228   7.546   6.378   6.440
18996WAT      O57229   4.913   3.094   3.968
18996WAT     H157230   4.925   3.155   4.046
18996WAT     H257231   5.002   3.065   3.933
18997WAT      O57232   0.199   3.982   9.450
18997WAT     H157233   0.211   4.079   9.468
18997WAT     H257234   0.259   3.954   9.375
18998WAT      O57235   8.465   3.149   8.839
18998WAT     H157236   8.441   3.166   8.934
18998WAT     H257237   8.563   3.128   8.833
18999WAT      O57238   1.916   9.792   2.320
18999WAT     H157239   1.816   9.794   2.325
18999WAT     H257240   1.944   9.780   2.225
19000WAT      O57241   5.927   7.731   7.843
19000WAT     H157242   5.838   7.695   7.872
19000WAT     H257243   5.937   7.825   7.876
19001WAT      O57244   7.972   2.568   8.690
19001WAT     H157245   8.003   2.657   8.655
19001WAT     H257246   7.908   2.583   8.765
19002WAT      O57247   7.549   5.521   6.061
19002WAT     H157248   7.577   5.590   5.993
19002WAT     H257249   7.552   5.430   6.019
19003WAT      O57250   7.168   2.524   7.441
19003WAT     H157251   7.111   2.549   7.519
19003WAT     H257252   7.246   2.585   7.435
19004WAT      O57253   0.849   7.474   4.691
19004WAT     H157254   0.929   7.445   4.638
19004WAT     H257255   0.795   7.538   4.637
19005WAT      O57256   8.222   5.373   3.210
19005WAT     H157257   8.320   5.359   3.194
19005WAT     H257258   8.203   5.373   3.308
19006WAT      O57259   6.026   2.891   9.481
19006WAT     H157260   6.082   2.810   9.461
19006WAT     H257261   6.078   2.973   9.459
19007WAT      O57262   7.565   6.697   6.869
19007WAT     H157263   7.537   6.792   6.880
19007WAT     H257264   7.574   6.676   6.771
19008WAT      O57265   1.273   8.020   7.451
19008WAT     H157266   1.224   7.989   7.533
19008WAT     H257267   1.215   8.084   7.400
19009WAT      O57268   5.535   1.066   0.657
19009WAT     H157269   5.533   1.137   0.728
19009WAT     H257270   5.442   1.045   0.628
19010WAT      O57271   3.451   4.809   5.864
19010WAT     H157272   3.427   4.742   5.934
19010WAT     H257273   3.464   4.899   5.908
19011WAT      O57274   1.835   7.514   1.542
19011WAT     H157275   1.791   7.435   1.586
19011WAT     H257276   1.899   7.556   1.607
19012WAT      O57277   6.726   6.392   9.401
19012WAT     H157278   6.769   6.376   9.312
19012WAT     H257279   6.721   6.490   9.418
19013WAT      O57280   1.719   3.536   0.113
19013WAT     H157281   1.688   3.616   0.061
19013WAT     H257282   1.653   3.516   0.185
19014WAT      O57283   1.831   6.960   7.582
19014WAT     H157284   1.792   7.037   7.530
19014WAT     H257285   1.888   6.996   7.656
19015WAT      O57286   2.831   6.779   4.294
19015WAT     H157287   2.779   6.753   4.213
19015WAT     H257288   2.902   6.710   4.312
19016WAT      O57289   7.685   1.283   9.356
19016WAT     H157290   7.646   1.259   9.268
19016WAT     H257291   7.623   1.254   9.429
19017WAT      O57292   0.169   9.185   0.542
19017WAT     H157293   0.239   9.219   0.605
19017WAT     H257294   0.078   9.200   0.583
19018WAT      O57295   9.442   4.525   3.747
19018WAT     H157296   9.450   4.513   3.846
19018WAT     H257297   9.350   4.558   3.725
19019WAT      O57298   1.339   0.357   4.661
19019WAT     H157299   1.363   0.430   4.597
19019WAT     H257300   1.417   0.295   4.671
19020WAT      O57301   9.474   7.735   7.156
19020WAT     H157302   9.396   7.682   7.124
19020WAT     H257303   9.488   7.814   7.096
19021WAT      O57304   1.065   3.896   0.243
19021WAT     H157305   1.128   3.970   0.267
19021WAT     H257306   1.045   3.841   0.324
19022WAT      O57307   0.772   2.574   6.476
19022WAT     H157308   0.833   2.608   6.548
19022WAT     H257309   0.761   2.645   6.407
19023WAT      O57310   5.894   7.831   9.752
19023WAT     H157311   5.979   7.777   9.751
19023WAT     H257312   5.895   7.894   9.830
19024WAT      O57313   5.984   2.107   7.594
19024WAT     H157314   5.982   2.181   7.527
19024WAT     H257315   6.073   2.106   7.640
19025WAT      O57316   4.026   3.410   2.106
19025WAT     H157317   4.057   3.315   2.115
19025WAT     H257318   3.928   3.415   2.122
19026WAT      O57319   5.190   1.925   1.431
19026WAT     H157320   5.160   1.861   1.502
19026WAT     H257321   5.189   1.880   1.342
19027WAT      O57322   8.699   8.993   4.656
19027WAT     H157323   8.725   8.946   4.571
19027WAT     H257324   8.690   9.091   4.638
19028WAT      O57325   1.600   5.389   3.283
19028WAT     H157326   1.596   5.404   3.184
19028WAT     H257327   1.695   5.379   3.312
19029WAT      O57328   9.068   3.305   9.561
19029WAT     H157329   9.024   3.329   9.474
19029WAT     H257330   9.040   3.213   9.588
19030WAT      O57331   5.486   7.999   0.062
19030WAT     H157332   5.414   8.045   0.009
19030WAT     H257333   5.453   7.910   0.092
19031WAT      O57334   3.171   0.923   4.558
19031WAT     H157335   3.255   0.928   4.613
19031WAT     H257336   3.168   0.834   4.512
19032WAT      O57337   8.241   4.247   5.413
19032WAT     H157338   8.293   4.307   5.475
19032WAT     H257339   8.285   4.157   5.410
19033WAT      O57340   5.289   5.683   8.637
19033WAT     H157341   5.266   5.671   8.733
19033WAT     H257342   5.207   5.667   8.581
19034WAT      O57343   5.625   1.935   3.338
19034WAT     H157344   5.632   2.023   3.292
19034WAT     H257345   5.684   1.869   3.293
19035WAT      O57346   5.442   7.202   4.791
19035WAT     H157347   5.535   7.165   4.798
19035WAT     H257348   5.437   7.288   4.841
19036WAT      O57349   3.306   7.055   8.817
19036WAT     H157350   3.286   7.147   8.851
19036WAT     H257351   3.279   6.987   8.884
19037WAT      O57352   5.371   8.882   5.451
19037WAT     H157353   5.322   8.890   5.538
19037WAT     H257354   5.454   8.829   5.465
19038WAT      O57355   2.623   8.740   4.114
19038WAT     H157356   2.617   8.715   4.018
19038WAT     H257357   2.557   8.813   4.134
19039WAT      O57358   6.690   7.883   9.099
19039WAT     H157359   6.769   7.937   9.128
19039WAT     H257360   6.694   7.869   9.000
19040WAT      O57361   8.294   2.984   0.121
19040WAT     H157362   8.255   2.896   0.145
19040WAT     H257363   8.393   2.981   0.133
19041WAT      O57364   7.652   7.593   1.392
19041WAT     H157365   7.582   7.556   1.331
19041WAT     H257366   7.615   7.674   1.438
19042WAT      O57367   9.349   9.052   5.509
19042WAT     H157368   9.314   9.055   5.415
19042WAT     H257369   9.347   8.958   5.543
19043WAT      O57370   2.704   4.401   9.089
19043WAT     H157371   2.607   4.402   9.114
19043WAT     H257372   2.716   4.447   9.000
19044WAT      O57373   7.184   0.373   4.891
19044WAT     H157374   7.152   0.464   4.867
19044WAT     H257375   7.107   0.310   4.894
19045WAT      O57376   8.879   7.139   1.210
19045WAT     H157377   8.813   7.064   1.210
19045WAT     H257378   8.897   7.168   1.116
19046WAT      O57379   3.694   2.994   5.749
19046WAT     H157380   3.734   3.073   5.701
19046WAT     H257381   3.598   3.013   5.769
19047WAT      O57382   6.366   0.711   7.274
19047WAT     H157383   6.401   0.629   7.230
19047WAT     H257384   6.276   0.734   7.236
19048WAT      O57385   9.236   9.224   5.969
19048WAT     H157386   9.226   9.303   5.908
19048WAT     H257387   9.177   9.235   6.049
19049WAT      O57388   5.431   9.690   9.065
19049WAT     H157389   5.494   9.695   8.987
19049WAT     H257390   5.458   9.757   9.134
19050WAT      O57391   4.602   4.980   8.452
19050WAT     H157392   4.612   4.982   8.353
19050WAT     H257393   4.548   5.059   8.482
19051WAT      O57394   8.041   2.436   5.470
19051WAT     H157395   7.972   2.461   5.538
19051WAT     H257396   8.067   2.340   5.481
19052WAT      O57397   4.475   5.016   1.536
19052WAT     H157398   4.527   5.085   1.485
19052WAT     H257399   4.514   4.925   1.518
19053WAT      O57400   5.390   6.975   3.207
19053WAT     H157401   5.324   7.023   3.149
19053WAT     H257402   5.402   7.025   3.293
19054WAT      O57403   3.641   2.808   1.830
19054WAT     H157404   3.595   2.722   1.808
19054WAT     H257405   3.662   2.810   1.928
19055WAT      O57406   8.234   6.966   0.613
19055WAT     H157407   8.225   7.048   0.670
19055WAT     H257408   8.151   6.910   0.623
19056WAT      O57409   9.805   0.019   4.215
19056WAT     H157410   9.771   0.071   4.136
19056WAT     H257411   9.779   0.066   4.299
19057WAT      O57412   1.316   3.579   1.680
19057WAT     H157413   1.342   3.668   1.718
19057WAT     H257414   1.306   3.587   1.581
19058WAT      O57415   1.014   8.697   7.654
19058WAT     H157416   0.978   8.766   7.591
19058WAT     H257417   0.954   8.617   7.654
19059WAT      O57418   5.938   5.110   7.126
19059WAT     H157419   5.986   5.023   7.113
19059WAT     H257420   5.882   5.106   7.209
19060WAT      O57421   9.706   8.481   2.344
19060WAT     H157422   9.741   8.451   2.255
19060WAT     H257423   9.748   8.568   2.370
19061WAT      O57424   8.048   1.088   4.927
19061WAT     H157425   7.987   1.161   4.956
19061WAT     H257426   8.057   1.020   5.000
19062WAT      O57427   9.862   0.470   2.339
19062WAT     H157428   9.912   0.527   2.405
19062WAT     H257429   9.910   0.383   2.327
19063WAT      O57430   9.281   3.658   9.803
19063WAT     H157431   9.261   3.744   9.850
19063WAT     H257432   9.369   3.665   9.757
19064WAT      O57433   6.669   5.929   0.596
19064WAT     H157434   6.658   5.879   0.682
19064WAT     H257435   6.652   5.867   0.519
19065WAT      O57436   7.841   9.208   6.462
19065WAT     H157437   7.800   9.150   6.532
19065WAT     H257438   7.834   9.304   6.489
19066WAT      O57439   5.864   9.202   5.537
19066WAT     H157440   5.925   9.223   5.461
19066WAT     H257441   5.858   9.102   5.549
19067WAT      O57442   9.407   6.620   6.376
19067WAT     H157443   9.321   6.642   6.329
19067WAT     H257444   9.483   6.660   6.325
19068WAT      O57445   6.129   6.130   7.142
19068WAT     H157446   6.090   6.157   7.230
19068WAT     H257447   6.224   6.162   7.137
19069WAT      O57448   2.932   8.348   4.013
19069WAT     H157449   2.983   8.332   4.098
19069WAT     H257450   2.845   8.299   4.016
19070WAT      O57451   2.580   6.216   8.763
19070WAT     H157452   2.593   6.309   8.728
19070WAT     H257453   2.593   6.216   8.862
19071WAT      O57454   8.515   4.924   7.829
19071WAT     H157455   8.473   4.935   7.919
19071WAT     H257456   8.538   5.013   7.791
19072WAT      O57457   6.723   7.490   4.328
19072WAT     H157458   6.754   7.428   4.257
19072WAT     H257459   6.726   7.584   4.294
19073WAT      O57460   5.372   3.956   6.117
19073WAT     H157461   5.331   4.009   6.042
19073WAT     H257462   5.299   3.912   6.169
19074WAT      O57463   6.996   0.591   4.536
19074WAT     H157464   7.028   0.613   4.628
19074WAT     H257465   6.943   0.507   4.538
19075WAT      O57466   2.602   9.797   3.145
19075WAT     H157467   2.623   9.846   3.230
19075WAT     H257468   2.528   9.733   3.161
19076WAT      O57469   7.228   0.577   7.119
19076WAT     H157470   7.171   0.649   7.157
19076WAT     H257471   7.239   0.591   7.021
19077WAT      O57472   0.846   5.273   1.759
19077WAT     H157473   0.853   5.350   1.695
19077WAT     H257474   0.765   5.284   1.816
19078WAT      O57475   5.490   6.584   0.087
19078WAT     H157476   5.468   6.547  -0.003
19078WAT     H257477   5.409   6.584   0.145
19079WAT      O57478   4.707   9.161   5.657
19079WAT     H157479   4.733   9.201   5.569
19079WAT     H257480   4.630   9.212   5.695
19080WAT      O57481   2.390   3.487   3.057
19080WAT     H157482   2.296   3.456   3.073
19080WAT     H257483   2.422   3.537   3.137
19081WAT      O57484   0.434   4.850   8.504
19081WAT     H157485   0.410   4.865   8.408
19081WAT     H257486   0.472   4.934   8.543
19082WAT      O57487   7.211   5.856   4.739
19082WAT     H157488   7.221   5.846   4.838
19082WAT     H257489   7.289   5.908   4.703
19083WAT      O57490   6.192   4.967   9.005
19083WAT     H157491   6.181   5.046   8.946
19083WAT     H257492   6.248   4.898   8.958
19084WAT      O57493   9.376   6.613   5.855
19084WAT     H157494   9.473   6.600   5.876
19084WAT     H257495   9.360   6.708   5.828
19085WAT      O57496   1.102   6.046   1.984
19085WAT     H157497   1.017   6.030   2.035
19085WAT     H257498   1.085   6.031   1.886
19086WAT      O57499   3.093   4.335   1.738
19086WAT     H157500   3.140   4.258   1.695
19086WAT     H257501   3.138   4.420   1.714
19087WAT      O57502   7.339   1.926   5.262
19087WAT     H157503   7.242   1.946   5.276
19087WAT     H257504   7.350   1.828   5.242
19088WAT      O57505   6.641   0.951   3.770
19088WAT     H157506   6.628   1.020   3.699
19088WAT     H257507   6.733   0.958   3.806
19089WAT      O57508   5.201   6.282   3.196
19089WAT     H157509   5.152   6.241   3.272
19089WAT     H257510   5.137   6.302   3.122
19090WAT      O57511   7.040   1.265   0.363
19090WAT     H157512   7.120   1.309   0.321
19090WAT     H257513   6.971   1.247   0.293
19091WAT      O57514   8.636   5.740   2.906
19091WAT     H157515   8.546   5.760   2.944
19091WAT     H257516   8.686   5.826   2.891
19092WAT      O57517   7.458   5.852   3.157
19092WAT     H157518   7.444   5.886   3.250
19092WAT     H257519   7.392   5.779   3.138
19093WAT      O57520   4.200   2.213   1.367
19093WAT     H157521   4.120   2.205   1.426
19093WAT     H257522   4.192   2.148   1.292
19094WAT      O57523   5.553   4.373   1.234
19094WAT     H157524   5.491   4.451   1.225
19094WAT     H257525   5.591   4.350   1.144
19095WAT      O57526   6.067   0.708   5.841
19095WAT     H157527   6.157   0.752   5.832
19095WAT     H257528   6.072   0.615   5.806
19096WAT      O57529   3.964   6.838   7.204
19096WAT     H157530   4.033   6.843   7.132
19096WAT     H257531   3.897   6.767   7.181
19097WAT      O57532   6.324   4.421   0.733
19097WAT     H157533   6.401   4.479   0.703
19097WAT     H257534   6.253   4.423   0.662
19098WAT      O57535   6.970   5.554   5.553
19098WAT     H157536   6.915   5.567   5.635
19098WAT     H257537   6.909   5.547   5.473
19099WAT      O57538   5.776   8.404   2.408
19099WAT     H157539   5.860   8.401   2.354
19099WAT     H257540   5.699   8.427   2.348
19100WAT      O57541   2.229   2.830   7.296
19100WAT     H157542   2.206   2.926   7.308
19100WAT     H257543   2.312   2.808   7.347
19101WAT      O57544   0.171   6.779   8.797
19101WAT     H157545   0.184   6.681   8.783
19101WAT     H257546   0.217   6.808   8.881
19102WAT      O57547   4.346   0.439   5.316
19102WAT     H157548   4.278   0.386   5.265
19102WAT     H257549   4.394   0.500   5.254
19103WAT      O57550   0.602   1.324   0.789
19103WAT     H157551   0.521   1.279   0.751
19103WAT     H257552   0.681   1.263   0.781
19104WAT      O57553   1.682   1.804   1.229
19104WAT     H157554   1.727   1.812   1.318
19104WAT     H257555   1.623   1.883   1.214
19105WAT      O57556   3.822   9.689   7.578
19105WAT     H157557   3.779   9.604   7.549
19105WAT     H257558   3.759   9.766   7.563
19106WAT      O57559   3.961   6.728   1.129
19106WAT     H157560   4.052   6.735   1.168
19106WAT     H257561   3.893   6.761   1.195
19107WAT      O57562   3.265   1.381   3.993
19107WAT     H157563   3.293   1.413   3.903
19107WAT     H257564   3.179   1.426   4.018
19108WAT      O57565   6.433   4.867   9.513
19108WAT     H157566   6.345   4.915   9.514
19108WAT     H257567   6.426   4.785   9.570
19109WAT      O57568   5.219   1.868   6.609
19109WAT     H157569   5.312   1.892   6.584
19109WAT     H257570   5.155   1.916   6.549
19110WAT      O57571   0.810   5.471   8.731
19110WAT     H157572   0.801   5.562   8.770
19110WAT     H257573   0.721   5.425   8.735
19111WAT      O57574   5.482   1.522   6.324
19111WAT     H157575   5.489   1.517   6.224
19111WAT     H257576   5.533   1.446   6.365
19112WAT      O57577   6.473   2.191   1.156
19112WAT     H157578   6.378   2.198   1.184
19112WAT     H257579   6.523   2.272   1.186
19113WAT      O57580   3.371   5.494   1.384
19113WAT     H157581   3.345   5.523   1.292
19113WAT     H257582   3.323   5.548   1.452
19114WAT      O57583   5.197   9.502   6.592
19114WAT     H157584   5.120   9.466   6.645
19114WAT     H257585   5.165   9.578   6.535
19115WAT      O57586   1.246   7.881   5.778
19115WAT     H157587   1.178   7.827   5.828
19115WAT     H257588   1.285   7.950   5.839
19116WAT      O57589   9.644   0.042   6.450
19116WAT     H157590   9.667  -0.053   6.472
19116WAT     H257591   9.578   0.044   6.375
19117WAT      O57592   8.800   4.696   9.492
19117WAT     H157593   8.791   4.766   9.421
19117WAT     H257594   8.887   4.648   9.480
19118WAT      O57595   4.615   9.657   7.531
19118WAT     H157596   4.570   9.578   7.573
19118WAT     H257597   4.574   9.675   7.442
19119WAT      O57598   5.280   0.870   7.876
19119WAT     H157599   5.379   0.880   7.883
19119WAT     H257600   5.253   0.877   7.780
19120WAT      O57601   3.430   6.773   6.575
19120WAT     H157602   3.476   6.732   6.497
19120WAT     H257603   3.405   6.701   6.640
19121WAT      O57604   4.396   2.465   8.517
19121WAT     H157605   4.471   2.512   8.470
19121WAT     H257606   4.432   2.403   8.586
19122WAT      O57607   7.659   6.050   6.886
19122WAT     H157608   7.570   6.078   6.849
19122WAT     H257609   7.687   6.113   6.958
19123WAT      O57610   4.553   2.768   0.433
19123WAT     H157611   4.565   2.861   0.469
19123WAT     H257612   4.642   2.732   0.406
19124WAT      O57613   9.021   4.834   1.719
19124WAT     H157614   8.947   4.899   1.699
19124WAT     H257615   9.034   4.773   1.641
19125WAT      O57616   8.232   8.175   6.833
19125WAT     H157617   8.259   8.258   6.881
19125WAT     H257618   8.225   8.195   6.735
19126WAT      O57619   0.720   0.917   4.935
19126WAT     H157620   0.770   0.931   5.020
19126WAT     H257621   0.693   0.821   4.927
19127WAT      O57622   6.234   0.327   3.878
19127WAT     H157623   6.308   0.379   3.837
19127WAT     H257624   6.270   0.269   3.951
19128WAT      O57625   8.940   3.632   8.470
19128WAT     H157626   9.015   3.586   8.517
19128WAT     H257627   8.965   3.650   8.375
19129WAT      O57628   3.757   5.566   2.176
19129WAT     H157629   3.818   5.487   2.174
19129WAT     H257630   3.757   5.606   2.268
19130WAT      O57631   1.467   9.169   6.459
19130WAT     H157632   1.469   9.131   6.367
19130WAT     H257633   1.379   9.149   6.502
19131WAT      O57634   1.425   4.259   4.780
19131WAT     H157635   1.379   4.195   4.719
19131WAT     H257636   1.511   4.217   4.812
19132WAT      O57637   3.736   9.459   3.992
19132WAT     H157638   3.834   9.454   4.011
19132WAT     H257639   3.708   9.555   3.990
19133WAT      O57640   2.062   9.351   6.296
19133WAT     H157641   2.099   9.436   6.333
19133WAT     H257642   2.011   9.370   6.212
19134WAT      O57643   7.736   8.659   1.321
19134WAT     H157644   7.654   8.658   1.379
19134WAT     H257645   7.786   8.743   1.337
19135WAT      O57646   2.121   0.751   2.247
19135WAT     H157647   2.156   0.805   2.323
19135WAT     H257648   2.074   0.810   2.182
19136WAT      O57649   4.800   9.703   3.516
19136WAT     H157650   4.708   9.741   3.503
19136WAT     H257651   4.801   9.648   3.600
19137WAT      O57652   2.103   3.451   1.141
19137WAT     H157653   2.199   3.454   1.113
19137WAT     H257654   2.047   3.494   1.071
19138WAT      O57655   7.573   3.271   8.662
19138WAT     H157656   7.532   3.181   8.679
19138WAT     H257657   7.669   3.260   8.638
19139WAT      O57658   3.478   0.870   3.016
19139WAT     H157659   3.522   0.821   2.941
19139WAT     H257660   3.549   0.910   3.075
19140WAT      O57661   2.727   9.504   1.799
19140WAT     H157662   2.679   9.549   1.874
19140WAT     H257663   2.820   9.540   1.792
19141WAT      O57664   0.721   3.609   8.683
19141WAT     H157665   0.690   3.535   8.743
19141WAT     H257666   0.643   3.664   8.655
19142WAT      O57667   8.423   5.261   6.616
19142WAT     H157668   8.427   5.194   6.690
19142WAT     H257669   8.444   5.216   6.529
19143WAT      O57670   4.117   6.871   7.629
19143WAT     H157671   4.095   6.956   7.678
19143WAT     H257672   4.198   6.886   7.572
19144WAT      O57673   8.670   9.292   7.347
19144WAT     H157674   8.710   9.205   7.319
19144WAT     H257675   8.693   9.310   7.442
19145WAT      O57676   2.826   8.475   8.109
19145WAT     H157677   2.886   8.537   8.159
19145WAT     H257678   2.875   8.436   8.031
19146WAT      O57679   2.183   3.227   0.900
19146WAT     H157680   2.106   3.243   0.838
19146WAT     H257681   2.211   3.314   0.941
19147WAT      O57682   7.374   4.417   9.411
19147WAT     H157683   7.299   4.480   9.434
19147WAT     H257684   7.388   4.417   9.312
19148WAT      O57685   4.174   0.642   4.762
19148WAT     H157686   4.231   0.579   4.709
19148WAT     H257687   4.230   0.690   4.829
19149WAT      O57688   9.211   2.018   1.252
19149WAT     H157689   9.197   2.115   1.233
19149WAT     H257690   9.239   2.007   1.348
19150WAT      O57691   5.546   0.832   8.036
19150WAT     H157692   5.610   0.758   8.014
19150WAT     H257693   5.544   0.844   8.135
19151WAT      O57694   8.009   7.464   8.422
19151WAT     H157695   8.046   7.505   8.506
19151WAT     H257696   8.039   7.517   8.343
19152WAT      O57697   4.306   0.975   6.313
19152WAT     H157698   4.264   0.978   6.404
19152WAT     H257699   4.359   1.058   6.297
19153WAT      O57700   4.985   6.461   6.927
19153WAT     H157701   4.935   6.429   6.846
19153WAT     H257702   5.032   6.547   6.904
19154WAT      O57703   7.672   0.303   0.405
19154WAT     H157704   7.593   0.346   0.448
19154WAT     H257705   7.711   0.235   0.467
19155WAT      O57706   0.357   4.976   2.826
19155WAT     H157707   0.381   5.070   2.852
19155WAT     H257708   0.411   4.950   2.746
19156WAT      O57709   0.841   0.159   0.553
19156WAT     H157710   0.770   0.193   0.492
19156WAT     H257711   0.895   0.090   0.506
19157WAT      O57712   9.720   3.451   3.511
19157WAT     H157713   9.764   3.371   3.552
19157WAT     H257714   9.629   3.464   3.550
19158WAT      O57715   5.293   4.344   5.521
19158WAT     H157716   5.378   4.306   5.486
19158WAT     H257717   5.231   4.269   5.546
19159WAT      O57718   7.934   0.040   9.275
19159WAT     H157719   7.943   0.131   9.234
19159WAT     H257720   7.873  -0.016   9.220
19160WAT      O57721   9.034   1.762   4.636
19160WAT     H157722   9.015   1.706   4.716
19160WAT     H257723   9.096   1.837   4.661
19161WAT      O57724   4.985   1.993   0.234
19161WAT     H157725   4.941   1.907   0.259
19161WAT     H257726   5.046   1.977   0.156
19162WAT      O57727   3.719   6.256   6.312
19162WAT     H157728   3.795   6.207   6.354
19162WAT     H257729   3.666   6.303   6.383
19163WAT      O57730   2.315   0.550   3.576
19163WAT     H157731   2.246   0.481   3.600
19163WAT     H257732   2.275   0.615   3.510
19164WAT      O57733   8.849   8.383   0.605
19164WAT     H157734   8.753   8.406   0.588
19164WAT     H257735   8.868   8.291   0.571
19165WAT      O57736   0.068   0.551   7.711
19165WAT     H157737   0.018   0.534   7.625
19165WAT     H257738   0.003   0.549   7.787
19166WAT      O57739   9.223   8.417   8.541
19166WAT     H157740   9.208   8.404   8.443
19166WAT     H257741   9.135   8.439   8.585
19167WAT      O57742   1.816   9.123   1.977
19167WAT     H157743   1.778   9.215   1.985
19167WAT     H257744   1.746   9.055   1.997
19168WAT      O57745   6.226   6.901   5.243
19168WAT     H157746   6.271   6.979   5.284
19168WAT     H257747   6.248   6.818   5.295
19169WAT      O57748   2.278   8.005   4.696
19169WAT     H157749   2.359   7.982   4.641
19169WAT     H257750   2.298   7.988   4.792
19170WAT      O57751   8.661   0.591   5.646
19170WAT     H157752   8.758   0.590   5.668
19170WAT     H257753   8.643   0.661   5.577
19171WAT      O57754   4.574   6.150   7.309
19171WAT     H157755   4.564   6.187   7.217
19171WAT     H257756   4.527   6.062   7.315
19172WAT      O57757   8.218   3.042   5.357
19172WAT     H157758   8.236   3.109   5.430
19172WAT     H257759   8.275   2.961   5.371
19173WAT      O57760   6.128   4.267   7.622
19173WAT     H157761   6.211   4.260   7.679
19173WAT     H257762   6.089   4.359   7.633
19174WAT      O57763   3.435   3.560   5.791
19174WAT     H157764   3.436   3.619   5.710
19174WAT     H257765   3.527   3.527   5.810
19175WAT      O57766   7.077   8.511   4.111
19175WAT     H157767   7.099   8.450   4.187
19175WAT     H257768   7.160   8.528   4.057
19176WAT      O57769   6.773   5.225   1.234
19176WAT     H157770   6.850   5.202   1.174
19176WAT     H257771   6.785   5.179   1.322
19177WAT      O57772   5.418   5.884   7.630
19177WAT     H157773   5.420   5.968   7.684
19177WAT     H257774   5.351   5.821   7.669
19178WAT      O57775   7.014   3.536   7.329
19178WAT     H157776   7.104   3.504   7.298
19178WAT     H257777   6.988   3.618   7.277
19179WAT      O57778   9.853   6.694   2.659
19179WAT     H157779   9.844   6.793   2.660
19179WAT     H257780   9.784   6.654   2.719
19180WAT      O57781   8.004   2.317   9.401
19180WAT     H157782   7.978   2.383   9.471
19180WAT     H257783   8.023   2.228   9.444
19181WAT      O57784   0.314   3.539   4.407
19181WAT     H157785   0.259   3.534   4.491
19181WAT     H257786   0.376   3.616   4.413
19182WAT      O57787   5.231   0.096   2.760
19182WAT     H157788   5.315   0.088   2.707
19182WAT     H257789   5.164   0.029   2.728
19183WAT      O57790   5.600   8.424   5.369
19183WAT     H157791   5.671   8.443   5.301
19183WAT     H257792   5.641   8.383   5.450
19184WAT      O57793   4.467   3.397   5.459
19184WAT     H157794   4.430   3.357   5.375
19184WAT     H257795   4.503   3.324   5.517
19185WAT      O57796   3.061   3.983   1.798
19185WAT     H157797   3.150   4.004   1.839
19185WAT     H257798   3.073   3.960   1.701
19186WAT      O57799   9.444   8.175   2.160
19186WAT     H157800   9.455   8.076   2.154
19186WAT     H257801   9.398   8.209   2.078
19187WAT      O57802   5.087   9.595   4.890
19187WAT     H157803   5.001   9.594   4.941
19187WAT     H257804   5.071   9.630   4.798
19188WAT      O57805   3.006   5.800   8.528
19188WAT     H157806   2.965   5.760   8.610
19188WAT     H257807   3.097   5.835   8.550
19189WAT      O57808   7.110   1.311   8.832
19189WAT     H157809   7.155   1.383   8.884
19189WAT     H257810   7.176   1.267   8.771
19190WAT      O57811   9.204   3.680   2.319
19190WAT     H157812   9.283   3.734   2.347
19190WAT     H257813   9.212   3.588   2.358
19191WAT      O57814   2.606   7.636   4.095
19191WAT     H157815   2.582   7.576   4.171
19191WAT     H257816   2.525   7.653   4.039
19192WAT      O57817   8.941   0.912   2.379
19192WAT     H157818   8.896   0.824   2.363
19192WAT     H257819   8.918   0.944   2.471
19193WAT      O57820   2.914   3.259   5.856
19193WAT     H157821   2.969   3.184   5.893
19193WAT     H257822   2.929   3.266   5.757
19194WAT      O57823   4.466   3.511   7.467
19194WAT     H157824   4.384   3.564   7.446
19194WAT     H257825   4.512   3.551   7.546
19195WAT      O57826   1.779   1.072   6.230
19195WAT     H157827   1.797   0.984   6.274
19195WAT     H257828   1.683   1.077   6.203
19196WAT      O57829   2.667   3.923   6.613
19196WAT     H157830   2.628   4.014   6.624
19196WAT     H257831   2.594   3.857   6.600
19197WAT      O57832   8.520   3.268   1.166
19197WAT     H157833   8.433   3.236   1.203
19197WAT     H257834   8.535   3.226   1.076
19198WAT      O57835   8.146   1.608   9.654
19198WAT     H157836   8.062   1.662   9.666
19198WAT     H257837   8.218   1.666   9.616
19199WAT      O57838   2.211   6.939   2.966
19199WAT     H157839   2.114   6.912   2.971
19199WAT     H257840   2.251   6.933   3.058
19200WAT      O57841   3.960   7.637   0.293
19200WAT     H157842   4.016   7.594   0.222
19200WAT     H257843   4.005   7.626   0.382
19201WAT      O57844   8.786   4.820   7.949
19201WAT     H157845   8.709   4.862   7.901
19201WAT     H257846   8.762   4.727   7.976
19202WAT      O57847   5.025   2.561   9.342
19202WAT     H157848   4.995   2.580   9.436
19202WAT     H257849   5.125   2.560   9.338
19203WAT      O57850   9.858   1.838   8.487
19203WAT     H157851   9.778   1.834   8.427
19203WAT     H257852   9.891   1.933   8.491
19204WAT      O57853   1.170   7.314   4.081
19204WAT     H157854   1.129   7.228   4.113
19204WAT     H257855   1.267   7.300   4.063
19205WAT      O57856   9.126   7.153   0.090
19205WAT     H157857   9.091   7.059   0.088
19205WAT     H257858   9.224   7.152   0.071
19206WAT      O57859   7.509   5.312   1.893
19206WAT     H157860   7.594   5.357   1.919
19206WAT     H257861   7.484   5.244   1.962
19207WAT      O57862   6.150   7.698   9.357
19207WAT     H157863   6.125   7.771   9.293
19207WAT     H257864   6.140   7.609   9.312
19208WAT      O57865   7.201   9.458   9.084
19208WAT     H157866   7.218   9.420   8.993
19208WAT     H257867   7.268   9.530   9.104
19209WAT      O57868   0.876   8.392   7.077
19209WAT     H157869   0.923   8.471   7.037
19209WAT     H257870   0.871   8.403   7.176
19210WAT      O57871   6.696   3.095   5.477
19210WAT     H157872   6.764   3.165   5.458
19210WAT     H257873   6.630   3.130   5.544
19211WAT      O57874   8.271   8.966   3.244
19211WAT     H157875   8.322   9.020   3.312
19211WAT     H257876   8.175   8.961   3.272
19212WAT      O57877   3.779   7.513   2.577
19212WAT     H157878   3.733   7.472   2.498
19212WAT     H257879   3.711   7.544   2.643
19213WAT      O57880   2.936   8.318   2.430
19213WAT     H157881   2.909   8.222   2.427
19213WAT     H257882   2.908   8.363   2.346
19214WAT      O57883   6.054   9.014   6.115
19214WAT     H157884   5.968   9.043   6.073
19214WAT     H257885   6.131   9.038   6.055
19215WAT      O57886   5.597   2.015   0.497
19215WAT     H157887   5.598   2.072   0.579
19215WAT     H257888   5.688   1.977   0.481
19216WAT      O57889   9.680   6.295   5.806
19216WAT     H157890   9.589   6.294   5.847
19216WAT     H257891   9.745   6.333   5.871
19217WAT      O57892   2.567   2.752   0.721
19217WAT     H157893   2.549   2.672   0.779
19217WAT     H257894   2.609   2.722   0.635
19218WAT      O57895   5.716   8.274   5.564
19218WAT     H157896   5.785   8.202   5.569
19218WAT     H257897   5.627   8.239   5.594
19219WAT      O57898   0.434   1.756   2.009
19219WAT     H157899   0.516   1.703   1.987
19219WAT     H257900   0.354   1.713   1.967
19220WAT      O57901   2.545   5.487   1.314
19220WAT     H157902   2.626   5.541   1.338
19220WAT     H257903   2.479   5.493   1.389
19221WAT      O57904   3.396   3.589   2.298
19221WAT     H157905   3.329   3.657   2.268
19221WAT     H257906   3.350   3.520   2.354
19222WAT      O57907   8.726   7.339   5.486
19222WAT     H157908   8.741   7.413   5.420
19222WAT     H257909   8.629   7.334   5.510
19223WAT      O57910   0.322   1.385   3.948
19223WAT     H157911   0.238   1.412   3.995
19223WAT     H257912   0.304   1.306   3.889
19224WAT      O57913   1.564   4.333   9.042
19224WAT     H157914   1.649   4.324   8.989
19224WAT     H257915   1.537   4.430   9.045
19225WAT      O57916   0.601   7.594   7.864
19225WAT     H157917   0.560   7.659   7.800
19225WAT     H257918   0.591   7.628   7.957
19226WAT      O57919   5.496   4.967   1.049
19226WAT     H157920   5.547   4.882   1.068
19226WAT     H257921   5.558   5.034   1.010
19227WAT      O57922   6.641   6.137   8.591
19227WAT     H157923   6.716   6.093   8.641
19227WAT     H257924   6.554   6.109   8.631
19228WAT      O57925   2.918   8.882   4.919
19228WAT     H157926   2.917   8.784   4.900
19228WAT     H257927   2.864   8.930   4.849
19229WAT      O57928   8.409   0.620   7.835
19229WAT     H157929   8.483   0.590   7.775
19229WAT     H257930   8.323   0.622   7.785
19230WAT      O57931   0.121   6.463   4.310
19230WAT     H157932   0.042   6.514   4.274
19230WAT     H257933   0.150   6.503   4.397
19231WAT      O57934   9.753   4.576   0.023
19231WAT     H157935   9.724   4.647   0.086
19231WAT     H257936   9.681   4.559  -0.044
19232WAT      O57937   2.195   9.301   6.561
19232WAT     H157938   2.209   9.362   6.638
19232WAT     H257939   2.098   9.274   6.556
19233WAT      O57940   5.017   8.623   9.468
19233WAT     H157941   5.060   8.566   9.538
19233WAT     H257942   4.940   8.673   9.508
19234WAT      O57943   7.762   5.256   9.197
19234WAT     H157944   7.704   5.302   9.264
19234WAT     H257945   7.813   5.325   9.145
19235WAT      O57946   8.725   5.251   6.071
19235WAT     H157947   8.631   5.220   6.081
19235WAT     H257948   8.779   5.219   6.149
19236WAT      O57949   7.800   9.391   4.371
19236WAT     H157950   7.845   9.479   4.387
19236WAT     H257951   7.864   9.327   4.330
19237WAT      O57952   3.757   3.250   7.834
19237WAT     H157953   3.842   3.199   7.849
19237WAT     H257954   3.703   3.251   7.918
19238WAT      O57955   9.395   5.701   4.492
19238WAT     H157956   9.454   5.634   4.448
19238WAT     H257957   9.440   5.791   4.490
19239WAT      O57958   5.663   1.143   4.857
19239WAT     H157959   5.712   1.213   4.910
19239WAT     H257960   5.567   1.141   4.885
19240WAT      O57961   0.574   6.713   8.208
19240WAT     H157962   0.604   6.650   8.136
19240WAT     H257963   0.625   6.695   8.292
19241WAT      O57964   8.980   3.694   3.892
19241WAT     H157965   9.042   3.702   3.970
19241WAT     H257966   8.964   3.597   3.872
19242WAT      O57967   9.200   7.066   8.134
19242WAT     H157968   9.174   6.980   8.178
19242WAT     H257969   9.259   7.119   8.195
19243WAT      O57970   1.803   0.346   2.352
19243WAT     H157971   1.858   0.333   2.269
19243WAT     H257972   1.773   0.441   2.357
19244WAT      O57973   9.382   4.286   5.774
19244WAT     H157974   9.344   4.295   5.866
19244WAT     H257975   9.310   4.254   5.712
19245WAT      O57976   0.417   7.836   4.105
19245WAT     H157977   0.472   7.903   4.155
19245WAT     H257978   0.341   7.884   4.060
19246WAT      O57979   7.758   7.020   7.037
19246WAT     H157980   7.785   7.112   7.067
19246WAT     H257981   7.659   7.015   7.029
19247WAT      O57982   8.181   7.809   8.899
19247WAT     H157983   8.254   7.858   8.851
19247WAT     H257984   8.094   7.831   8.856
19248WAT      O57985   5.725   7.102   1.797
19248WAT     H157986   5.753   7.140   1.885
19248WAT     H257987   5.806   7.076   1.744
19249WAT      O57988   2.569   7.088   9.037
19249WAT     H157989   2.632   7.068   9.112
19249WAT     H257990   2.561   7.187   9.026
19250WAT      O57991   3.406   8.075   8.965
19250WAT     H157992   3.481   8.050   8.904
19250WAT     H257993   3.420   8.031   9.054
19251WAT      O57994   7.581   2.817   8.520
19251WAT     H157995   7.573   2.879   8.441
19251WAT     H257996   7.649   2.747   8.500
19252WAT      O57997   7.920   3.316   5.312
19252WAT     H157998   7.917   3.315   5.412
19252WAT     H257999   8.016   3.321   5.282
19253WAT      O58000   1.527   9.448   6.534
19253WAT     H158001   1.516   9.523   6.469
19253WAT     H258002   1.509   9.361   6.487
19254WAT      O58003   2.292   0.199   9.375
19254WAT     H158004   2.365   0.258   9.408
19254WAT     H258005   2.229   0.177   9.450
19255WAT      O58006   9.738   9.618   6.437
19255WAT     H158007   9.811   9.561   6.476
19255WAT     H258008   9.650   9.574   6.455
19256WAT      O58009   7.589   1.144   1.505
19256WAT     H158010   7.526   1.214   1.472
19256WAT     H258011   7.542   1.083   1.569
19257WAT      O58012   4.281   8.992   4.140
19257WAT     H158013   4.276   8.993   4.239
19257WAT     H258014   4.189   8.976   4.102
19258WAT      O58015   9.302   7.245   8.843
19258WAT     H158016   9.203   7.253   8.851
19258WAT     H258017   9.328   7.248   8.746
19259WAT      O58018   2.660   7.124   0.967
19259WAT     H158019   2.694   7.031   0.951
19259WAT     H258020   2.734   7.190   0.955
19260WAT      O58021   0.963   5.546   2.031
19260WAT     H158022   0.903   5.545   2.111
19260WAT     H258023   0.998   5.454   2.015
19261WAT      O58024   8.989   9.152   1.410
19261WAT     H158025   9.055   9.181   1.340
19261WAT     H258026   8.916   9.099   1.367
19262WAT      O58027   4.854   6.195   8.134
19262WAT     H158028   4.917   6.180   8.058
19262WAT     H258029   4.888   6.269   8.192
19263WAT      O58030   3.492   4.923   8.766
19263WAT     H158031   3.586   4.952   8.751
19263WAT     H258032   3.453   4.890   8.679
19264WAT      O58033   2.224   7.330   3.777
19264WAT     H158034   2.167   7.366   3.852
19264WAT     H258035   2.292   7.267   3.815
19265WAT      O58036   8.345   3.412   3.606
19265WAT     H158037   8.355   3.408   3.507
19265WAT     H258038   8.252   3.441   3.630
19266WAT      O58039   4.794   4.613   1.370
19266WAT     H158040   4.793   4.518   1.401
19266WAT     H258041   4.856   4.666   1.426
19267WAT      O58042   3.435   7.328   5.820
19267WAT     H158043   3.534   7.321   5.816
19267WAT     H258044   3.395   7.237   5.829
19268WAT      O58045   9.702   0.804   8.161
19268WAT     H158046   9.732   0.713   8.188
19268WAT     H258047   9.779   0.855   8.122
19269WAT      O58048   9.230   8.717   9.340
19269WAT     H158049   9.176   8.776   9.400
19269WAT     H258050   9.312   8.766   9.310
19270WAT      O58051   4.003   2.072   4.675
19270WAT     H158052   3.913   2.028   4.674
19270WAT     H258053   4.003   2.147   4.742
19271WAT      O58054   8.226   9.107   4.236
19271WAT     H158055   8.244   9.204   4.253
19271WAT     H258056   8.148   9.078   4.292
19272WAT      O58057   8.036   7.272   9.446
19272WAT     H158058   8.136   7.275   9.442
19272WAT     H258059   8.006   7.272   9.541
19273WAT      O58060   4.891   1.445   1.657
19273WAT     H158061   4.821   1.515   1.668
19273WAT     H258062   4.976   1.488   1.627
19274WAT      O58063   5.569   2.088   9.560
19274WAT     H158064   5.580   2.181   9.525
19274WAT     H258065   5.629   2.075   9.639
19275WAT      O58066   5.275   3.673   0.551
19275WAT     H158067   5.332   3.599   0.514
19275WAT     H258068   5.321   3.714   0.630
19276WAT      O58069   5.601   6.200   4.969
19276WAT     H158070   5.645   6.177   5.056
19276WAT     H258071   5.671   6.233   4.905
19277WAT      O58072   9.120   3.570   2.829
19277WAT     H158073   9.178   3.618   2.895
19277WAT     H258074   9.102   3.477   2.863
19278WAT      O58075   0.602   4.874   1.696
19278WAT     H158076   0.542   4.801   1.728
19278WAT     H258077   0.697   4.844   1.702
19279WAT      O58078   7.303   2.398   5.586
19279WAT     H158079   7.333   2.491   5.567
19279WAT     H258080   7.360   2.333   5.536
19280WAT      O58081   7.855   9.080   5.393
19280WAT     H158082   7.938   9.026   5.380
19280WAT     H258083   7.844   9.141   5.315
19281WAT      O58084   2.959   9.666   2.617
19281WAT     H158085   2.932   9.760   2.597
19281WAT     H258086   3.046   9.645   2.571
19282WAT      O58087   5.570   3.469   4.885
19282WAT     H158088   5.473   3.487   4.903
19282WAT     H258089   5.623   3.485   4.969
19283WAT      O58090   0.075   6.365   2.438
19283WAT     H158091   0.084   6.462   2.464
19283WAT     H258092   0.021   6.317   2.507
19284WAT      O58093   7.968   1.098   5.337
19284WAT     H158094   7.965   1.059   5.429
19284WAT     H258095   8.021   1.038   5.278
19285WAT      O58096   0.602   9.261   9.544
19285WAT     H158097   0.569   9.295   9.632
19285WAT     H258098   0.701   9.272   9.539
19286WAT      O58099   4.660   3.050   8.019
19286WAT     H158100   4.727   2.979   7.999
19286WAT     H258101   4.671   3.080   8.114
19287WAT      O58102   9.226   7.613   8.764
19287WAT     H158103   9.183   7.563   8.839
19287WAT     H258104   9.174   7.599   8.680
19288WAT      O58105   9.688   5.786   1.189
19288WAT     H158106   9.605   5.752   1.143
19288WAT     H258107   9.707   5.879   1.157
19289WAT      O58108   7.269   0.670   3.112
19289WAT     H158109   7.281   0.587   3.058
19289WAT     H258110   7.176   0.675   3.147
19290WAT      O58111   6.373   8.525   0.007
19290WAT     H158112   6.359   8.540   0.105
19290WAT     H258113   6.287   8.493  -0.034
19291WAT      O58114   5.137   9.386   3.675
19291WAT     H158115   5.101   9.476   3.699
19291WAT     H258116   5.061   9.321   3.668
19292WAT      O58117   0.586   8.096   7.553
19292WAT     H158118   0.604   8.150   7.470
19292WAT     H258119   0.574   8.000   7.528
19293WAT      O58120   6.747   0.578   5.645
19293WAT     H158121   6.700   0.576   5.733
19293WAT     H258122   6.827   0.519   5.648
19294WAT      O58123   8.491   8.448   5.867
19294WAT     H158124   8.517   8.353   5.885
19294WAT     H258125   8.558   8.510   5.908
19295WAT      O58126   5.435   0.205   3.135
19295WAT     H158127   5.391   0.292   3.158
19295WAT     H258128   5.367   0.141   3.099
19296WAT      O58129   7.488   7.056   4.583
19296WAT     H158130   7.449   6.982   4.529
19296WAT     H258131   7.494   7.139   4.527
19297WAT      O58132   1.478   8.314   4.242
19297WAT     H158133   1.514   8.357   4.325
19297WAT     H258134   1.404   8.370   4.205
19298WAT      O58135   6.186   5.352   9.848
19298WAT     H158136   6.087   5.339   9.856
19298WAT     H258137   6.220   5.304   9.767
19299WAT      O58138   8.291   8.931   1.719
19299WAT     H158139   8.341   9.004   1.674
19299WAT     H258140   8.322   8.923   1.814
19300WAT      O58141   3.706   6.956   3.960
19300WAT     H158142   3.751   7.040   3.990
19300WAT     H258143   3.607   6.965   3.974
19301WAT      O58144   2.049   5.899   2.313
19301WAT     H158145   2.092   5.907   2.223
19301WAT     H258146   2.112   5.930   2.384
19302WAT      O58147   0.806   3.498   6.062
19302WAT     H158148   0.882   3.432   6.069
19302WAT     H258149   0.783   3.512   5.966
19303WAT      O58150   5.303   4.430   1.526
19303WAT     H158151   5.205   4.425   1.510
19303WAT     H258152   5.347   4.348   1.490
19304WAT      O58153   5.488   8.168   5.299
19304WAT     H158154   5.405   8.191   5.248
19304WAT     H258155   5.534   8.253   5.326
19305WAT      O58156   0.020   6.016   2.695
19305WAT     H158157   0.002   5.936   2.639
19305WAT     H258158   0.119   6.033   2.698
19306WAT      O58159   1.542   6.359   4.000
19306WAT     H158160   1.599   6.279   3.981
19306WAT     H258161   1.518   6.403   3.913
19307WAT      O58162   2.129   8.724   4.749
19307WAT     H158163   2.187   8.714   4.668
19307WAT     H258164   2.034   8.708   4.724
19308WAT      O58165   8.420   0.796   1.775
19308WAT     H158166   8.363   0.879   1.771
19308WAT     H258167   8.514   0.819   1.748
19309WAT      O58168   3.372   4.041   8.590
19309WAT     H158169   3.404   3.962   8.537
19309WAT     H258170   3.423   4.123   8.562
19310WAT      O58171   6.444   0.010   2.364
19310WAT     H158172   6.510   0.071   2.321
19310WAT     H258173   6.361   0.061   2.387
19311WAT      O58174   9.743   0.910   1.682
19311WAT     H158175   9.672   0.979   1.668
19311WAT     H258176   9.701   0.819   1.689
19312WAT      O58177   5.651   1.134   1.924
19312WAT     H158178   5.646   1.038   1.897
19312WAT     H258179   5.742   1.154   1.961
19313WAT      O58180   2.882   0.344   2.305
19313WAT     H158181   2.786   0.372   2.297
19313WAT     H258182   2.930   0.408   2.365
19314WAT      O58183   1.129   3.838   5.035
19314WAT     H158184   1.053   3.795   5.084
19314WAT     H258185   1.133   3.935   5.057
19315WAT      O58186   9.318   7.191   3.798
19315WAT     H158187   9.319   7.147   3.888
19315WAT     H258188   9.251   7.146   3.739
19316WAT      O58189   9.239   2.863   1.127
19316WAT     H158190   9.251   2.864   1.028
19316WAT     H258191   9.322   2.827   1.170
19317WAT      O58192   9.804   5.221   8.837
19317WAT     H158193   9.705   5.208   8.830
19317WAT     H258194   9.832   5.212   8.932
19318WAT      O58195   0.519   7.787   2.896
19318WAT     H158196   0.593   7.728   2.864
19318WAT     H258197   0.450   7.733   2.943
19319WAT      O58198   0.647   2.608   2.117
19319WAT     H158199   0.739   2.581   2.088
19319WAT     H258200   0.621   2.692   2.069
19320WAT      O58201   1.321   2.160   2.873
19320WAT     H158202   1.282   2.068   2.879
19320WAT     H258203   1.297   2.202   2.785
19321WAT      O58204   8.561   5.019   5.858
19321WAT     H158205   8.659   5.029   5.841
19321WAT     H258206   8.539   5.053   5.949
19322WAT      O58207   4.957   2.963   6.347
19322WAT     H158208   5.027   2.967   6.418
19322WAT     H258209   4.891   2.891   6.370
19323WAT      O58210   6.249   4.648   0.128
19323WAT     H158211   6.154   4.665   0.103
19323WAT     H258212   6.254   4.617   0.222
19324WAT      O58213   2.149   5.204   8.842
19324WAT     H158214   2.156   5.242   8.934
19324WAT     H258215   2.080   5.255   8.791
19325WAT      O58216   2.946   9.735   2.879
19325WAT     H158217   2.921   9.668   2.949
19325WAT     H258218   2.942   9.693   2.789
19326WAT      O58219   8.042   6.502   1.031
19326WAT     H158220   8.070   6.451   0.950
19326WAT     H258221   8.010   6.593   1.003
19327WAT      O58222   8.440   8.989   8.936
19327WAT     H158223   8.449   8.996   9.035
19327WAT     H258224   8.382   9.062   8.902
19328WAT      O58225   8.144   0.299   6.066
19328WAT     H158226   8.161   0.299   5.967
19328WAT     H258227   8.231   0.289   6.114
19329WAT      O58228   6.475   5.662   4.362
19329WAT     H158229   6.546   5.643   4.295
19329WAT     H258230   6.392   5.610   4.339
19330WAT      O58231   1.481   3.588   2.499
19330WAT     H158232   1.519   3.533   2.425
19330WAT     H258233   1.413   3.651   2.462
19331WAT      O58234   4.760   1.375   9.209
19331WAT     H158235   4.753   1.464   9.163
19331WAT     H258236   4.687   1.315   9.176
19332WAT      O58237   1.574   6.502   3.488
19332WAT     H158238   1.488   6.503   3.438
19332WAT     H258239   1.650   6.510   3.424
19333WAT      O58240   8.218   8.938   6.208
19333WAT     H158241   8.148   8.910   6.275
19333WAT     H258242   8.276   9.008   6.249
19334WAT      O58243   1.673   0.365   7.868
19334WAT     H158244   1.576   0.362   7.889
19334WAT     H258245   1.688   0.336   7.773
19335WAT      O58246   1.288   1.443   6.759
19335WAT     H158247   1.210   1.405   6.709
19335WAT     H258248   1.323   1.375   6.823
19336WAT      O58249   4.516   5.830   0.652
19336WAT     H158250   4.594   5.774   0.677
19336WAT     H258251   4.491   5.813   0.557
19337WAT      O58252   1.890   9.835   1.419
19337WAT     H158253   1.905   9.847   1.517
19337WAT     H258254   1.855   9.920   1.379
19338WAT      O58255   9.657   9.142   6.629
19338WAT     H158256   9.691   9.086   6.705
19338WAT     H258257   9.681   9.237   6.645
19339WAT      O58258   0.872   7.400   9.799
19339WAT     H158259   0.864   7.301   9.806
19339WAT     H258260   0.801   7.443   9.854
19340WAT      O58261   1.119   5.359   3.300
19340WAT     H158262   1.136   5.366   3.202
19340WAT     H258263   1.198   5.395   3.349
19341WAT      O58264   4.589   0.455   2.216
19341WAT     H158265   4.501   0.408   2.206
19341WAT     H258266   4.654   0.419   2.149
19342WAT      O58267   0.855   1.766   7.054
19342WAT     H158268   0.803   1.733   6.975
19342WAT     H258269   0.903   1.851   7.029
19343WAT      O58270   4.920   5.127   4.790
19343WAT     H158271   4.843   5.147   4.852
19343WAT     H258272   4.912   5.184   4.708
19344WAT      O58273   5.657   9.241   0.944
19344WAT     H158274   5.654   9.327   0.894
19344WAT     H258275   5.566   9.221   0.982
19345WAT      O58276   0.035   9.101   8.418
19345WAT     H158277  -0.049   9.048   8.412
19345WAT     H258278   0.027   9.168   8.492
19346WAT      O58279   3.887   2.736   6.026
19346WAT     H158280   3.873   2.764   5.931
19346WAT     H258281   3.804   2.755   6.078
19347WAT      O58282   2.320   5.608   7.715
19347WAT     H158283   2.250   5.640   7.651
19347WAT     H258284   2.327   5.508   7.709
19348WAT      O58285   7.388   0.339   8.458
19348WAT     H158286   7.315   0.326   8.525
19348WAT     H258287   7.348   0.350   8.367
19349WAT      O58288   7.380   1.807   9.889
19349WAT     H158289   7.357   1.855   9.804
19349WAT     H258290   7.461   1.750   9.874
19350WAT      O58291   0.719   5.184   7.868
19350WAT     H158292   0.670   5.190   7.782
19350WAT     H258293   0.814   5.215   7.856
19351WAT      O58294   4.728   6.819   7.500
19351WAT     H158295   4.711   6.809   7.402
19351WAT     H258296   4.647   6.860   7.543
19352WAT      O58297   1.357   5.744   4.820
19352WAT     H158298   1.421   5.721   4.746
19352WAT     H258299   1.266   5.761   4.781
19353WAT      O58300   0.284   9.523   0.141
19353WAT     H158301   0.268   9.474   0.055
19353WAT     H258302   0.197   9.561   0.173
19354WAT      O58303   4.731   5.501   6.971
19354WAT     H158304   4.773   5.467   6.887
19354WAT     H258305   4.803   5.529   7.035
19355WAT      O58306   9.172   0.462   3.090
19355WAT     H158307   9.189   0.556   3.062
19355WAT     H258308   9.174   0.403   3.010
19356WAT      O58309   4.648   6.507   4.029
19356WAT     H158310   4.738   6.506   3.985
19356WAT     H258311   4.632   6.419   4.074
19357WAT      O58312   9.641   1.656   2.914
19357WAT     H158313   9.679   1.616   2.997
19357WAT     H258314   9.695   1.736   2.888
19358WAT      O58315   1.422   0.984   3.815
19358WAT     H158316   1.457   0.959   3.725
19358WAT     H258317   1.459   1.072   3.843
19359WAT      O58318   7.109   9.805   7.669
19359WAT     H158319   7.154   9.848   7.747
19359WAT     H258320   7.177   9.758   7.612
19360WAT      O58321   7.436   6.012   8.990
19360WAT     H158322   7.524   6.025   8.945
19360WAT     H258323   7.364   6.060   8.939
19361WAT      O58324   0.794   5.251   6.035
19361WAT     H158325   0.853   5.324   6.068
19361WAT     H258326   0.813   5.166   6.085
19362WAT      O58327   2.592   4.643   5.385
19362WAT     H158328   2.645   4.629   5.302
19362WAT     H258329   2.498   4.668   5.362
19363WAT      O58330   4.179   9.455   4.506
19363WAT     H158331   4.265   9.450   4.557
19363WAT     H258332   4.195   9.428   4.411
19364WAT      O58333   6.116   5.568   7.550
19364WAT     H158334   6.063   5.628   7.610
19364WAT     H258335   6.069   5.558   7.462
19365WAT      O58336   9.304   0.094   8.109
19365WAT     H158337   9.246   0.114   8.188
19365WAT     H258338   9.385   0.043   8.139
19366WAT      O58339   3.523   3.621   7.162
19366WAT     H158340   3.497   3.616   7.066
19366WAT     H258341   3.551   3.531   7.194
19367WAT      O58342   4.656   4.759   0.652
19367WAT     H158343   4.691   4.728   0.564
19367WAT     H258344   4.572   4.709   0.674
19368WAT      O58345   1.890   6.217   7.326
19368WAT     H158346   1.889   6.241   7.229
19368WAT     H258347   1.959   6.272   7.373
19369WAT      O58348   3.757   7.016   0.762
19369WAT     H158349   3.800   7.010   0.852
19369WAT     H258350   3.657   7.012   0.773
19370WAT      O58351   1.989   7.453   3.925
19370WAT     H158352   1.991   7.519   3.999
19370WAT     H258353   1.998   7.360   3.962
19371WAT      O58354   2.665   5.431   3.413
19371WAT     H158355   2.690   5.509   3.470
19371WAT     H258356   2.727   5.355   3.432
19372WAT      O58357   6.254   6.925   4.848
19372WAT     H158358   6.270   7.018   4.881
19372WAT     H258359   6.303   6.910   4.763
19373WAT      O58360   3.749   0.438   4.407
19373WAT     H158361   3.705   0.467   4.321
19373WAT     H258362   3.845   0.464   4.406
19374WAT      O58363   0.663   5.556   6.734
19374WAT     H158364   0.715   5.475   6.759
19374WAT     H258365   0.636   5.605   6.817
19375WAT      O58366   2.297   6.588   1.368
19375WAT     H158367   2.364   6.657   1.341
19375WAT     H258368   2.206   6.615   1.336
19376WAT      O58369   2.619   4.550   1.044
19376WAT     H158370   2.715   4.524   1.049
19376WAT     H258371   2.563   4.480   1.089
19377WAT      O58372   1.530   3.312   9.785
19377WAT     H158373   1.487   3.222   9.772
19377WAT     H258374   1.462   3.384   9.771
19378WAT      O58375   9.489   1.692   2.190
19378WAT     H158376   9.397   1.730   2.178
19378WAT     H258377   9.502   1.668   2.286
19379WAT      O58378   2.469   4.001   7.813
19379WAT     H158379   2.516   4.035   7.731
19379WAT     H258380   2.421   4.077   7.857
19380WAT      O58381   1.083   1.967   6.604
19380WAT     H158382   1.073   1.884   6.659
19380WAT     H258383   1.047   1.952   6.512
19381WAT      O58384   7.244   4.756   0.998
19381WAT     H158385   7.218   4.668   1.038
19381WAT     H258386   7.312   4.801   1.058
19382WAT      O58387   7.043   7.373   5.353
19382WAT     H158388   7.007   7.297   5.407
19382WAT     H258389   6.996   7.458   5.379
19383WAT      O58390   2.478   6.097   9.251
19383WAT     H158391   2.475   6.186   9.296
19383WAT     H258392   2.521   6.030   9.313
19384WAT      O58393   4.449   8.115   6.194
19384WAT     H158394   4.523   8.053   6.219
19384WAT     H258395   4.377   8.064   6.147
19385WAT      O58396   1.963   1.624   5.770
19385WAT     H158397   1.904   1.685   5.717
19385WAT     H258398   1.962   1.652   5.866
19386WAT      O58399   3.017   4.051   9.752
19386WAT     H158400   3.107   4.021   9.722
19386WAT     H258401   2.948   4.018   9.687
19387WAT      O58402   8.518   6.587   5.284
19387WAT     H158403   8.440   6.622   5.233
19387WAT     H258404   8.502   6.491   5.309
19388WAT      O58405   7.275   5.555   7.386
19388WAT     H158406   7.212   5.518   7.455
19388WAT     H258407   7.344   5.611   7.432
19389WAT      O58408   9.331   2.182   6.724
19389WAT     H158409   9.335   2.172   6.624
19389WAT     H258410   9.420   2.161   6.764
19390WAT      O58411   1.394   1.478   0.455
19390WAT     H158412   1.447   1.552   0.413
19390WAT     H258413   1.323   1.516   0.513
19391WAT      O58414   9.471   5.469   4.091
19391WAT     H158415   9.434   5.542   4.034
19391WAT     H258416   9.543   5.420   4.042
19392WAT      O58417   8.018   1.197   8.102
19392WAT     H158418   7.934   1.211   8.155
19392WAT     H258419   8.029   1.100   8.083
19393WAT      O58420   2.523   6.066   7.868
19393WAT     H158421   2.576   5.984   7.845
19393WAT     H258422   2.584   6.145   7.875
19394WAT      O58423   8.989   8.151   8.381
19394WAT     H158424   9.005   8.123   8.476
19394WAT     H258425   9.069   8.128   8.326
19395WAT      O58426   8.679   2.880   9.542
19395WAT     H158427   8.703   2.839   9.630
19395WAT     H258428   8.644   2.810   9.480
19396WAT      O58429   7.938   6.673   4.293
19396WAT     H158430   8.025   6.670   4.244
19396WAT     H258431   7.947   6.621   4.379
19397WAT      O58432   1.598   8.348   7.106
19397WAT     H158433   1.607   8.358   7.007
19397WAT     H258434   1.611   8.252   7.131
19398WAT      O58435   2.973   1.491   6.039
19398WAT     H158436   2.924   1.413   6.081
19398WAT     H258437   3.068   1.489   6.068
19399WAT      O58438   1.147   7.096   3.506
19399WAT     H158439   1.135   7.078   3.408
19399WAT     H258440   1.057   7.108   3.548
19400WAT      O58441   8.538   1.852   9.651
19400WAT     H158442   8.591   1.875   9.570
19400WAT     H258443   8.445   1.826   9.625
19401WAT      O58444   8.243   2.516   2.072
19401WAT     H158445   8.244   2.420   2.044
19401WAT     H258446   8.335   2.544   2.098
19402WAT      O58447   7.935   5.349   1.184
19402WAT     H158448   7.869   5.318   1.115
19402WAT     H258449   7.988   5.425   1.147
19403WAT      O58450   1.635   0.744   4.443
19403WAT     H158451   1.542   0.761   4.477
19403WAT     H258452   1.691   0.826   4.459
19404WAT      O58453   5.519   4.188   3.241
19404WAT     H158454   5.595   4.232   3.289
19404WAT     H258455   5.538   4.090   3.231
19405WAT      O58456   6.606   7.491   5.485
19405WAT     H158457   6.627   7.572   5.540
19405WAT     H258458   6.679   7.424   5.495
19406WAT      O58459   2.282   3.182   7.592
19406WAT     H158460   2.233   3.154   7.674
19406WAT     H258461   2.371   3.219   7.617
19407WAT      O58462   5.758   7.079   2.178
19407WAT     H158463   5.778   6.999   2.122
19407WAT     H258464   5.832   7.095   2.243
19408WAT      O58465   1.937   4.982   8.683
19408WAT     H158466   1.905   5.012   8.773
19408WAT     H258467   2.002   4.907   8.694
19409WAT      O58468   2.577   4.018   9.521
19409WAT     H158469   2.591   4.087   9.449
19409WAT     H258470   2.480   3.995   9.527
19410WAT      O58471   1.732   3.015   3.383
19410WAT     H158472   1.825   3.030   3.349
19410WAT     H258473   1.684   2.952   3.322
19411WAT      O58474   1.155   2.545   9.421
19411WAT     H158475   1.202   2.566   9.336
19411WAT     H258476   1.190   2.605   9.494
19412WAT      O58477   6.204   1.831   2.405
19412WAT     H158478   6.109   1.800   2.404
19412WAT     H258479   6.237   1.836   2.499
19413WAT      O58480   9.535   2.532   3.327
19413WAT     H158481   9.582   2.618   3.341
19413WAT     H258482   9.509   2.493   3.415
19414WAT      O58483   6.894   1.304   0.968
19414WAT     H158484   6.949   1.222   0.951
19414WAT     H258485   6.926   1.378   0.910
19415WAT      O58486   4.262   3.081   6.212
19415WAT     H158487   4.179   3.043   6.171
19415WAT     H258488   4.336   3.014   6.205
19416WAT      O58489   9.446   9.448   7.697
19416WAT     H158490   9.540   9.444   7.733
19416WAT     H258491   9.404   9.535   7.724
19417WAT      O58492   4.662   1.771   7.525
19417WAT     H158493   4.739   1.717   7.559
19417WAT     H258494   4.592   1.778   7.596
19418WAT      O58495   2.407   6.890   3.701
19418WAT     H158496   2.424   6.951   3.778
19418WAT     H258497   2.443   6.932   3.617
19419WAT      O58498   6.284   3.887   3.201
19419WAT     H158499   6.195   3.929   3.183
19419WAT     H258500   6.344   3.954   3.244
19420WAT      O58501   2.517   2.567   7.239
19420WAT     H158502   2.579   2.488   7.241
19420WAT     H258503   2.438   2.546   7.181
19421WAT      O58504   9.385   2.054   1.895
19421WAT     H158505   9.319   2.001   1.948
19421WAT     H258506   9.342   2.139   1.865
19422WAT      O58507   4.084   6.344   7.574
19422WAT     H158508   4.142   6.345   7.655
19422WAT     H258509   4.141   6.340   7.492
19423WAT      O58510   6.119   4.607   1.560
19423WAT     H158511   6.213   4.572   1.557
19423WAT     H258512   6.056   4.533   1.536
19424WAT      O58513   6.250   4.984   9.782
19424WAT     H158514   6.177   4.986   9.851
19424WAT     H258515   6.328   4.935   9.818
19425WAT      O58516   6.293   2.987   7.123
19425WAT     H158517   6.234   3.061   7.155
19425WAT     H258518   6.387   3.021   7.112
19426WAT      O58519   6.526   4.982   4.194
19426WAT     H158520   6.583   4.957   4.272
19426WAT     H258521   6.572   4.956   4.109
19427WAT      O58522   2.710   6.042   5.523
19427WAT     H158523   2.751   6.100   5.452
19427WAT     H258524   2.625   6.002   5.489
19428WAT      O58525   7.768   8.410   0.544
19428WAT     H158526   7.705   8.332   0.539
19428WAT     H258527   7.807   8.417   0.635
19429WAT      O58528   0.975   3.149   0.473
19429WAT     H158529   1.025   3.229   0.441
19429WAT     H258530   0.887   3.178   0.511
19430WAT      O58531   7.699   5.746   1.318
19430WAT     H158532   7.700   5.773   1.415
19430WAT     H258533   7.614   5.777   1.276
19431WAT      O58534   0.644   6.500   0.853
19431WAT     H158535   0.570   6.433   0.851
19431WAT     H258536   0.629   6.565   0.928
19432WAT      O58537   3.245   1.431   3.341
19432WAT     H158538   3.153   1.429   3.302
19432WAT     H258539   3.284   1.339   3.337
19433WAT      O58540   8.829   5.304   2.621
19433WAT     H158541   8.782   5.268   2.540
19433WAT     H258542   8.895   5.374   2.593
19434WAT      O58543   8.334   8.273   9.080
19434WAT     H158544   8.417   8.232   9.042
19434WAT     H258545   8.359   8.340   9.149
19435WAT      O58546   5.665   6.103   5.224
19435WAT     H158547   5.676   6.140   5.317
19435WAT     H258548   5.689   6.007   5.223
19436WAT      O58549   7.449   9.828   4.269
19436WAT     H158550   7.469   9.894   4.341
19436WAT     H258551   7.460   9.871   4.179
19437WAT      O58552   2.456   9.149   9.578
19437WAT     H158553   2.406   9.072   9.617
19437WAT     H258554   2.392   9.208   9.528
19438WAT      O58555   0.428   5.846   9.588
19438WAT     H158556   0.462   5.872   9.678
19438WAT     H258557   0.393   5.926   9.540
19439WAT      O58558   6.057   3.455   2.374
19439WAT     H158559   6.085   3.394   2.447
19439WAT     H258560   5.977   3.508   2.403
19440WAT      O58561   1.991   4.375   0.693
19440WAT     H158562   2.038   4.431   0.761
19440WAT     H258563   1.905   4.418   0.668
19441WAT      O58564   9.015   8.088   7.314
19441WAT     H158565   9.080   8.015   7.293
19441WAT     H258566   9.034   8.167   7.257
19442WAT      O58567   9.670   2.457   7.337
19442WAT     H158568   9.659   2.479   7.434
19442WAT     H258569   9.591   2.490   7.286
19443WAT      O58570   1.555   7.726   8.689
19443WAT     H158571   1.525   7.632   8.710
19443WAT     H258572   1.576   7.732   8.591
19444WAT      O58573   4.641   3.446   9.170
19444WAT     H158574   4.682   3.533   9.142
19444WAT     H258575   4.667   3.426   9.265
19445WAT      O58576   2.440   4.588   1.901
19445WAT     H158577   2.364   4.580   1.837
19445WAT     H258578   2.493   4.503   1.902
19446WAT      O58579   5.987   7.076   5.453
19446WAT     H158580   6.029   7.009   5.514
19446WAT     H258581   5.989   7.041   5.359
19447WAT      O58582   8.332   1.930   5.707
19447WAT     H158583   8.355   1.982   5.625
19447WAT     H258584   8.265   1.860   5.685
19448WAT      O58585   4.610   7.657   6.314
19448WAT     H158586   4.657   7.606   6.385
19448WAT     H258587   4.585   7.596   6.239
19449WAT      O58588   7.497   2.350   9.888
19449WAT     H158589   7.577   2.404   9.914
19449WAT     H258590   7.416   2.388   9.932
19450WAT      O58591   6.725   1.828   1.899
19450WAT     H158592   6.658   1.756   1.883
19450WAT     H258593   6.793   1.797   1.965
19451WAT      O58594   2.314   4.164   0.185
19451WAT     H158595   2.401   4.182   0.138
19451WAT     H258596   2.238   4.183   0.123
19452WAT      O58597   5.442   2.504   5.281
19452WAT     H158598   5.433   2.584   5.221
19452WAT     H258599   5.351   2.476   5.313
19453WAT      O58600   2.977   7.714   9.419
19453WAT     H158601   3.012   7.786   9.359
19453WAT     H258602   3.049   7.647   9.437
19454WAT      O58603   5.925   5.852   8.046
19454WAT     H158604   5.979   5.936   8.057
19454WAT     H258605   5.846   5.856   8.107
19455WAT      O58606   1.511   7.183   3.287
19455WAT     H158607   1.490   7.243   3.210
19455WAT     H258608   1.605   7.198   3.317
19456WAT      O58609   9.155   9.267   0.911
19456WAT     H158610   9.104   9.184   0.938
19456WAT     H258611   9.217   9.244   0.837
19457WAT      O58612   6.071   1.735   1.528
19457WAT     H158613   6.047   1.643   1.497
19457WAT     H258614   6.024   1.803   1.471
19458WAT      O58615   3.900   9.633   9.660
19458WAT     H158616   3.981   9.668   9.706
19458WAT     H258617   3.821   9.689   9.686
19459WAT      O58618   9.831   9.422   2.352
19459WAT     H158619   9.906   9.431   2.286
19459WAT     H258620   9.796   9.513   2.376
19460WAT      O58621   0.085   0.840   8.961
19460WAT     H158622  -0.004   0.800   8.985
19460WAT     H258623   0.146   0.835   9.040
19461WAT      O58624   7.040   4.613   9.820
19461WAT     H158625   6.963   4.635   9.879
19461WAT     H258626   7.042   4.677   9.743
19462WAT      O58627   2.265   1.505   7.738
19462WAT     H158628   2.344   1.558   7.770
19462WAT     H258629   2.198   1.568   7.699
19463WAT      O58630   1.361   2.455   4.919
19463WAT     H158631   1.326   2.421   4.832
19463WAT     H258632   1.401   2.546   4.906
19464WAT      O58633   6.893   0.032   5.712
19464WAT     H158634   6.855   0.119   5.741
19464WAT     H258635   6.992   0.042   5.696
19465WAT      O58636   5.574   5.411   9.524
19465WAT     H158637   5.643   5.414   9.596
19465WAT     H258638   5.493   5.461   9.554
19466WAT      O58639   6.952   1.155   5.033
19466WAT     H158640   6.913   1.063   5.043
19466WAT     H258641   6.890   1.222   5.074
19467WAT      O58642   9.333   8.574   1.121
19467WAT     H158643   9.301   8.608   1.209
19467WAT     H258644   9.274   8.608   1.048
19468WAT      O58645   9.617   0.636   2.540
19468WAT     H158646   9.664   0.634   2.452
19468WAT     H258647   9.600   0.731   2.567
19469WAT      O58648   3.934   3.893   7.884
19469WAT     H158649   3.927   3.856   7.791
19469WAT     H258650   4.031   3.904   7.908
19470WAT      O58651   1.621   0.787   2.155
19470WAT     H158652   1.628   0.778   2.254
19470WAT     H258653   1.541   0.841   2.132
19471WAT      O58654   9.377   2.164   8.897
19471WAT     H158655   9.400   2.214   8.814
19471WAT     H258656   9.332   2.226   8.962
19472WAT      O58657   3.877   4.842   0.549
19472WAT     H158658   3.792   4.804   0.583
19472WAT     H258659   3.901   4.799   0.462
19473WAT      O58660   8.278   4.696   8.398
19473WAT     H158661   8.356   4.639   8.374
19473WAT     H258662   8.193   4.645   8.381
19474WAT      O58663   7.226   6.493   1.782
19474WAT     H158664   7.209   6.586   1.815
19474WAT     H258665   7.155   6.432   1.816
19475WAT      O58666   3.854   8.456   7.067
19475WAT     H158667   3.855   8.440   7.166
19475WAT     H258668   3.887   8.374   7.020
19476WAT      O58669   2.546   3.152   5.904
19476WAT     H158670   2.591   3.066   5.930
19476WAT     H258671   2.539   3.211   5.985
19477WAT      O58672   2.157   5.889   4.532
19477WAT     H158673   2.147   5.957   4.460
19477WAT     H258674   2.085   5.819   4.523
19478WAT      O58675   5.277   3.531   5.714
19478WAT     H158676   5.300   3.588   5.635
19478WAT     H258677   5.215   3.581   5.774
19479WAT      O58678   5.925   9.723   7.497
19479WAT     H158679   5.938   9.747   7.401
19479WAT     H258680   5.855   9.782   7.537
19480WAT      O58681   5.414   3.448   5.984
19480WAT     H158682   5.504   3.476   6.015
19480WAT     H258683   5.401   3.478   5.889
19481WAT      O58684   7.708   7.515   7.995
19481WAT     H158685   7.788   7.456   8.003
19481WAT     H258686   7.710   7.562   7.907
19482WAT      O58687   1.042   0.528   1.091
19482WAT     H158688   0.954   0.557   1.129
19482WAT     H258689   1.027   0.489   1.001
19483WAT      O58690   9.719   2.534   8.866
19483WAT     H158691   9.772   2.483   8.934
19483WAT     H258692   9.778   2.559   8.789
19484WAT      O58693   1.274   4.061   2.723
19484WAT     H158694   1.328   4.139   2.689
19484WAT     H258695   1.332   4.005   2.783
19485WAT      O58696   7.485   0.626   2.383
19485WAT     H158697   7.442   0.677   2.308
19485WAT     H258698   7.523   0.540   2.347
19486WAT      O58699   2.035   0.475   8.816
19486WAT     H158700   1.952   0.451   8.766
19486WAT     H258701   2.010   0.513   8.905
19487WAT      O58702   8.522   6.357   6.946
19487WAT     H158703   8.614   6.392   6.963
19487WAT     H258704   8.508   6.345   6.847
19488WAT      O58705   7.128   4.749   3.018
19488WAT     H158706   7.166   4.761   3.110
19488WAT     H258707   7.192   4.696   2.962
19489WAT      O58708   2.176   6.466   5.730
19489WAT     H158709   2.182   6.564   5.746
19489WAT     H258710   2.089   6.431   5.764
19490WAT      O58711   6.718   8.704   7.523
19490WAT     H158712   6.793   8.648   7.558
19490WAT     H258713   6.756   8.785   7.477
19491WAT      O58714   1.892   6.733   5.275
19491WAT     H158715   1.925   6.639   5.265
19491WAT     H258716   1.823   6.737   5.347
19492WAT      O58717   5.003   5.911   9.059
19492WAT     H158718   5.093   5.870   9.073
19492WAT     H258719   5.011   6.010   9.059
19493WAT      O58720   1.301   5.500   9.510
19493WAT     H158721   1.323   5.531   9.417
19493WAT     H258722   1.249   5.415   9.505
19494WAT      O58723   6.076   1.897   4.918
19494WAT     H158724   6.088   1.994   4.936
19494WAT     H258725   6.159   1.859   4.877
19495WAT      O58726   1.051   8.320   4.539
19495WAT     H158727   1.022   8.225   4.527
19495WAT     H258728   1.138   8.321   4.589
19496WAT      O58729   3.386   7.807   5.060
19496WAT     H158730   3.452   7.822   4.986
19496WAT     H258731   3.416   7.857   5.141
19497WAT      O58732   8.488   2.650   8.456
19497WAT     H158733   8.429   2.723   8.491
19497WAT     H258734   8.452   2.617   8.368
19498WAT      O58735   0.859   8.784   8.308
19498WAT     H158736   0.816   8.778   8.218
19498WAT     H258737   0.957   8.801   8.297
19499WAT      O58738   5.430   0.638   3.298
19499WAT     H158739   5.342   0.599   3.324
19499WAT     H258740   5.439   0.637   3.198
19500WAT      O58741   6.025   7.125   9.755
19500WAT     H158742   5.953   7.055   9.749
19500WAT     H258743   6.060   7.128   9.849
19501WAT      O58744   2.418   1.928   5.966
19501WAT     H158745   2.332   1.937   5.917
19501WAT     H258746   2.493   1.959   5.908
19502WAT      O58747   5.204   7.108   0.542
19502WAT     H158748   5.250   7.114   0.453
19502WAT     H258749   5.115   7.154   0.537
19503WAT      O58750   0.342   2.188   7.547
19503WAT     H158751   0.247   2.220   7.554
19503WAT     H258752   0.344   2.097   7.506
19504WAT      O58753   5.955   3.276   9.337
19504WAT     H158754   5.969   3.327   9.252
19504WAT     H258755   5.894   3.199   9.320
19505WAT      O58756   8.614   0.631   4.941
19505WAT     H158757   8.652   0.618   5.033
19505WAT     H258758   8.639   0.722   4.908
19506WAT      O58759   9.284   4.449   0.847
19506WAT     H158760   9.307   4.388   0.923
19506WAT     H258761   9.335   4.534   0.856
19507WAT      O58762   3.381   6.058   4.185
19507WAT     H158763   3.342   6.147   4.163
19507WAT     H258764   3.353   6.030   4.277
19508WAT      O58765   3.744   4.318   9.686
19508WAT     H158766   3.785   4.394   9.635
19508WAT     H258767   3.648   4.310   9.661
19509WAT      O58768   2.861   0.148   2.842
19509WAT     H158769   2.899   0.055   2.846
19509WAT     H258770   2.879   0.188   2.752
19510WAT      O58771   6.250   4.039   2.077
19510WAT     H158772   6.292   4.104   2.140
19510WAT     H258773   6.241   4.081   1.987
19511WAT      O58774   2.977   0.184   0.312
19511WAT     H158775   2.999   0.153   0.404
19511WAT     H258776   2.922   0.268   0.317
19512WAT      O58777   7.116   5.775   6.966
19512WAT     H158778   7.169   5.723   6.899
19512WAT     H258779   7.042   5.823   6.919
19513WAT      O58780   7.599   7.194   7.999
19513WAT     H158781   7.538   7.255   7.948
19513WAT     H258782   7.694   7.217   7.979
19514WAT      O58783   0.413   4.266   3.045
19514WAT     H158784   0.474   4.199   3.088
19514WAT     H258785   0.322   4.227   3.036
19515WAT      O58786   4.481   7.124   0.048
19515WAT     H158787   4.471   7.192  -0.025
19515WAT     H258788   4.578   7.118   0.075
19516WAT      O58789   5.372   8.941   8.377
19516WAT     H158790   5.306   8.907   8.444
19516WAT     H258791   5.458   8.890   8.387
19517WAT      O58792   1.651   0.049   6.593
19517WAT     H158793   1.580   0.049   6.522
19517WAT     H258794   1.615   0.010   6.677
19518WAT      O58795   9.654   9.330   5.935
19518WAT     H158796   9.642   9.237   5.901
19518WAT     H258797   9.737   9.335   5.991
19519WAT      O58798   3.269   9.130   8.600
19519WAT     H158799   3.186   9.181   8.623
19519WAT     H258800   3.268   9.108   8.502
19520WAT      O58801   4.968   4.475   8.218
19520WAT     H158802   4.969   4.452   8.316
19520WAT     H258803   4.959   4.574   8.208
19521WAT      O58804   2.929   2.073   3.688
19521WAT     H158805   2.904   2.131   3.766
19521WAT     H258806   3.020   2.099   3.655
19522WAT      O58807   3.338   6.663   4.496
19522WAT     H158808   3.414   6.674   4.561
19522WAT     H258809   3.322   6.749   4.449
19523WAT      O58810   1.137   9.506   6.448
19523WAT     H158811   1.200   9.437   6.413
19523WAT     H258812   1.044   9.468   6.453
19524WAT      O58813   2.415   3.763   4.389
19524WAT     H158814   2.490   3.698   4.403
19524WAT     H258815   2.344   3.720   4.332
19525WAT      O58816   6.180   0.483   6.010
19525WAT     H158817   6.182   0.496   5.911
19525WAT     H258818   6.185   0.385   6.031
19526WAT      O58819   4.419   9.802   6.917
19526WAT     H158820   4.506   9.808   6.966
19526WAT     H258821   4.376   9.713   6.935
19527WAT      O58822   8.377   9.696   6.190
19527WAT     H158823   8.368   9.638   6.271
19527WAT     H258824   8.411   9.641   6.113
19528WAT      O58825   0.729   1.785   4.444
19528WAT     H158826   0.804   1.777   4.508
19528WAT     H258827   0.644   1.752   4.487
19529WAT      O58828   8.204   5.726   0.518
19529WAT     H158829   8.242   5.727   0.425
19529WAT     H258830   8.113   5.685   0.517
19530WAT      O58831   6.872   3.380   6.219
19530WAT     H158832   6.855   3.372   6.318
19530WAT     H258833   6.944   3.448   6.203
19531WAT      O58834   9.513   6.504   3.509
19531WAT     H158835   9.483   6.477   3.418
19531WAT     H258836   9.583   6.576   3.502
19532WAT      O58837   6.899   8.516   4.734
19532WAT     H158838   6.957   8.443   4.697
19532WAT     H258839   6.956   8.588   4.771
19533WAT      O58840   6.442   6.705   1.689
19533WAT     H158841   6.475   6.799   1.695
19533WAT     H258842   6.359   6.702   1.632
19534WAT      O58843   5.191   4.700   7.310
19534WAT     H158844   5.182   4.782   7.254
19534WAT     H258845   5.121   4.633   7.284
19535WAT      O58846   2.037   3.766   5.567
19535WAT     H158847   2.128   3.737   5.596
19535WAT     H258848   1.979   3.686   5.552
19536WAT      O58849   2.082   0.184   2.436
19536WAT     H158850   2.019   0.110   2.413
19536WAT     H258851   2.094   0.243   2.356
19537WAT      O58852   3.549   5.274   6.882
19537WAT     H158853   3.496   5.293   6.964
19537WAT     H258854   3.633   5.225   6.906
19538WAT      O58855   1.321   4.362   7.474
19538WAT     H158856   1.241   4.306   7.456
19538WAT     H258857   1.400   4.304   7.491
19539WAT      O58858   4.860   2.078   7.767
19539WAT     H158859   4.853   2.021   7.849
19539WAT     H258860   4.916   2.032   7.699
19540WAT      O58861   1.276   0.295   7.332
19540WAT     H158862   1.191   0.280   7.382
19540WAT     H258863   1.283   0.230   7.257
19541WAT      O58864   7.381   4.961   4.578
19541WAT     H158865   7.478   4.943   4.562
19541WAT     H258866   7.327   4.879   4.559
19542WAT      O58867   0.282   1.887   9.020
19542WAT     H158868   0.290   1.920   8.926
19542WAT     H258869   0.327   1.798   9.029
19543WAT      O58870   1.871   0.182   0.785
19543WAT     H158871   1.836   0.276   0.788
19543WAT     H258872   1.848   0.136   0.871
19544WAT      O58873   7.669   7.659   3.968
19544WAT     H158874   7.623   7.625   3.886
19544WAT     H258875   7.717   7.744   3.947
19545WAT      O58876   1.291   5.687   2.523
19545WAT     H158877   1.315   5.770   2.474
19545WAT     H258878   1.193   5.685   2.541
19546WAT      O58879   8.096   8.020   3.685
19546WAT     H158880   8.092   7.927   3.649
19546WAT     H258881   8.078   8.019   3.783
19547WAT      O58882   5.846   8.589   0.402
19547WAT     H158883   5.783   8.665   0.381
19547WAT     H258884   5.822   8.510   0.347
19548WAT      O58885   8.247   0.881   2.728
19548WAT     H158886   8.301   0.949   2.778
19548WAT     H258887   8.296   0.794   2.726
19549WAT      O58888   8.794   6.292   6.136
19549WAT     H158889   8.725   6.352   6.176
19549WAT     H258890   8.820   6.326   6.046
19550WAT      O58891   5.736   8.078   8.688
19550WAT     H158892   5.709   7.987   8.656
19550WAT     H258893   5.669   8.146   8.658
19551WAT      O58894   6.740   5.630   9.672
19551WAT     H158895   6.674   5.571   9.719
19551WAT     H258896   6.793   5.575   9.607
19552WAT      O58897   5.285   0.102   1.346
19552WAT     H158898   5.356   0.170   1.327
19552WAT     H258899   5.300   0.062   1.436
19553WAT      O58900   4.964   2.789   1.347
19553WAT     H158901   4.980   2.882   1.314
19553WAT     H258902   4.905   2.792   1.428
19554WAT      O58903   4.266   3.647   6.548
19554WAT     H158904   4.218   3.646   6.461
19554WAT     H258905   4.353   3.697   6.538
19555WAT      O58906   6.501   2.940   1.243
19555WAT     H158907   6.507   2.855   1.190
19555WAT     H258908   6.506   2.918   1.341
19556WAT      O58909   8.016   8.644   7.423
19556WAT     H158910   7.954   8.604   7.356
19556WAT     H258911   8.087   8.696   7.376
19557WAT      O58912   4.267   1.390   8.757
19557WAT     H158913   4.177   1.421   8.724
19557WAT     H258914   4.291   1.305   8.710
19558WAT      O58915   8.420   3.364   0.314
19558WAT     H158916   8.368   3.421   0.377
19558WAT     H258917   8.358   3.316   0.252
19559WAT      O58918   3.257   3.348   9.138
19559WAT     H158919   3.298   3.389   9.056
19559WAT     H258920   3.171   3.304   9.114
19560WAT      O58921   4.554   6.246   6.820
19560WAT     H158922   4.640   6.233   6.771
19560WAT     H258923   4.484   6.275   6.755
19561WAT      O58924   7.805   1.470   7.352
19561WAT     H158925   7.825   1.387   7.405
19561WAT     H258926   7.870   1.477   7.276
19562WAT      O58927   0.708   9.355   5.214
19562WAT     H158928   0.766   9.279   5.242
19562WAT     H258929   0.764   9.435   5.195
19563WAT      O58930   2.795   0.752   0.636
19563WAT     H158931   2.820   0.815   0.709
19563WAT     H258932   2.850   0.771   0.555
19564WAT      O58933   7.794   6.448   4.172
19564WAT     H158934   7.838   6.524   4.220
19564WAT     H258935   7.703   6.475   4.141
19565WAT      O58936   6.279   5.584   5.362
19565WAT     H158937   6.184   5.555   5.360
19565WAT     H258938   6.313   5.583   5.456
19566WAT      O58939   1.505   2.012   1.203
19566WAT     H158940   1.481   2.035   1.109
19566WAT     H258941   1.430   1.962   1.246
19567WAT      O58942   5.999   8.795   5.265
19567WAT     H158943   5.943   8.789   5.348
19567WAT     H258944   6.094   8.815   5.290
19568WAT      O58945   3.700   8.276   5.662
19568WAT     H158946   3.701   8.289   5.761
19568WAT     H258947   3.731   8.183   5.641
19569WAT      O58948   2.002   2.003   5.272
19569WAT     H158949   2.081   2.049   5.232
19569WAT     H258950   2.022   1.980   5.368
19570WAT      O58951   9.214   7.792   6.338
19570WAT     H158952   9.218   7.839   6.250
19570WAT     H258953   9.290   7.822   6.396
19571WAT      O58954   3.645   3.653   7.715
19571WAT     H158955   3.569   3.672   7.777
19571WAT     H258956   3.620   3.576   7.656
19572WAT      O58957   0.144   0.148   4.880
19572WAT     H158958   0.121   0.217   4.949
19572WAT     H258959   0.236   0.166   4.845
19573WAT      O58960   7.000   4.978   6.817
19573WAT     H158961   6.954   4.924   6.887
19573WAT     H258962   6.943   4.982   6.735
19574WAT      O58963   8.151   8.542   2.233
19574WAT     H158964   8.206   8.608   2.182
19574WAT     H258965   8.062   8.531   2.189
19575WAT      O58966   9.498   7.591   7.818
19575WAT     H158967   9.435   7.525   7.776
19575WAT     H258968   9.520   7.663   7.752
19576WAT      O58969   0.511   1.148   2.553
19576WAT     H158970   0.549   1.182   2.638
19576WAT     H258971   0.444   1.077   2.573
19577WAT      O58972   1.045   2.396   4.362
19577WAT     H158973   1.003   2.307   4.344
19577WAT     H258974   0.985   2.449   4.423
19578WAT      O58975   9.311   7.283   5.583
19578WAT     H158976   9.408   7.306   5.581
19578WAT     H258977   9.291   7.229   5.664
19579WAT      O58978   1.573   6.042   8.607
19579WAT     H158979   1.520   5.989   8.541
19579WAT     H258980   1.670   6.026   8.593
19580WAT      O58981   6.690   7.584   8.864
19580WAT     H158982   6.733   7.563   8.951
19580WAT     H258983   6.707   7.510   8.799
19581WAT      O58984   5.481   2.412   2.522
19581WAT     H158985   5.543   2.490   2.531
19581WAT     H258986   5.413   2.414   2.595
19582WAT      O58987   7.285   9.832   1.079
19582WAT     H158988   7.299   9.861   0.984
19582WAT     H258989   7.187   9.830   1.100
19583WAT      O58990   2.905   3.551   2.743
19583WAT     H158991   2.969   3.576   2.815
19583WAT     H258992   2.826   3.504   2.783
19584WAT      O58993   8.228   2.145   6.907
19584WAT     H158994   8.189   2.072   6.850
19584WAT     H258995   8.190   2.233   6.878
19585WAT      O58996   8.299   1.097   6.634
19585WAT     H158997   8.219   1.143   6.675
19585WAT     H258998   8.368   1.166   6.611
19586WAT      O58999   1.226   4.513   4.034
19586WAT     H159000   1.279   4.569   4.098
19586WAT     H259001   1.188   4.434   4.081
19587WAT      O59002   3.684   4.504   6.451
19587WAT     H159003   3.739   4.440   6.504
19587WAT     H259004   3.743   4.552   6.386
19588WAT      O59005   7.964   2.882   3.199
19588WAT     H159006   7.939   2.788   3.222
19588WAT     H259007   7.903   2.916   3.127
19589WAT      O59008   2.965   0.279   4.482
19589WAT     H159009   2.924   0.359   4.526
19589WAT     H259010   2.927   0.196   4.524
19590WAT      O59011   2.464   2.886   8.376
19590WAT     H159012   2.520   2.941   8.438
19590WAT     H259013   2.367   2.904   8.395
19591WAT      O59014   9.755   0.586   5.531
19591WAT     H159015   9.741   0.682   5.509
19591WAT     H259016   9.726   0.569   5.625
19592WAT      O59017   7.183   9.319   3.096
19592WAT     H159018   7.202   9.241   3.036
19592WAT     H259019   7.199   9.404   3.046
19593WAT      O59020   8.583   6.990   9.800
19593WAT     H159021   8.670   7.001   9.752
19593WAT     H259022   8.533   7.077   9.799
19594WAT      O59023   3.164   9.691   5.126
19594WAT     H159024   3.251   9.739   5.135
19594WAT     H259025   3.149   9.669   5.029
19595WAT      O59026   6.501   2.342   7.927
19595WAT     H159027   6.513   2.396   8.011
19595WAT     H259028   6.481   2.247   7.951
19596WAT      O59029   5.448   8.838   6.979
19596WAT     H159030   5.545   8.824   6.959
19596WAT     H259031   5.402   8.874   6.898
19597WAT      O59032   0.660   7.868   6.003
19597WAT     H159033   0.672   7.876   5.904
19597WAT     H259034   0.573   7.823   6.022
19598WAT      O59035   4.466   7.528   8.440
19598WAT     H159036   4.549   7.582   8.423
19598WAT     H259037   4.388   7.589   8.451
19599WAT      O59038   8.452   8.970   9.249
19599WAT     H159039   8.388   8.894   9.261
19599WAT     H259040   8.462   9.020   9.335
19600WAT      O59041   8.610   2.229   5.676
19600WAT     H159042   8.620   2.154   5.611
19600WAT     H259043   8.519   2.270   5.666
19601WAT      O59044   0.271   3.439   1.334
19601WAT     H159045   0.206   3.370   1.301
19601WAT     H259046   0.364   3.413   1.307
19602WAT      O59047   8.554   7.613   8.438
19602WAT     H159048   8.626   7.598   8.506
19602WAT     H259049   8.546   7.711   8.420
19603WAT      O59050   2.608   8.565   6.139
19603WAT     H159051   2.606   8.554   6.040
19603WAT     H259052   2.529   8.519   6.179
19604WAT      O59053   0.107   2.935   3.167
19604WAT     H159054   0.187   2.906   3.219
19604WAT     H259055   0.041   2.860   3.163
19605WAT      O59056   0.096   5.999   8.880
19605WAT     H159057   0.159   6.032   8.810
19605WAT     H259058   0.123   6.035   8.969
19606WAT      O59059   5.799   9.724   4.968
19606WAT     H159060   5.786   9.713   4.870
19606WAT     H259061   5.887   9.768   4.985
19607WAT      O59062   8.946   1.668   1.143
19607WAT     H159063   8.895   1.724   1.078
19607WAT     H259064   8.883   1.612   1.196
19608WAT      O59065   2.316   7.652   2.880
19608WAT     H159066   2.309   7.621   2.975
19608WAT     H259067   2.278   7.745   2.872
19609WAT      O59068   2.374   6.569   9.832
19609WAT     H159069   2.367   6.603   9.926
19609WAT     H259070   2.283   6.560   9.792
19610WAT      O59071   3.873   5.347   3.589
19610WAT     H159072   3.813   5.427   3.597
19610WAT     H259073   3.931   5.356   3.508
19611WAT      O59074   5.473   7.352   2.834
19611WAT     H159075   5.465   7.451   2.819
19611WAT     H259076   5.382   7.311   2.832
19612WAT      O59077   2.504   8.255   3.418
19612WAT     H159078   2.571   8.294   3.481
19612WAT     H259079   2.516   8.295   3.327
19613WAT      O59080   7.765   4.480   0.288
19613WAT     H159081   7.791   4.392   0.247
19613WAT     H259082   7.841   4.516   0.341
19614WAT      O59083   6.115   9.131   9.231
19614WAT     H159084   6.124   9.199   9.158
19614WAT     H259085   6.082   9.045   9.191
19615WAT      O59086   8.636   4.227   9.504
19615WAT     H159087   8.621   4.324   9.526
19615WAT     H259088   8.730   4.201   9.528
19616WAT      O59089   8.863   5.549   8.987
19616WAT     H159090   8.832   5.644   8.994
19616WAT     H259091   8.791   5.494   8.944
19617WAT      O59092   6.169   5.969   4.719
19617WAT     H159093   6.188   5.884   4.767
19617WAT     H259094   6.178   6.046   4.782
19618WAT      O59095   5.889   9.651   5.680
19618WAT     H159096   5.835   9.630   5.761
19618WAT     H259097   5.965   9.587   5.673
19619WAT      O59098   9.443   0.050   0.859
19619WAT     H159099   9.350   0.073   0.888
19619WAT     H259100   9.448   0.051   0.759
19620WAT      O59101   9.730   0.029   9.285
19620WAT     H159102   9.707   0.125   9.297
19620WAT     H259103   9.820   0.022   9.241
19621WAT      O59104   6.076   5.788   2.716
19621WAT     H159105   6.020   5.868   2.697
19621WAT     H259106   6.071   5.767   2.814
19622WAT      O59107   7.317   1.006   0.325
19622WAT     H159108   7.317   1.042   0.418
19622WAT     H259109   7.241   0.942   0.314
19623WAT      O59110   6.370   5.058   4.625
19623WAT     H159111   6.462   5.045   4.663
19623WAT     H259112   6.319   4.972   4.633
19624WAT      O59113   5.290   0.576   2.801
19624WAT     H159114   5.262   0.501   2.742
19624WAT     H259115   5.209   0.614   2.848
19625WAT      O59116   1.971   0.089   1.693
19625WAT     H159117   1.879   0.069   1.727
19625WAT     H259118   2.035   0.020   1.728
19626WAT      O59119   5.563   1.811   0.854
19626WAT     H159120   5.636   1.868   0.816
19626WAT     H259121   5.477   1.829   0.807
19627WAT      O59122   1.229   7.273   1.454
19627WAT     H159123   1.185   7.361   1.435
19627WAT     H259124   1.234   7.219   1.369
19628WAT      O59125   8.969   9.272   8.906
19628WAT     H159126   9.025   9.246   8.827
19628WAT     H259127   9.027   9.308   8.978
19629WAT      O59128   9.500   2.057   4.467
19629WAT     H159129   9.421   2.055   4.528
19629WAT     H259130   9.527   1.963   4.446
19630WAT      O59131   1.767   1.893   5.172
19630WAT     H159132   1.855   1.921   5.210
19630WAT     H259133   1.781   1.818   5.107
19631WAT      O59134   0.051   6.650   6.700
19631WAT     H159135   0.083   6.719   6.765
19631WAT     H259136  -0.048   6.660   6.687
19632WAT      O59137   9.124   3.636   6.123
19632WAT     H159138   9.166   3.548   6.142
19632WAT     H259139   9.053   3.625   6.053
19633WAT      O59140   8.449   0.122   5.739
19633WAT     H159141   8.400   0.094   5.656
19633WAT     H259142   8.405   0.082   5.819
19634WAT      O59143   0.883   2.705   0.439
19634WAT     H159144   0.923   2.766   0.508
19634WAT     H259145   0.953   2.684   0.370
19635WAT      O59146   3.419   6.344   6.294
19635WAT     H159147   3.391   6.409   6.223
19635WAT     H259148   3.477   6.391   6.360
19636WAT      O59149   0.101   3.255   0.665
19636WAT     H159150   0.176   3.203   0.704
19636WAT     H259151   0.073   3.214   0.578
19637WAT      O59152   5.985   5.763   0.999
19637WAT     H159153   6.000   5.862   1.001
19637WAT     H259154   6.062   5.716   1.042
19638WAT      O59155   4.670   7.908   9.065
19638WAT     H159156   4.721   7.823   9.077
19638WAT     H259157   4.729   7.977   9.023
19639WAT      O59158   8.959   0.109   6.031
19639WAT     H159159   8.910   0.086   6.115
19639WAT     H259160   9.015   0.191   6.046
19640WAT      O59161   7.811   7.575   0.619
19640WAT     H159162   7.824   7.493   0.563
19640WAT     H259163   7.822   7.656   0.562
19641WAT      O59164   5.109   3.723   9.718
19641WAT     H159165   5.053   3.640   9.714
19641WAT     H259166   5.176   3.721   9.644
19642WAT      O59167   6.842   9.418   1.063
19642WAT     H159168   6.816   9.321   1.058
19642WAT     H259169   6.809   9.458   1.148
19643WAT      O59170   3.522   7.583   2.048
19643WAT     H159171   3.606   7.562   1.996
19643WAT     H259172   3.540   7.659   2.110
19644WAT      O59173   3.579   4.205   0.947
19644WAT     H159174   3.550   4.148   1.024
19644WAT     H259175   3.525   4.290   0.947
19645WAT      O59176   8.636   1.172   4.060
19645WAT     H159177   8.574   1.184   3.982
19645WAT     H259178   8.728   1.153   4.026
19646WAT      O59179   2.326   2.059   8.054
19646WAT     H159180   2.280   1.972   8.035
19646WAT     H259181   2.397   2.044   8.124
19647WAT      O59182   7.204   1.592   6.035
19647WAT     H159183   7.199   1.659   5.961
19647WAT     H259184   7.228   1.639   6.120
19648WAT      O59185   9.052   4.957   5.954
19648WAT     H159186   9.140   4.927   5.917
19648WAT     H259187   9.064   4.990   6.047
19649WAT      O59188   2.521   9.689   9.084
19649WAT     H159189   2.609   9.704   9.130
19649WAT     H259190   2.504   9.591   9.076
19650WAT      O59191   6.210   7.456   2.668
19650WAT     H159192   6.272   7.488   2.597
19650WAT     H259193   6.200   7.356   2.661
19651WAT      O59194   1.677   8.506   8.478
19651WAT     H159195   1.598   8.559   8.509
19651WAT     H259196   1.684   8.421   8.531
19652WAT      O59197   6.351   1.702   7.033
19652WAT     H159198   6.353   1.711   6.934
19652WAT     H259199   6.402   1.621   7.060
19653WAT      O59200   4.480   6.267   2.361
19653WAT     H159201   4.555   6.271   2.426
19653WAT     H259202   4.433   6.355   2.359
19654WAT      O59203   8.606   7.518   3.774
19654WAT     H159204   8.674   7.454   3.807
19654WAT     H259205   8.582   7.496   3.679
19655WAT      O59206   1.121   7.421   2.216
19655WAT     H159207   1.026   7.454   2.224
19655WAT     H259208   1.182   7.499   2.208
19656WAT      O59209   6.890   4.143   8.927
19656WAT     H159210   6.973   4.118   8.878
19656WAT     H259211   6.855   4.062   8.976
19657WAT      O59212   0.322   8.894   7.263
19657WAT     H159213   0.396   8.834   7.234
19657WAT     H259214   0.320   8.974   7.203
19658WAT      O59215   5.288   3.808   1.447
19658WAT     H159216   5.276   3.710   1.465
19658WAT     H259217   5.220   3.860   1.499
19659WAT      O59218   1.171   0.672   7.406
19659WAT     H159219   1.255   0.621   7.385
19659WAT     H259220   1.186   0.728   7.487
19660WAT      O59221   1.587   3.763   4.913
19660WAT     H159222   1.542   3.730   4.830
19660WAT     H259223   1.676   3.718   4.922
19661WAT      O59224   0.257   1.665   5.555
19661WAT     H159225   0.250   1.765   5.559
19661WAT     H259226   0.353   1.638   5.546
19662WAT      O59227   7.151   7.750   0.939
19662WAT     H159228   7.120   7.709   1.025
19662WAT     H259229   7.236   7.707   0.910
19663WAT      O59230   9.761   1.445   7.880
19663WAT     H159231   9.708   1.529   7.864
19663WAT     H259232   9.748   1.415   7.974
19664WAT      O59233   7.493   8.388   1.200
19664WAT     H159234   7.591   8.395   1.179
19664WAT     H259235   7.447   8.473   1.173
19665WAT      O59236   4.533   1.140   8.914
19665WAT     H159237   4.563   1.044   8.915
19665WAT     H259238   4.600   1.195   8.864
19666WAT      O59239   9.421   8.958   7.044
19666WAT     H159240   9.490   8.973   6.974
19666WAT     H259241   9.465   8.946   7.133
19667WAT      O59242   2.686   8.693   5.622
19667WAT     H159243   2.648   8.779   5.587
19667WAT     H259244   2.754   8.658   5.559
19668WAT      O59245   2.242   5.524   4.567
19668WAT     H159246   2.214   5.439   4.611
19668WAT     H259247   2.286   5.584   4.634
19669WAT      O59248   8.042   0.581   2.060
19669WAT     H159249   8.111   0.529   2.011
19669WAT     H259250   7.983   0.519   2.111
19670WAT      O59251   3.705   1.508   2.658
19670WAT     H159252   3.725   1.415   2.628
19670WAT     H259253   3.747   1.523   2.747
19671WAT      O59254   6.966   6.887   5.552
19671WAT     H159255   6.929   6.872   5.460
19671WAT     H259256   7.001   6.800   5.588
19672WAT      O59257   0.669   3.969   1.204
19672WAT     H159258   0.583   3.919   1.217
19672WAT     H259259   0.726   3.957   1.285
19673WAT      O59260   4.379   3.936   3.423
19673WAT     H159261   4.381   3.869   3.349
19673WAT     H259262   4.284   3.960   3.443
19674WAT      O59263   2.998   1.145   7.884
19674WAT     H159264   3.096   1.161   7.882
19674WAT     H259265   2.979   1.050   7.858
19675WAT      O59266   0.275   5.746   2.292
19675WAT     H159267   0.219   5.706   2.365
19675WAT     H259268   0.270   5.688   2.211
19676WAT      O59269   6.029   8.186   9.692
19676WAT     H159270   6.007   8.130   9.772
19676WAT     H259271   5.945   8.208   9.643
19677WAT      O59272   1.765   9.587   7.660
19677WAT     H159273   1.821   9.656   7.614
19677WAT     H259274   1.710   9.630   7.731
19678WAT      O59275   7.693   3.633   2.603
19678WAT     H159276   7.607   3.659   2.559
19678WAT     H259277   7.683   3.640   2.703
19679WAT      O59278   7.681   7.534   3.452
19679WAT     H159279   7.764   7.501   3.407
19679WAT     H259280   7.611   7.553   3.383
19680WAT      O59281   6.361   7.513   0.194
19680WAT     H159282   6.390   7.476   0.105
19680WAT     H259283   6.437   7.562   0.236
19681WAT      O59284   2.616   2.950   0.896
19681WAT     H159285   2.554   2.936   0.972
19681WAT     H259286   2.590   2.890   0.820
19682WAT      O59287   7.948   6.541   7.968
19682WAT     H159288   7.911   6.456   7.931
19682WAT     H259289   8.007   6.585   7.900
19683WAT      O59290   2.242   2.063   0.167
19683WAT     H159291   2.180   2.132   0.129
19683WAT     H259292   2.189   1.997   0.220
19684WAT      O59293   8.214   6.682   2.159
19684WAT     H159294   8.142   6.687   2.229
19684WAT     H259295   8.302   6.668   2.203
19685WAT      O59296   2.476   4.677   4.528
19685WAT     H159297   2.457   4.774   4.515
19685WAT     H259298   2.572   4.665   4.555
19686WAT      O59299   1.881   5.600   1.371
19686WAT     H159300   1.980   5.602   1.386
19686WAT     H259301   1.846   5.694   1.368
19687WAT      O59302   4.316   9.076   5.451
19687WAT     H159303   4.348   9.169   5.470
19687WAT     H259304   4.388   9.010   5.474
19688WAT      O59305   9.266   5.517   9.298
19688WAT     H159306   9.289   5.433   9.346
19688WAT     H259307   9.208   5.497   9.219
19689WAT      O59308   3.019   3.191   6.564
19689WAT     H159309   3.051   3.177   6.657
19689WAT     H259310   3.084   3.249   6.514
19690WAT      O59311   6.371   2.968   5.134
19690WAT     H159312   6.410   3.041   5.079
19690WAT     H259313   6.302   3.006   5.196
19691WAT      O59314   8.985   6.789   0.789
19691WAT     H159315   9.062   6.853   0.787
19691WAT     H259316   8.900   6.839   0.808
19692WAT      O59317   8.685   9.183   4.286
19692WAT     H159318   8.599   9.224   4.256
19692WAT     H259319   8.694   9.194   4.385
19693WAT      O59320   2.790   2.333   8.013
19693WAT     H159321   2.828   2.333   7.920
19693WAT     H259322   2.815   2.248   8.059
19694WAT      O59323   6.628   8.080   2.631
19694WAT     H159324   6.536   8.119   2.627
19694WAT     H259325   6.665   8.092   2.723
19695WAT      O59326   2.365   3.636   1.528
19695WAT     H159327   2.442   3.657   1.467
19695WAT     H259328   2.283   3.682   1.496
19696WAT      O59329   4.958   8.269   2.646
19696WAT     H159330   4.940   8.362   2.677
19696WAT     H259331   4.917   8.204   2.710
19697WAT      O59332   9.595   8.069   6.759
19697WAT     H159333   9.679   8.069   6.704
19697WAT     H259334   9.529   8.131   6.717
19698WAT      O59335   3.915   8.388   8.079
19698WAT     H159336   3.900   8.409   7.983
19698WAT     H259337   3.853   8.442   8.135
19699WAT      O59338   9.551   4.974   9.420
19699WAT     H159339   9.478   4.951   9.485
19699WAT     H259340   9.515   5.034   9.349
19700WAT      O59341   7.694   6.957   6.224
19700WAT     H159342   7.676   7.025   6.294
19700WAT     H259343   7.700   6.866   6.266
19701WAT      O59344   4.312   9.614   3.723
19701WAT     H159345   4.270   9.686   3.779
19701WAT     H259346   4.247   9.540   3.709
19702WAT      O59347   2.239   4.744   6.801
19702WAT     H159348   2.221   4.649   6.774
19702WAT     H259349   2.266   4.797   6.721
19703WAT      O59350   5.576   2.589   1.170
19703WAT     H159351   5.490   2.557   1.211
19703WAT     H259352   5.634   2.626   1.242
19704WAT      O59353   4.301   1.921   5.087
19704WAT     H159354   4.393   1.883   5.079
19704WAT     H259355   4.302   2.016   5.057
19705WAT      O59356   3.537   0.444   7.602
19705WAT     H159357   3.634   0.421   7.613
19705WAT     H259358   3.513   0.439   7.505
19706WAT      O59359   6.279   7.118   2.138
19706WAT     H159360   6.371   7.085   2.157
19706WAT     H259361   6.222   7.106   2.219
19707WAT      O59362   6.073   4.637   2.766
19707WAT     H159363   6.105   4.717   2.715
19707WAT     H259364   6.080   4.655   2.864
19708WAT      O59365   5.739   7.393   2.970
19708WAT     H159366   5.659   7.351   2.928
19708WAT     H259367   5.712   7.445   3.050
19709WAT      O59368   5.291   1.644   0.053
19709WAT     H159369   5.230   1.585   0.106
19709WAT     H259370   5.358   1.685   0.115
19710WAT      O59371   9.254   1.602   7.202
19710WAT     H159372   9.325   1.534   7.218
19710WAT     H259373   9.283   1.690   7.240
19711WAT      O59374   1.016   1.089   5.330
19711WAT     H159375   1.009   1.035   5.413
19711WAT     H259376   1.107   1.078   5.291
19712WAT      O59377   9.630   6.615   5.935
19712WAT     H159378   9.709   6.554   5.935
19712WAT     H259379   9.609   6.643   6.029
19713WAT      O59380   6.383   4.365   2.960
19713WAT     H159381   6.289   4.366   2.926
19713WAT     H259382   6.425   4.455   2.945
19714WAT      O59383   6.618   0.514   6.564
19714WAT     H159384   6.663   0.428   6.539
19714WAT     H259385   6.560   0.499   6.644
19715WAT      O59386   5.433   2.181   0.080
19715WAT     H159387   5.399   2.093   0.048
19715WAT     H259388   5.530   2.191   0.054
19716WAT      O59389   5.735   1.585   7.372
19716WAT     H159390   5.690   1.675   7.372
19716WAT     H259391   5.812   1.587   7.435
19717WAT      O59392   2.659   9.553   4.748
19717WAT     H159393   2.729   9.615   4.784
19717WAT     H259394   2.699   9.462   4.735
19718WAT      O59395   3.587   7.771   1.083
19718WAT     H159396   3.649   7.826   1.027
19718WAT     H259397   3.520   7.726   1.024
19719WAT      O59398   7.545   1.403   8.950
19719WAT     H159399   7.536   1.323   9.009
19719WAT     H259400   7.641   1.430   8.945
19720WAT      O59401   8.712   5.329   2.153
19720WAT     H159402   8.625   5.376   2.168
19720WAT     H259403   8.787   5.388   2.184
19721WAT      O59404   3.351   6.470   3.076
19721WAT     H159405   3.306   6.556   3.052
19721WAT     H259406   3.445   6.489   3.106
19722WAT      O59407   9.478   5.114   1.701
19722WAT     H159408   9.437   5.188   1.754
19722WAT     H259409   9.577   5.115   1.713
19723WAT      O59410   6.136   0.971   8.329
19723WAT     H159411   6.174   0.962   8.421
19723WAT     H259412   6.195   0.925   8.263
19724WAT      O59413   6.977   7.306   6.128
19724WAT     H159414   6.891   7.255   6.137
19724WAT     H259415   7.036   7.283   6.205
19725WAT      O59416   2.462   0.367   5.901
19725WAT     H159417   2.448   0.273   5.932
19725WAT     H259418   2.401   0.428   5.951
19726WAT      O59419   8.462   5.673   8.087
19726WAT     H159420   8.490   5.765   8.116
19726WAT     H259421   8.540   5.628   8.043
19727WAT      O59422   4.954   0.080   0.435
19727WAT     H159423   5.013   0.100   0.513
19727WAT     H259424   4.908  -0.008   0.450
19728WAT      O59425   4.251   0.214   2.825
19728WAT     H159426   4.223   0.308   2.843
19728WAT     H259427   4.243   0.160   2.909
19729WAT      O59428   6.069   7.845   0.927
19729WAT     H159429   6.031   7.788   1.000
19729WAT     H259430   6.149   7.894   0.961
19730WAT      O59431   1.951   2.583   2.328
19730WAT     H159432   2.011   2.556   2.403
19730WAT     H259433   1.930   2.504   2.272
19731WAT      O59434   1.523   2.363   0.195
19731WAT     H159435   1.606   2.401   0.155
19731WAT     H259436   1.544   2.322   0.284
19732WAT      O59437   6.311   3.122   6.684
19732WAT     H159438   6.404   3.087   6.680
19732WAT     H259439   6.308   3.215   6.649
19733WAT      O59440   4.719   1.342   8.857
19733WAT     H159441   4.694   1.428   8.902
19733WAT     H259442   4.809   1.312   8.889
19734WAT      O59443   5.039   9.283   4.151
19734WAT     H159444   5.019   9.345   4.226
19734WAT     H259445   5.137   9.262   4.150
19735WAT      O59446   2.560   1.724   1.647
19735WAT     H159447   2.601   1.753   1.733
19735WAT     H259448   2.587   1.630   1.627
19736WAT      O59449   2.673   9.543   3.491
19736WAT     H159450   2.730   9.573   3.414
19736WAT     H259451   2.616   9.466   3.463
19737WAT      O59452   8.169   3.518   8.260
19737WAT     H159453   8.196   3.610   8.287
19737WAT     H259454   8.205   3.452   8.326
19738WAT      O59455   2.262   8.658   1.185
19738WAT     H159456   2.251   8.591   1.112
19738WAT     H259457   2.241   8.749   1.151
19739WAT      O59458   0.522   5.198   4.337
19739WAT     H159459   0.442   5.255   4.353
19739WAT     H259460   0.540   5.143   4.419
19740WAT      O59461   1.482   2.886   8.940
19740WAT     H159462   1.498   2.966   8.880
19740WAT     H259463   1.513   2.908   9.032
19741WAT      O59464   0.506   7.974   7.880
19741WAT     H159465   0.585   8.012   7.929
19741WAT     H259466   0.440   8.048   7.862
19742WAT      O59467   1.845   4.293   2.147
19742WAT     H159468   1.875   4.347   2.225
19742WAT     H259469   1.923   4.271   2.089
19743WAT      O59470   6.638   8.578   4.762
19743WAT     H159471   6.626   8.642   4.687
19743WAT     H259472   6.735   8.558   4.775
19744WAT      O59473   0.859   3.295   3.583
19744WAT     H159474   0.797   3.217   3.572
19744WAT     H259475   0.893   3.297   3.677
19745WAT      O59476   7.613   9.728   6.724
19745WAT     H159477   7.529   9.712   6.777
19745WAT     H259478   7.589   9.758   6.632
19746WAT      O59479   0.063   2.962   9.463
19746WAT     H159480   0.122   2.983   9.541
19746WAT     H259481   0.083   3.026   9.388
19747WAT      O59482   1.707   7.509   7.412
19747WAT     H159483   1.690   7.595   7.460
19747WAT     H259484   1.717   7.435   7.479
19748WAT      O59485   8.067   5.243   4.503
19748WAT     H159486   8.100   5.192   4.583
19748WAT     H259487   8.052   5.338   4.529
19749WAT      O59488   4.648   8.707   1.909
19749WAT     H159489   4.736   8.745   1.882
19749WAT     H259490   4.662   8.644   1.985
19750WAT      O59491   8.336   0.147   7.968
19750WAT     H159492   8.390   0.225   7.934
19750WAT     H259493   8.324   0.156   8.067
19751WAT      O59494   4.125   1.121   0.309
19751WAT     H159495   4.141   1.051   0.379
19751WAT     H259496   4.212   1.144   0.264
19752WAT      O59497   9.551   8.396   8.531
19752WAT     H159498   9.500   8.357   8.455
19752WAT     H259499   9.508   8.481   8.561
19753WAT      O59500   8.682   3.695   2.409
19753WAT     H159501   8.773   3.734   2.424
19753WAT     H259502   8.673   3.666   2.314
19754WAT      O59503   3.399   0.802   6.376
19754WAT     H159504   3.457   0.786   6.296
19754WAT     H259505   3.403   0.723   6.437
19755WAT      O59506   1.336   6.539   6.253
19755WAT     H159507   1.382   6.608   6.308
19755WAT     H259508   1.314   6.576   6.163
19756WAT      O59509   3.835   4.162   5.454
19756WAT     H159510   3.874   4.249   5.486
19756WAT     H259511   3.827   4.164   5.354
19757WAT      O59512   0.263   5.011   3.669
19757WAT     H159513   0.295   4.992   3.762
19757WAT     H259514   0.280   4.931   3.611
19758WAT      O59515   7.198   2.838   6.548
19758WAT     H159516   7.102   2.829   6.571
19758WAT     H259517   7.213   2.812   6.452
19759WAT      O59518   1.614   9.744   7.829
19759WAT     H159519   1.533   9.685   7.827
19759WAT     H259520   1.654   9.743   7.920
19760WAT      O59521   2.093   0.981   9.831
19760WAT     H159522   2.118   1.073   9.801
19760WAT     H259523   2.096   0.976   9.931
19761WAT      O59524   0.874   8.841   9.819
19761WAT     H159525   0.957   8.865   9.870
19761WAT     H259526   0.809   8.917   9.824
19762WAT      O59527   3.564   2.971   2.188
19762WAT     H159528   3.589   3.044   2.251
19762WAT     H259529   3.562   3.006   2.094
19763WAT      O59530   5.533   8.789   8.169
19763WAT     H159531   5.543   8.875   8.118
19763WAT     H259532   5.582   8.797   8.256
19764WAT      O59533   4.673   5.251   9.358
19764WAT     H159534   4.683   5.213   9.266
19764WAT     H259535   4.759   5.241   9.408
19765WAT      O59536   2.607   4.717   2.093
19765WAT     H159537   2.547   4.661   2.036
19765WAT     H259538   2.687   4.663   2.120
19766WAT      O59539   9.775   5.950   8.063
19766WAT     H159540   9.714   5.966   7.986
19766WAT     H259541   9.830   5.868   8.045
19767WAT      O59542   1.917   7.523   3.670
19767WAT     H159543   1.941   7.511   3.766
19767WAT     H259544   1.822   7.553   3.662
19768WAT      O59545   4.435   2.927   6.913
19768WAT     H159546   4.467   3.014   6.876
19768WAT     H259547   4.342   2.909   6.880
19769WAT      O59548   0.987   4.613   4.485
19769WAT     H159549   0.969   4.518   4.461
19769WAT     H259550   1.009   4.619   4.582
19770WAT      O59551   1.402   5.307   1.222
19770WAT     H159552   1.467   5.379   1.195
19770WAT     H259553   1.450   5.233   1.267
19771WAT      O59554   8.215   0.934   0.123
19771WAT     H159555   8.315   0.934   0.128
19771WAT     H259556   8.178   0.880   0.199
19772WAT      O59557   7.836   0.912   8.265
19772WAT     H159558   7.930   0.924   8.297
19772WAT     H259559   7.798   0.828   8.304
19773WAT      O59560   8.348   4.222   6.981
19773WAT     H159561   8.318   4.167   7.059
19773WAT     H259562   8.444   4.246   6.992
19774WAT      O59563   7.078   3.983   2.991
19774WAT     H159564   7.106   4.061   2.935
19774WAT     H259565   7.154   3.918   2.997
19775WAT      O59566   7.215   6.712   4.315
19775WAT     H159567   7.230   6.683   4.221
19775WAT     H259568   7.118   6.730   4.330
19776WAT      O59569   5.873   8.223   8.389
19776WAT     H159570   5.955   8.187   8.433
19776WAT     H259571   5.860   8.318   8.417
19777WAT      O59572   0.329   1.678   3.091
19777WAT     H159573   0.240   1.721   3.101
19777WAT     H259574   0.398   1.748   3.072
19778WAT      O59575   5.471   5.171   3.136
19778WAT     H159576   5.503   5.265   3.149
19778WAT     H259577   5.373   5.171   3.118
19779WAT      O59578   8.206   6.357   7.845
19779WAT     H159579   8.107   6.349   7.839
19779WAT     H259580   8.237   6.316   7.931
19780WAT      O59581   9.159   4.541   7.465
19780WAT     H159582   9.096   4.556   7.389
19780WAT     H259583   9.191   4.629   7.500
19781WAT      O59584   9.843   1.821   2.845
19781WAT     H159585   9.882   1.758   2.778
19781WAT     H259586   9.860   1.915   2.816
19782WAT      O59587   8.751   3.395   3.086
19782WAT     H159588   8.652   3.381   3.085
19782WAT     H259589   8.774   3.472   3.026
19783WAT      O59590   2.707   3.126   8.469
19783WAT     H159591   2.733   3.046   8.414
19783WAT     H259592   2.784   3.189   8.473
19784WAT      O59593   2.137   7.778   3.730
19784WAT     H159594   2.043   7.787   3.762
19784WAT     H259595   2.149   7.690   3.685
19785WAT      O59596   7.856   8.182   3.636
19785WAT     H159597   7.910   8.101   3.660
19785WAT     H259598   7.837   8.181   3.538
19786WAT      O59599   7.194   6.782   5.254
19786WAT     H159600   7.229   6.797   5.346
19786WAT     H259601   7.252   6.715   5.207
19787WAT      O59602   5.109   6.900   7.801
19787WAT     H159603   5.117   6.821   7.863
19787WAT     H259604   5.013   6.913   7.776
19788WAT      O59605   2.275   7.004   0.632
19788WAT     H159606   2.286   7.087   0.687
19788WAT     H259607   2.297   7.024   0.536
19789WAT      O59608   7.459   4.523   2.608
19789WAT     H159609   7.488   4.465   2.532
19789WAT     H259610   7.459   4.470   2.693
19790WAT      O59611   1.389   1.562   1.960
19790WAT     H159612   1.326   1.627   1.918
19790WAT     H259613   1.404   1.486   1.897
19791WAT      O59614   7.746   3.893   4.924
19791WAT     H159615   7.696   3.911   4.839
19791WAT     H259616   7.683   3.860   4.994
19792WAT      O59617   0.218   2.950   0.406
19792WAT     H159618   0.297   2.990   0.360
19792WAT     H259619   0.218   2.851   0.391
19793WAT      O59620   7.555   4.111   9.773
19793WAT     H159621   7.501   4.039   9.816
19793WAT     H259622   7.509   4.143   9.690
19794WAT      O59623   5.093   4.825   7.600
19794WAT     H159624   5.080   4.909   7.547
19794WAT     H259625   5.057   4.747   7.549
19795WAT      O59626   6.335   0.054   0.194
19795WAT     H159627   6.382   0.051   0.282
19795WAT     H259628   6.244   0.095   0.206
19796WAT      O59629   8.894   6.098   8.934
19796WAT     H159630   8.862   6.020   8.880
19796WAT     H259631   8.990   6.115   8.914
19797WAT      O59632   1.990   7.920   6.602
19797WAT     H159633   2.067   7.984   6.597
19797WAT     H259634   1.937   7.938   6.685
19798WAT      O59635   9.116   5.340   6.164
19798WAT     H159636   9.211   5.344   6.132
19798WAT     H259637   9.057   5.388   6.100
19799WAT      O59638   6.912   9.630   0.403
19799WAT     H159639   6.841   9.625   0.473
19799WAT     H259640   6.877   9.593   0.317
19800WAT      O59641   9.778   1.276   0.116
19800WAT     H159642   9.798   1.219   0.036
19800WAT     H259643   9.838   1.249   0.192
19801WAT      O59644   9.792   8.489   1.553
19801WAT     H159645   9.819   8.511   1.459
19801WAT     H259646   9.699   8.521   1.570
19802WAT      O59647   9.409   8.287   9.059
19802WAT     H159648   9.499   8.250   9.039
19802WAT     H259649   9.415   8.351   9.135
19803WAT      O59650   4.339   3.119   7.137
19803WAT     H159651   4.405   3.056   7.178
19803WAT     H259652   4.308   3.080   7.050
19804WAT      O59653   7.124   0.580   6.047
19804WAT     H159654   7.130   0.676   6.021
19804WAT     H259655   7.184   0.526   5.988
19805WAT      O59656   6.749   6.927   8.239
19805WAT     H159657   6.772   6.839   8.198
19805WAT     H259658   6.745   6.918   8.338
19806WAT      O59659   7.049   0.224   4.597
19806WAT     H159660   6.992   0.249   4.676
19806WAT     H259661   7.026   0.283   4.520
19807WAT      O59662   9.290   1.677   0.573
19807WAT     H159663   9.374   1.675   0.629
19807WAT     H259664   9.211   1.662   0.632
19808WAT      O59665   3.727   1.514   6.215
19808WAT     H159666   3.791   1.441   6.239
19808WAT     H259667   3.652   1.515   6.281
19809WAT      O59668   9.020   8.894   2.820
19809WAT     H159669   9.089   8.889   2.747
19809WAT     H259670   9.050   8.958   2.891
19810WAT      O59671   4.519   8.849   4.759
19810WAT     H159672   4.592   8.889   4.814
19810WAT     H259673   4.444   8.821   4.819
19811WAT      O59674   6.550   8.573   4.322
19811WAT     H159675   6.647   8.573   4.347
19811WAT     H259676   6.509   8.660   4.350
19812WAT      O59677   3.778   5.078   7.502
19812WAT     H159678   3.755   5.058   7.407
19812WAT     H259679   3.745   5.170   7.525
19813WAT      O59680   7.728   8.502   7.856
19813WAT     H159681   7.729   8.412   7.900
19813WAT     H259682   7.815   8.517   7.809
19814WAT      O59683   7.849   1.242   5.053
19814WAT     H159684   7.763   1.195   5.070
19814WAT     H259685   7.874   1.296   5.133
19815WAT      O59686   3.114   8.254   1.007
19815WAT     H159687   3.119   8.173   1.066
19815WAT     H259688   3.097   8.335   1.063
19816WAT      O59689   6.965   0.699   1.713
19816WAT     H159690   6.906   0.758   1.658
19816WAT     H259691   6.984   0.745   1.801
19817WAT      O59692   3.197   0.029   8.555
19817WAT     H159693   3.106  -0.011   8.550
19817WAT     H259694   3.194   0.114   8.607
19818WAT      O59695   9.881   4.952   1.261
19818WAT     H159696   9.787   4.936   1.291
19818WAT     H259697   9.927   5.012   1.327
19819WAT      O59698   6.502   4.641   0.747
19819WAT     H159699   6.571   4.714   0.754
19819WAT     H259700   6.413   4.682   0.727
19820WAT      O59701   9.666   1.573   1.167
19820WAT     H159702   9.731   1.608   1.100
19820WAT     H259703   9.626   1.488   1.134
19821WAT      O59704   8.516   7.085   0.726
19821WAT     H159705   8.465   7.085   0.812
19821WAT     H259706   8.495   7.169   0.675
19822WAT      O59707   2.279   1.683   1.642
19822WAT     H159708   2.363   1.725   1.675
19822WAT     H259709   2.300   1.614   1.574
19823WAT      O59710   6.457   5.222   1.346
19823WAT     H159711   6.436   5.132   1.382
19823WAT     H259712   6.530   5.215   1.278
19824WAT      O59713   6.754   3.562   4.115
19824WAT     H159714   6.821   3.594   4.182
19824WAT     H259715   6.746   3.462   4.122
19825WAT      O59716   1.518   1.783   2.049
19825WAT     H159717   1.479   1.698   2.013
19825WAT     H259718   1.469   1.810   2.131
19826WAT      O59719   7.369   2.912   8.023
19826WAT     H159720   7.272   2.902   8.004
19826WAT     H259721   7.422   2.854   7.960
19827WAT      O59722   0.156   2.187   6.102
19827WAT     H159723   0.090   2.113   6.119
19827WAT     H259724   0.248   2.154   6.118
19828WAT      O59725   9.396   5.593   6.852
19828WAT     H159726   9.306   5.553   6.872
19828WAT     H259727   9.443   5.614   6.937
19829WAT      O59728   9.196   8.678   4.352
19829WAT     H159729   9.250   8.607   4.397
19829WAT     H259730   9.126   8.635   4.295
19830WAT      O59731   1.710   6.689   4.545
19830WAT     H159732   1.793   6.636   4.562
19830WAT     H259733   1.632   6.628   4.536
19831WAT      O59734   6.299   1.279   3.738
19831WAT     H159735   6.364   1.208   3.712
19831WAT     H259736   6.346   1.353   3.786
19832WAT      O59737   9.376   1.352   7.913
19832WAT     H159738   9.322   1.287   7.968
19832WAT     H259739   9.419   1.303   7.837
19833WAT      O59740   4.639   8.239   8.078
19833WAT     H159741   4.562   8.180   8.053
19833WAT     H259742   4.614   8.334   8.061
19834WAT      O59743   5.268   0.948   6.287
19834WAT     H159744   5.347   0.986   6.237
19834WAT     H259745   5.184   0.975   6.241
19835WAT      O59746   7.161   9.057   2.954
19835WAT     H159747   7.125   8.975   2.910
19835WAT     H259748   7.169   9.041   3.052
19836WAT      O59749   4.551   1.314   8.641
19836WAT     H159750   4.631   1.299   8.699
19836WAT     H259751   4.483   1.243   8.660
19837WAT      O59752   3.916   8.664   5.537
19837WAT     H159753   3.957   8.578   5.508
19837WAT     H259754   3.985   8.721   5.583
19838WAT      O59755   5.422   0.722   1.724
19838WAT     H159756   5.400   0.651   1.792
19838WAT     H259757   5.462   0.679   1.643
19839WAT      O59758   9.331   5.106   6.961
19839WAT     H159759   9.390   5.180   6.992
19839WAT     H259760   9.297   5.055   7.040
19840WAT      O59761   3.052   0.733   0.837
19840WAT     H159762   3.049   0.799   0.912
19840WAT     H259763   3.115   0.659   0.860
19841WAT      O59764   3.653   2.292   6.945
19841WAT     H159765   3.663   2.390   6.961
19841WAT     H259766   3.633   2.276   6.848
19842WAT      O59767   0.747   8.441   4.364
19842WAT     H159768   0.699   8.424   4.450
19842WAT     H259769   0.804   8.523   4.373
19843WAT      O59770   7.081   1.615   1.489
19843WAT     H159771   7.008   1.560   1.447
19843WAT     H259772   7.075   1.709   1.456
19844WAT      O59773   0.212   2.207   8.933
19844WAT     H159774   0.206   2.117   8.889
19844WAT     H259775   0.290   2.208   8.996
19845WAT      O59776   1.951   1.313   8.882
19845WAT     H159777   1.975   1.220   8.909
19845WAT     H259778   2.014   1.378   8.925
19846WAT      O59779   5.352   5.832   3.181
19846WAT     H159780   5.298   5.782   3.249
19846WAT     H259781   5.297   5.906   3.143
19847WAT      O59782   1.987   2.448   5.937
19847WAT     H159783   1.948   2.374   5.991
19847WAT     H259784   2.086   2.435   5.930
19848WAT      O59785   4.832   1.820   5.773
19848WAT     H159786   4.759   1.847   5.710
19848WAT     H259787   4.919   1.859   5.742
19849WAT      O59788   8.856   3.761   1.041
19849WAT     H159789   8.824   3.704   0.965
19849WAT     H259790   8.953   3.780   1.030
19850WAT      O59791   2.835   7.629   3.862
19850WAT     H159792   2.754   7.634   3.920
19850WAT     H259793   2.842   7.712   3.807
19851WAT      O59794   6.131   8.161   9.127
19851WAT     H159795   6.121   8.160   9.226
19851WAT     H259796   6.148   8.067   9.095
19852WAT      O59797   3.794   6.606   6.485
19852WAT     H159798   3.809   6.668   6.562
19852WAT     H259799   3.875   6.549   6.472
19853WAT      O59800   7.479   9.286   1.335
19853WAT     H159801   7.409   9.356   1.317
19853WAT     H259802   7.481   9.266   1.434
19854WAT      O59803   7.452   1.675   5.209
19854WAT     H159804   7.484   1.623   5.288
19854WAT     H259805   7.484   1.632   5.125
19855WAT      O59806   9.581   2.702   9.422
19855WAT     H159807   9.576   2.679   9.519
19855WAT     H259808   9.658   2.655   9.380
19856WAT      O59809   2.018   4.544   1.551
19856WAT     H159810   1.967   4.498   1.623
19856WAT     H259811   2.045   4.478   1.481
19857WAT      O59812   4.641   1.402   0.332
19857WAT     H159813   4.678   1.333   0.394
19857WAT     H259814   4.580   1.463   0.383
19858WAT      O59815   4.769   2.706   8.989
19858WAT     H159816   4.710   2.657   9.053
19858WAT     H259817   4.742   2.802   8.985
19859WAT      O59818   7.463   4.777   5.774
19859WAT     H159819   7.459   4.744   5.868
19859WAT     H259820   7.472   4.877   5.774
19860WAT      O59821   9.464   7.044   6.505
19860WAT     H159822   9.517   6.993   6.573
19860WAT     H259823   9.449   7.137   6.538
19861WAT      O59824   9.209   6.224   0.418
19861WAT     H159825   9.294   6.194   0.461
19861WAT     H259826   9.135   6.162   0.443
19862WAT      O59827   4.818   1.617   4.539
19862WAT     H159828   4.737   1.676   4.533
19862WAT     H259829   4.847   1.591   4.447
19863WAT      O59830   7.914   0.546   8.139
19863WAT     H159831   7.842   0.536   8.070
19863WAT     H259832   7.982   0.472   8.127
19864WAT      O59833   2.382   4.956   0.212
19864WAT     H159834   2.287   4.938   0.184
19864WAT     H259835   2.440   4.958   0.131
19865WAT      O59836   2.364   0.387   0.202
19865WAT     H159837   2.457   0.389   0.165
19865WAT     H259838   2.359   0.321   0.278
19866WAT      O59839   5.535   3.942   9.337
19866WAT     H159840   5.630   3.911   9.346
19866WAT     H259841   5.527   4.035   9.373
19867WAT      O59842   3.451   5.872   6.670
19867WAT     H159843   3.471   5.852   6.766
19867WAT     H259844   3.520   5.830   6.611
19868WAT      O59845   0.421   6.084   9.011
19868WAT     H159846   0.329   6.122   9.017
19868WAT     H259847   0.463   6.110   8.924
19869WAT      O59848   0.314   0.476   5.095
19869WAT     H159849   0.234   0.417   5.081
19869WAT     H259850   0.305   0.557   5.037
19870WAT      O59851   9.692   2.208   0.314
19870WAT     H159852   9.634   2.180   0.238
19870WAT     H259853   9.681   2.306   0.331
19871WAT      O59854   3.085   1.471   2.368
19871WAT     H159855   3.072   1.493   2.465
19871WAT     H259856   3.126   1.549   2.321
19872WAT      O59857   9.006   4.748   4.265
19872WAT     H159858   9.095   4.724   4.303
19872WAT     H259859   9.015   4.764   4.166
19873WAT      O59860   4.498   6.291   7.079
19873WAT     H159861   4.523   6.302   6.982
19873WAT     H259862   4.465   6.378   7.115
19874WAT      O59863   9.439   7.551   9.181
19874WAT     H159864   9.524   7.604   9.185
19874WAT     H259865   9.362   7.614   9.179
19875WAT      O59866   5.348   8.488   9.538
19875WAT     H159867   5.383   8.403   9.498
19875WAT     H259868   5.261   8.469   9.583
19876WAT      O59869   6.660   6.057   1.343
19876WAT     H159870   6.640   6.011   1.256
19876WAT     H259871   6.601   6.137   1.353
19877WAT      O59872   3.579   5.803   9.860
19877WAT     H159873   3.609   5.879   9.803
19877WAT     H259874   3.506   5.753   9.813
19878WAT      O59875   0.273   2.009   3.012
19878WAT     H159876   0.354   1.970   2.968
19878WAT     H259877   0.198   1.942   3.008
19879WAT      O59878   1.023   6.744   1.235
19879WAT     H159879   0.923   6.741   1.246
19879WAT     H259880   1.050   6.837   1.209
19880WAT      O59881   2.323   5.633   0.699
19880WAT     H159882   2.281   5.641   0.789
19880WAT     H259883   2.334   5.536   0.676
19881WAT      O59884   4.806   3.938   2.869
19881WAT     H159885   4.754   3.970   2.947
19881WAT     H259886   4.882   3.881   2.900
19882WAT      O59887   1.468   6.286   7.710
19882WAT     H159888   1.560   6.260   7.738
19882WAT     H259889   1.467   6.381   7.680
19883WAT      O59890   0.926   1.368   5.010
19883WAT     H159891   0.950   1.420   4.928
19883WAT     H259892   0.962   1.415   5.090
19884WAT      O59893   1.106   6.608   7.811
19884WAT     H159894   1.017   6.601   7.766
19884WAT     H259895   1.169   6.541   7.772
19885WAT      O59896   1.131   7.545   0.808
19885WAT     H159897   1.179   7.465   0.846
19885WAT     H259898   1.034   7.523   0.795
19886WAT      O59899   7.046   3.388   5.736
19886WAT     H159900   7.142   3.359   5.734
19886WAT     H259901   6.988   3.310   5.759
19887WAT      O59902   0.153   3.921   6.932
19887WAT     H159903   0.128   3.985   7.004
19887WAT     H259904   0.252   3.907   6.931
19888WAT      O59905   1.534   5.112   8.234
19888WAT     H159906   1.521   5.016   8.259
19888WAT     H259907   1.477   5.170   8.292
19889WAT      O59908   2.214   6.617   9.004
19889WAT     H159909   2.174   6.707   9.021
19889WAT     H259910   2.174   6.551   9.067
19890WAT      O59911   5.818   5.744   8.625
19890WAT     H159912   5.865   5.789   8.548
19890WAT     H259913   5.812   5.808   8.702
19891WAT      O59914   6.283   9.577   6.458
19891WAT     H159915   6.218   9.565   6.383
19891WAT     H259916   6.344   9.653   6.438
19892WAT      O59917   3.401   4.416   0.984
19892WAT     H159918   3.393   4.435   1.082
19892WAT     H259919   3.312   4.426   0.940
19893WAT      O59920   3.923   8.255   6.877
19893WAT     H159921   4.005   8.198   6.877
19893WAT     H259922   3.932   8.327   6.809
19894WAT      O59923   7.207   4.999   5.115
19894WAT     H159924   7.190   4.913   5.067
19894WAT     H259925   7.183   4.990   5.211
19895WAT      O59926   3.579   4.726   1.190
19895WAT     H159927   3.520   4.781   1.248
19895WAT     H259928   3.578   4.762   1.097
19896WAT      O59929   2.980   5.772   5.099
19896WAT     H159930   3.028   5.806   5.179
19896WAT     H259931   2.896   5.825   5.085
19897WAT      O59932   0.273   1.057   5.871
19897WAT     H159933   0.239   1.150   5.889
19897WAT     H259934   0.306   1.052   5.776
19898WAT      O59935   3.922   2.475   2.868
19898WAT     H159936   4.001   2.470   2.807
19898WAT     H259937   3.954   2.470   2.963
19899WAT      O59938   7.259   0.016   6.207
19899WAT     H159939   7.297  -0.023   6.123
19899WAT     H259940   7.159   0.010   6.204
19900WAT      O59941   2.250   0.333   5.571
19900WAT     H159942   2.313   0.265   5.609
19900WAT     H259943   2.279   0.357   5.479
19901WAT      O59944   2.125   5.919   1.202
19901WAT     H159945   2.184   5.997   1.223
19901WAT     H259946   2.178   5.849   1.155
19902WAT      O59947   9.222   1.174   3.870
19902WAT     H159948   9.174   1.087   3.880
19902WAT     H259949   9.271   1.196   3.954
19903WAT      O59950   5.001   0.862   3.487
19903WAT     H159951   5.062   0.931   3.526
19903WAT     H259952   4.918   0.854   3.543
19904WAT      O59953   5.695   0.827   2.947
19904WAT     H159954   5.793   0.807   2.943
19904WAT     H259955   5.647   0.773   2.878
19905WAT      O59956   8.048   6.515   4.767
19905WAT     H159957   8.077   6.600   4.812
19905WAT     H259958   8.119   6.446   4.779
19906WAT      O59959   9.424   1.623   1.287
19906WAT     H159960   9.369   1.550   1.246
19906WAT     H259961   9.511   1.628   1.239
19907WAT      O59962   7.986   0.507   4.098
19907WAT     H159963   8.074   0.493   4.143
19907WAT     H259964   7.943   0.418   4.081
19908WAT      O59965   2.611   7.334   4.669
19908WAT     H159966   2.582   7.417   4.716
19908WAT     H259967   2.639   7.265   4.735
19909WAT      O59968   8.040   8.664   1.436
19909WAT     H159969   7.986   8.744   1.409
19909WAT     H259970   8.091   8.630   1.357
19910WAT      O59971   3.130   2.777   7.115
19910WAT     H159972   3.125   2.737   7.023
19910WAT     H259973   3.205   2.734   7.166
19911WAT      O59974   8.577   6.936   4.443
19911WAT     H159975   8.496   6.924   4.386
19911WAT     H259976   8.658   6.913   4.391
19912WAT      O59977   0.726   9.707   6.484
19912WAT     H159978   0.774   9.761   6.553
19912WAT     H259979   0.757   9.733   6.393
19913WAT      O59980   9.621   1.632   7.397
19913WAT     H159981   9.708   1.622   7.348
19913WAT     H259982   9.633   1.693   7.475
19914WAT      O59983   7.340   9.322   2.653
19914WAT     H159984   7.378   9.412   2.675
19914WAT     H259985   7.246   9.316   2.684
19915WAT      O59986   9.749   5.742   0.087
19915WAT     H159987   9.765   5.775  -0.006
19915WAT     H259988   9.766   5.817   0.152
19916WAT      O59989   4.620   9.499   4.108
19916WAT     H159990   4.689   9.501   4.181
19916WAT     H259991   4.629   9.580   4.051
19917WAT      O59992   8.366   8.861   8.470
19917WAT     H159993   8.287   8.843   8.412
19917WAT     H259994   8.373   8.959   8.488
19918WAT      O59995   4.646   6.016   3.543
19918WAT     H159996   4.646   5.988   3.447
19918WAT     H259997   4.652   6.116   3.548
19919WAT      O59998   0.677   0.658   3.514
19919WAT     H159999   0.616   0.684   3.440
19919WAT     H260000   0.671   0.725   3.588
19920WAT      O60001   5.240   9.612   2.095
19920WAT     H160002   5.180   9.628   2.173
19920WAT     H260003   5.317   9.555   2.122
19921WAT      O60004   2.867   9.464   8.539
19921WAT     H160005   2.875   9.426   8.631
19921WAT     H260006   2.772   9.490   8.522
19922WAT      O60007   5.459   6.197   3.057
19922WAT     H160008   5.521   6.142   3.001
19922WAT     H260009   5.450   6.155   3.148
19923WAT      O60010   0.020   0.174   0.838
19923WAT     H160011  -0.066   0.152   0.885
19923WAT     H260012   0.043   0.270   0.854
19924WAT      O60013   7.994   6.259   4.536
19924WAT     H160014   7.934   6.252   4.615
19924WAT     H260015   8.080   6.211   4.554
19925WAT      O60016   0.013   8.496   7.283
19925WAT     H160017   0.058   8.412   7.251
19925WAT     H260018  -0.046   8.474   7.361
19926WAT      O60019   4.376   3.645   5.530
19926WAT     H160020   4.303   3.595   5.577
19926WAT     H260021   4.438   3.580   5.486
19927WAT      O60022   3.150   0.848   6.453
19927WAT     H160023   3.244   0.822   6.431
19927WAT     H260024   3.106   0.886   6.371
19928WAT      O60025   8.427   9.449   0.836
19928WAT     H160026   8.386   9.466   0.926
19928WAT     H260027   8.475   9.531   0.806
19929WAT      O60028   8.058   6.888   1.222
19929WAT     H160029   8.126   6.815   1.208
19929WAT     H260030   7.968   6.854   1.196
19930WAT      O60031   8.368   2.289   2.718
19930WAT     H160032   8.355   2.271   2.816
19930WAT     H260033   8.315   2.370   2.692
19931WAT      O60034   0.830   6.134   8.816
19931WAT     H160035   0.924   6.122   8.848
19931WAT     H260036   0.795   6.223   8.847
19932WAT      O60037   4.465   3.803   6.544
19932WAT     H160038   4.466   3.869   6.470
19932WAT     H260039   4.549   3.749   6.542
19933WAT      O60040   5.895   0.451   2.347
19933WAT     H160041   5.957   0.392   2.296
19933WAT     H260042   5.904   0.545   2.314
19934WAT      O60043   0.401   0.670   0.944
19934WAT     H160044   0.364   0.691   1.035
19934WAT     H260045   0.497   0.644   0.953
19935WAT      O60046   5.491   1.232   2.945
19935WAT     H160047   5.580   1.193   2.921
19935WAT     H260048   5.501   1.289   3.026
19936WAT      O60049   1.869   5.892   1.270
19936WAT     H160050   1.963   5.891   1.236
19936WAT     H260051   1.825   5.978   1.244
19937WAT      O60052   8.238   5.560   4.003
19937WAT     H160053   8.294   5.506   4.066
19937WAT     H260054   8.191   5.500   3.939
19938WAT      O60055   1.346   9.201   2.666
19938WAT     H160056   1.275   9.218   2.734
19938WAT     H260057   1.360   9.283   2.611
19939WAT      O60058   3.929   4.170   7.758
19939WAT     H160059   3.922   4.150   7.660
19939WAT     H260060   3.914   4.086   7.810
19940WAT      O60061   0.525   1.133   3.877
19940WAT     H160062   0.432   1.144   3.841
19940WAT     H260063   0.539   1.037   3.902
19941WAT      O60064   1.961   5.345   8.702
19941WAT     H160065   1.889   5.322   8.768
19941WAT     H260066   1.940   5.304   8.614
19942WAT      O60067   6.508   9.796   3.168
19942WAT     H160068   6.441   9.867   3.188
19942WAT     H260069   6.469   9.730   3.103
19943WAT      O60070   3.503   8.699   1.610
19943WAT     H160071   3.491   8.657   1.700
19943WAT     H260072   3.579   8.655   1.563
19944WAT      O60073   6.016   5.765   7.758
19944WAT     H160074   5.935   5.777   7.700
19944WAT     H260075   5.998   5.693   7.825
19945WAT      O60076   5.097   2.222   8.186
19945WAT     H160077   5.129   2.157   8.255
19945WAT     H260078   5.151   2.211   8.103
19946WAT      O60079   7.245   3.092   7.342
19946WAT     H160080   7.213   3.128   7.254
19946WAT     H260081   7.214   3.152   7.416
19947WAT      O60082   4.714   1.943   8.972
19947WAT     H160083   4.763   2.028   8.952
19947WAT     H260084   4.663   1.915   8.891
19948WAT      O60085   7.492   4.873   6.688
19948WAT     H160086   7.473   4.966   6.657
19948WAT     H260087   7.498   4.812   6.609
19949WAT      O60088   2.552   4.261   7.317
19949WAT     H160089   2.574   4.323   7.393
19949WAT     H260090   2.459   4.227   7.329
19950WAT      O60091   0.762   0.841   5.945
19950WAT     H160092   0.681   0.868   5.893
19950WAT     H260093   0.735   0.782   6.021
19951WAT      O60094   2.056   1.516   9.047
19951WAT     H160095   2.105   1.575   8.983
19951WAT     H260096   2.057   1.559   9.138
19952WAT      O60097   5.353   1.061   8.781
19952WAT     H160098   5.288   1.085   8.710
19952WAT     H260099   5.438   1.112   8.767
19953WAT      O60100   4.702   3.242   3.903
19953WAT     H160101   4.775   3.178   3.924
19953WAT     H260102   4.680   3.295   3.984
19954WAT      O60103   7.285   6.920   2.699
19954WAT     H160104   7.197   6.952   2.734
19954WAT     H260105   7.287   6.932   2.600
19955WAT      O60106   1.117   1.412   6.206
19955WAT     H160107   1.140   1.430   6.111
19955WAT     H260108   1.175   1.468   6.265
19956WAT      O60109   6.384   4.134   1.280
19956WAT     H160110   6.469   4.185   1.271
19956WAT     H260111   6.306   4.195   1.262
19957WAT      O60112   4.860   7.797   5.458
19957WAT     H160113   4.835   7.838   5.545
19957WAT     H260114   4.800   7.833   5.386
19958WAT      O60115   6.730   1.616   4.487
19958WAT     H160116   6.732   1.517   4.496
19958WAT     H260117   6.636   1.649   4.496
19959WAT      O60118   3.773   5.986   2.531
19959WAT     H160119   3.713   6.030   2.466
19959WAT     H260120   3.837   5.926   2.483
19960WAT      O60121   8.788   4.252   6.321
19960WAT     H160122   8.748   4.200   6.397
19960WAT     H260123   8.727   4.247   6.242
19961WAT      O60124   7.634   4.026   0.334
19961WAT     H160125   7.652   3.931   0.358
19961WAT     H260126   7.688   4.086   0.393
19962WAT      O60127   2.113   3.806   1.698
19962WAT     H160128   2.068   3.894   1.717
19962WAT     H260129   2.114   3.790   1.599
19963WAT      O60130   3.700   6.208   1.037
19963WAT     H160131   3.742   6.142   1.099
19963WAT     H260132   3.747   6.296   1.047
19964WAT      O60133   5.343   2.372   6.091
19964WAT     H160134   5.413   2.327   6.146
19964WAT     H260135   5.278   2.419   6.151
19965WAT      O60136   9.388   2.521   5.257
19965WAT     H160137   9.322   2.548   5.187
19965WAT     H260138   9.340   2.501   5.342
19966WAT      O60139   5.315   3.654   7.534
19966WAT     H160140   5.283   3.586   7.468
19966WAT     H260141   5.289   3.745   7.502
19967WAT      O60142   0.564   0.406   3.889
19967WAT     H160143   0.661   0.419   3.910
19967WAT     H260144   0.555   0.347   3.809
19968WAT      O60145   8.354   7.043   8.938
19968WAT     H160146   8.338   7.131   8.892
19968WAT     H260147   8.279   6.981   8.917
19969WAT      O60148   2.022   5.772   0.779
19969WAT     H160149   2.104   5.829   0.778
19969WAT     H260150   1.961   5.799   0.704
19970WAT      O60151   6.170   3.125   7.503
19970WAT     H160152   6.183   3.223   7.511
19970WAT     H260153   6.084   3.106   7.456
19971WAT      O60154   9.541   3.551   5.273
19971WAT     H160155   9.529   3.516   5.366
19971WAT     H260156   9.575   3.645   5.276
19972WAT      O60157   4.025   4.944   8.147
19972WAT     H160158   3.985   5.029   8.113
19972WAT     H260159   4.111   4.927   8.099
19973WAT      O60160   0.192   7.926   4.542
19973WAT     H160161   0.167   7.991   4.472
19973WAT     H260162   0.291   7.930   4.558
19974WAT      O60163   3.470   8.763   0.321
19974WAT     H160164   3.458   8.806   0.232
19974WAT     H260165   3.384   8.766   0.372
19975WAT      O60166   2.050   4.952   1.797
19975WAT     H160167   2.138   4.952   1.749
19975WAT     H260168   1.990   5.020   1.755
19976WAT      O60169   0.890   9.836   9.787
19976WAT     H160170   0.901   9.893   9.868
19976WAT     H260171   0.976   9.835   9.735
19977WAT      O60172   1.698   4.383   1.104
19977WAT     H160173   1.760   4.442   1.156
19977WAT     H260174   1.654   4.319   1.167
19978WAT      O60175   8.873   9.782   6.333
19978WAT     H160176   8.871   9.882   6.347
19978WAT     H260177   8.959   9.757   6.288
19979WAT      O60178   7.508   5.983   5.786
19979WAT     H160179   7.543   5.892   5.808
19979WAT     H260180   7.408   5.983   5.794
19980WAT      O60181   7.941   5.701   9.047
19980WAT     H160182   7.878   5.725   9.121
19980WAT     H260183   8.035   5.715   9.078
19981WAT      O60184   9.053   4.583   9.471
19981WAT     H160185   9.010   4.534   9.395
19981WAT     H260186   9.087   4.517   9.538
19982WAT      O60187   8.859   2.898   4.892
19982WAT     H160188   8.917   2.858   4.821
19982WAT     H260189   8.764   2.902   4.860
19983WAT      O60190   4.500   4.884   8.690
19983WAT     H160191   4.402   4.875   8.678
19983WAT     H260192   4.543   4.905   8.602
19984WAT      O60193   4.521   1.340   5.126
19984WAT     H160194   4.473   1.403   5.187
19984WAT     H260195   4.619   1.360   5.127
19985WAT      O60196   0.387   2.655   6.669
19985WAT     H160197   0.364   2.636   6.573
19985WAT     H260198   0.310   2.627   6.727
19986WAT      O60199   6.589   8.953   0.597
19986WAT     H160200   6.505   8.996   0.563
19986WAT     H260201   6.578   8.854   0.596
19987WAT      O60202   6.213   2.132   4.355
19987WAT     H160203   6.269   2.162   4.432
19987WAT     H260204   6.257   2.055   4.309
19988WAT      O60205   6.430   7.632   2.927
19988WAT     H160206   6.350   7.680   2.892
19988WAT     H260207   6.402   7.568   2.999
19989WAT      O60208  -0.001   3.855   9.606
19989WAT     H160209   0.047   3.787   9.661
19989WAT     H260210   0.066   3.908   9.553
19990WAT      O60211   6.167   0.799   0.631
19990WAT     H160212   6.206   0.891   0.632
19990WAT     H260213   6.241   0.732   0.623
19991WAT      O60214   9.655   0.561   4.263
19991WAT     H160215   9.570   0.614   4.251
19991WAT     H260216   9.687   0.571   4.357
19992WAT      O60217   0.725   2.758   0.038
19992WAT     H160218   0.648   2.759  -0.026
19992WAT     H260219   0.690   2.764   0.131
19993WAT      O60220   4.206   9.681   5.957
19993WAT     H160221   4.201   9.592   6.002
19993WAT     H260222   4.231   9.751   6.023
19994WAT      O60223   6.467   2.079   7.990
19994WAT     H160224   6.494   2.006   7.928
19994WAT     H260225   6.486   2.052   8.084
19995WAT      O60226   1.441   1.599   6.110
19995WAT     H160227   1.474   1.508   6.137
19995WAT     H260228   1.416   1.651   6.191
19996WAT      O60229   3.908   9.180   6.569
19996WAT     H160230   3.915   9.080   6.570
19996WAT     H260231   3.992   9.218   6.531
19997WAT      O60232   2.281   1.503   0.545
19997WAT     H160233   2.279   1.499   0.445
19997WAT     H260234   2.308   1.414   0.581
19998WAT      O60235   4.781   0.716   9.117
19998WAT     H160236   4.806   0.703   9.213
19998WAT     H260237   4.829   0.795   9.080
19999WAT      O60238   3.262   4.177   1.591
19999WAT     H160239   3.194   4.179   1.518
19999WAT     H260240   3.334   4.243   1.571
20000WAT      O60241   2.875   4.976   4.571
20000WAT     H160242   2.803   5.042   4.591
20000WAT     H260243   2.838   4.883   4.574
20001WAT      O60244   2.062   8.045   6.320
20001WAT     H160245   2.065   8.092   6.408
20001WAT     H260246   2.143   8.067   6.266
20002WAT      O60247   9.313   0.269   0.041
20002WAT     H160248   9.337   0.192  -0.019
20002WAT     H260249   9.216   0.267   0.062
20003WAT      O60250   7.197   2.095   2.541
20003WAT     H160251   7.215   2.014   2.596
20003WAT     H260252   7.110   2.083   2.492
20004WAT      O60253   6.498   0.427   8.262
20004WAT     H160254   6.449   0.410   8.348
20004WAT     H260255   6.489   0.523   8.237
20005WAT      O60256   2.760   8.988   8.623
20005WAT     H160257   2.713   8.993   8.535
20005WAT     H260258   2.858   8.977   8.608
20006WAT      O60259   9.505   8.760   2.778
20006WAT     H160260   9.432   8.768   2.847
20006WAT     H260261   9.515   8.847   2.730
20007WAT      O60262   5.053   6.791   2.710
20007WAT     H160263   5.064   6.877   2.660
20007WAT     H260264   5.065   6.714   2.648
20008WAT      O60265   6.124   4.839   3.794
20008WAT     H160266   6.030   4.804   3.788
20008WAT     H260267   6.132   4.897   3.875
20009WAT      O60268   2.750   3.256   7.221
20009WAT     H160269   2.757   3.162   7.186
20009WAT     H260270   2.653   3.283   7.222
20010WAT      O60271   8.595   9.011   0.254
20010WAT     H160272   8.674   9.054   0.299
20010WAT     H260273   8.605   8.912   0.258
20011WAT      O60274   2.978   0.258   2.050
20011WAT     H160275   2.912   0.200   2.003
20011WAT     H260276   2.953   0.267   2.146
20012WAT      O60277   4.600   1.154   7.979
20012WAT     H160278   4.632   1.222   8.045
20012WAT     H260279   4.571   1.201   7.895
20013WAT      O60280   1.174   4.388   7.723
20013WAT     H160281   1.210   4.319   7.785
20013WAT     H260282   1.245   4.414   7.658
20014WAT      O60283   6.801   6.175   6.869
20014WAT     H160284   6.804   6.103   6.938
20014WAT     H260285   6.892   6.187   6.830
20015WAT      O60286   8.413   5.253   8.687
20015WAT     H160287   8.459   5.183   8.632
20015WAT     H260288   8.327   5.216   8.722
20016WAT      O60289   0.667   3.827   4.830
20016WAT     H160290   0.600   3.821   4.756
20016WAT     H260291   0.701   3.736   4.853
20017WAT      O60292   2.247   6.634   0.390
20017WAT     H160293   2.259   6.536   0.376
20017WAT     H260294   2.292   6.661   0.476
20018WAT      O60295   3.755   1.328   1.616
20018WAT     H160296   3.787   1.264   1.545
20018WAT     H260297   3.674   1.289   1.661
20019WAT      O60298   0.357   7.816   6.881
20019WAT     H160299   0.378   7.883   6.810
20019WAT     H260300   0.297   7.746   6.843
20020WAT      O60301   3.271   3.380   5.155
20020WAT     H160302   3.222   3.431   5.085
20020WAT     H260303   3.209   3.316   5.201
20021WAT      O60304   5.097   4.873   7.864
20021WAT     H160305   5.004   4.885   7.898
20021WAT     H260306   5.096   4.827   7.776
20022WAT      O60307   3.346   2.355   6.628
20022WAT     H160308   3.386   2.263   6.632
20022WAT     H260309   3.276   2.358   6.556
20023WAT      O60310   5.349   0.477   1.243
20023WAT     H160311   5.341   0.424   1.158
20023WAT     H260312   5.263   0.526   1.259
20024WAT      O60313   2.567   3.381   1.080
20024WAT     H160314   2.574   3.349   0.986
20024WAT     H260315   2.658   3.402   1.114
20025WAT      O60316   2.272   5.338   7.782
20025WAT     H160317   2.175   5.314   7.774
20025WAT     H260318   2.328   5.262   7.749
20026WAT      O60319   0.754   0.109   9.360
20026WAT     H160320   0.747   0.024   9.307
20026WAT     H260321   0.719   0.093   9.453
20027WAT      O60322   4.204   0.418   9.610
20027WAT     H160323   4.292   0.385   9.576
20027WAT     H260324   4.134   0.400   9.542
20028WAT      O60325   2.447   3.525   3.307
20028WAT     H160326   2.461   3.622   3.327
20028WAT     H260327   2.397   3.483   3.383
20029WAT      O60328   9.459   8.008   5.632
20029WAT     H160329   9.362   8.031   5.637
20029WAT     H260330   9.498   8.048   5.549
20030WAT      O60331   6.577   4.773   5.030
20030WAT     H160332   6.655   4.811   5.079
20030WAT     H260333   6.580   4.673   5.035
20031WAT      O60334   7.384   6.246   5.260
20031WAT     H160335   7.331   6.202   5.188
20031WAT     H260336   7.368   6.345   5.259
20032WAT      O60337   3.310   5.648   5.016
20032WAT     H160338   3.229   5.609   4.973
20032WAT     H260339   3.338   5.591   5.093
20033WAT      O60340   3.569   7.578   6.286
20033WAT     H160341   3.661   7.613   6.298
20033WAT     H260342   3.530   7.615   6.202
20034WAT      O60343   7.156   4.638   6.674
20034WAT     H160344   7.224   4.594   6.733
20034WAT     H260345   7.098   4.699   6.729
20035WAT      O60346   6.416   0.928   3.057
20035WAT     H160347   6.342   0.926   3.124
20035WAT     H260348   6.396   0.862   2.984
20036WAT      O60349   8.304   1.087   8.786
20036WAT     H160350   8.296   1.061   8.883
20036WAT     H260351   8.379   1.152   8.775
20037WAT      O60352   9.455   2.078   0.633
20037WAT     H160353   9.390   2.018   0.586
20037WAT     H260354   9.417   2.171   0.637
20038WAT      O60355   3.839   9.792   2.065
20038WAT     H160356   3.768   9.777   2.133
20038WAT     H260357   3.816   9.743   1.981
20039WAT      O60358   4.441   0.483   0.130
20039WAT     H160359   4.517   0.420   0.150
20039WAT     H260360   4.475   0.577   0.134
20040WAT      O60361   9.306   6.574   0.569
20040WAT     H160362   9.386   6.611   0.521
20040WAT     H260363   9.240   6.647   0.586
20041WAT      O60364   5.250   2.938   2.116
20041WAT     H160365   5.263   3.007   2.045
20041WAT     H260366   5.173   2.879   2.092
20042WAT      O60367   5.356   5.897   2.336
20042WAT     H160368   5.286   5.828   2.322
20042WAT     H260369   5.434   5.857   2.385
20043WAT      O60370   5.940   1.898   7.392
20043WAT     H160371   5.980   1.974   7.444
20043WAT     H260372   5.844   1.887   7.418
20044WAT      O60373   0.607   2.802   5.936
20044WAT     H160374   0.590   2.875   5.869
20044WAT     H260375   0.702   2.809   5.967
20045WAT      O60376   1.599   7.360   6.081
20045WAT     H160377   1.556   7.399   6.162
20045WAT     H260378   1.578   7.262   6.077
20046WAT      O60379   7.014   1.240   4.481
20046WAT     H160380   6.993   1.225   4.384
20046WAT     H260381   7.100   1.290   4.489
20047WAT      O60382   8.649   2.169   0.947
20047WAT     H160383   8.582   2.152   0.874
20047WAT     H260384   8.602   2.172   1.035
20048WAT      O60385   1.154   7.205   8.406
20048WAT     H160386   1.254   7.209   8.417
20048WAT     H260387   1.111   7.263   8.474
20049WAT      O60388   9.696   9.200   2.306
20049WAT     H160389   9.728   9.133   2.373
20049WAT     H260390   9.739   9.288   2.324
20050WAT      O60391   4.372   7.556   4.414
20050WAT     H160392   4.361   7.572   4.512
20050WAT     H260393   4.377   7.458   4.397
20051WAT      O60394   0.393   6.381   2.564
20051WAT     H160395   0.364   6.325   2.487
20051WAT     H260396   0.331   6.460   2.573
20052WAT      O60397   1.487   2.550   6.910
20052WAT     H160398   1.553   2.605   6.859
20052WAT     H260399   1.527   2.461   6.932
20053WAT      O60400   7.758   8.372   0.209
20053WAT     H160401   7.689   8.327   0.265
20053WAT     H260402   7.837   8.396   0.265
20054WAT      O60403   4.036   0.392   0.159
20054WAT     H160404   4.057   0.488   0.137
20054WAT     H260405   4.117   0.349   0.198
20055WAT      O60406   0.332   3.601   6.078
20055WAT     H160407   0.321   3.669   6.005
20055WAT     H260408   0.426   3.602   6.110
20056WAT      O60409   7.925   1.974   0.401
20056WAT     H160410   7.945   1.993   0.305
20056WAT     H260411   7.926   2.060   0.453
20057WAT      O60412   8.909   4.334   5.802
20057WAT     H160413   8.883   4.327   5.898
20057WAT     H260414   8.878   4.422   5.765
20058WAT      O60415   9.763   0.588   7.896
20058WAT     H160416   9.767   0.523   7.972
20058WAT     H260417   9.667   0.611   7.876
20059WAT      O60418   3.087   6.008   2.655
20059WAT     H160419   3.125   6.004   2.747
20059WAT     H260420   3.158   5.983   2.589
20060WAT      O60421   9.011   9.542   5.421
20060WAT     H160422   8.958   9.540   5.506
20060WAT     H260423   9.023   9.448   5.388
20061WAT      O60424   0.931   5.690   8.356
20061WAT     H160425   0.894   5.608   8.400
20061WAT     H260426   1.029   5.679   8.341
20062WAT      O60427   8.639   8.782   8.896
20062WAT     H160428   8.542   8.792   8.876
20062WAT     H260429   8.675   8.868   8.933
20063WAT      O60430   9.539   3.012   3.024
20063WAT     H160431   9.548   2.967   3.113
20063WAT     H260432   9.627   3.009   2.977
20064WAT      O60433   4.732   4.843   0.123
20064WAT     H160434   4.656   4.877   0.179
20064WAT     H260435   4.804   4.913   0.118
20065WAT      O60436   3.010   2.951   3.122
20065WAT     H160437   3.082   2.882   3.131
20065WAT     H260438   3.028   3.008   3.041
20066WAT      O60439   4.022   2.689   0.973
20066WAT     H160440   3.990   2.600   0.942
20066WAT     H260441   3.977   2.712   1.060
20067WAT      O60442   9.250   2.931   5.516
20067WAT     H160443   9.231   2.858   5.450
20067WAT     H260444   9.174   2.940   5.580
20068WAT      O60445   3.161   0.932   1.923
20068WAT     H160446   3.088   0.997   1.941
20068WAT     H260447   3.126   0.858   1.865
20069WAT      O60448   4.666   5.631   7.793
20069WAT     H160449   4.739   5.674   7.847
20069WAT     H260450   4.640   5.691   7.717
20070WAT      O60451   8.165   6.908   0.938
20070WAT     H160452   8.122   6.898   1.027
20070WAT     H260453   8.125   6.986   0.890
20071WAT      O60454   7.792   6.123   3.506
20071WAT     H160455   7.734   6.068   3.567
20071WAT     H260456   7.734   6.175   3.443
20072WAT      O60457   4.799   9.688   2.865
20072WAT     H160458   4.799   9.712   2.962
20072WAT     H260459   4.726   9.738   2.818
20073WAT      O60460   2.106   5.315   5.324
20073WAT     H160461   2.093   5.216   5.329
20073WAT     H260462   2.019   5.359   5.300
20074WAT      O60463   1.443   0.395   5.908
20074WAT     H160464   1.534   0.415   5.871
20074WAT     H260465   1.436   0.430   6.001
20075WAT      O60466   2.926   3.197   1.299
20075WAT     H160467   2.942   3.119   1.359
20075WAT     H260468   2.969   3.181   1.210
20076WAT      O60469   7.663   7.913   5.171
20076WAT     H160470   7.616   7.879   5.253
20076WAT     H260471   7.602   7.906   5.092
20077WAT      O60472   8.882   3.708   7.649
20077WAT     H160473   8.887   3.773   7.573
20077WAT     H260474   8.944   3.737   7.722
20078WAT      O60475   0.240   9.655   6.114
20078WAT     H160476   0.310   9.722   6.135
20078WAT     H260477   0.156   9.678   6.164
20079WAT      O60478   9.102   6.523   8.226
20079WAT     H160479   9.127   6.569   8.140
20079WAT     H260480   9.004   6.536   8.242
20080WAT      O60481   0.092   2.255   7.587
20080WAT     H160482   0.072   2.329   7.652
20080WAT     H260483   0.036   2.267   7.505
20081WAT      O60484   6.912   0.042   7.109
20081WAT     H160485   6.914   0.139   7.133
20081WAT     H260486   6.905   0.033   7.010
20082WAT      O60487   4.328   4.285   7.615
20082WAT     H160488   4.338   4.253   7.520
20082WAT     H260489   4.403   4.248   7.670
20083WAT      O60490   8.635   3.790   6.365
20083WAT     H160491   8.600   3.815   6.275
20083WAT     H260492   8.733   3.772   6.359
20084WAT      O60493   3.361   3.549   6.418
20084WAT     H160494   3.385   3.575   6.324
20084WAT     H260495   3.395   3.618   6.482
20085WAT      O60496   6.691   6.593   4.648
20085WAT     H160497   6.741   6.579   4.733
20085WAT     H260498   6.687   6.507   4.597
20086WAT      O60499   4.403   7.031   3.896
20086WAT     H160500   4.375   7.099   3.964
20086WAT     H260501   4.342   6.951   3.902
20087WAT      O60502   0.353   9.330   1.368
20087WAT     H160503   0.370   9.421   1.405
20087WAT     H260504   0.309   9.273   1.438
20088WAT      O60505   1.783   4.555   0.677
20088WAT     H160506   1.720   4.539   0.753
20088WAT     H260507   1.781   4.652   0.653
20089WAT      O60508   0.132   0.247   2.303
20089WAT     H160509   0.155   0.277   2.395
20089WAT     H260510   0.216   0.231   2.251
20090WAT      O60511   0.046   8.058   0.555
20090WAT     H160512   0.104   8.012   0.489
20090WAT     H260513   0.044   8.006   0.641
20091WAT      O60514   8.417   5.364   9.403
20091WAT     H160515   8.391   5.333   9.494
20091WAT     H260516   8.438   5.285   9.346
20092WAT      O60517   0.029   2.967   7.354
20092WAT     H160518   0.024   2.974   7.453
20092WAT     H260519   0.103   2.906   7.328
20093WAT      O60520   0.283   3.508   7.699
20093WAT     H160521   0.304   3.533   7.794
20093WAT     H260522   0.350   3.550   7.638
20094WAT      O60523   0.315   6.577   9.196
20094WAT     H160524   0.220   6.551   9.178
20094WAT     H260525   0.337   6.561   9.292
20095WAT      O60526   1.877   1.083   4.226
20095WAT     H160527   1.786   1.046   4.206
20095WAT     H260528   1.890   1.168   4.177
20096WAT      O60529   2.454   3.265   6.149
20096WAT     H160530   2.425   3.179   6.191
20096WAT     H260531   2.375   3.324   6.135
20097WAT      O60532   1.848   4.171   6.148
20097WAT     H160533   1.934   4.123   6.166
20097WAT     H260534   1.785   4.155   6.223
20098WAT      O60535   4.119   1.402   3.129
20098WAT     H160536   4.147   1.342   3.204
20098WAT     H260537   4.200   1.444   3.088
20099WAT      O60538   0.462   2.041   0.634
20099WAT     H160539   0.443   1.946   0.608
20099WAT     H260540   0.397   2.069   0.705
20100WAT      O60541   7.298   5.346   1.753
20100WAT     H160542   7.313   5.374   1.658
20100WAT     H260543   7.387   5.331   1.797
20101WAT      O60544   9.838   2.377   6.743
20101WAT     H160545   9.886   2.332   6.667
20101WAT     H260546   9.786   2.455   6.708
20102WAT      O60547   7.949   6.104   0.166
20102WAT     H160548   7.913   6.031   0.108
20102WAT     H260549   7.969   6.067   0.257
20103WAT      O60550   7.583   9.626   0.350
20103WAT     H160551   7.530   9.598   0.269
20103WAT     H260552   7.659   9.684   0.321
20104WAT      O60553   8.961   2.036   1.872
20104WAT     H160554   8.920   2.127   1.885
20104WAT     H260555   8.981   2.023   1.776
20105WAT      O60556   0.707   4.153   9.789
20105WAT     H160557   0.747   4.170   9.699
20105WAT     H260558   0.780   4.147   9.857
20106WAT      O60559   2.856   8.134   1.128
20106WAT     H160560   2.794   8.110   1.202
20106WAT     H260561   2.837   8.077   1.048
20107WAT      O60562   0.113   5.073   6.087
20107WAT     H160563   0.135   4.976   6.100
20107WAT     H260564   0.044   5.082   6.015
20108WAT      O60565   8.144   5.427   3.749
20108WAT     H160566   8.077   5.501   3.752
20108WAT     H260567   8.235   5.465   3.729
20109WAT      O60568   9.060   9.238   9.308
20109WAT     H160569   8.967   9.274   9.321
20109WAT     H260570   9.098   9.274   9.223
20110WAT      O60571   9.495   2.140   0.142
20110WAT     H160572   9.493   2.042   0.122
20110WAT     H260573   9.444   2.189   0.072
20111WAT      O60574   2.676   7.253   3.675
20111WAT     H160575   2.614   7.178   3.653
20111WAT     H260576   2.729   7.277   3.593
20112WAT      O60577   6.548   7.150   9.411
20112WAT     H160578   6.451   7.158   9.436
20112WAT     H260579   6.594   7.090   9.476
20113WAT      O60580   4.094   7.986   2.546
20113WAT     H160581   4.037   8.009   2.624
20113WAT     H260582   4.185   7.959   2.577
20114WAT      O60583   9.434   6.948   4.434
20114WAT     H160584   9.514   6.981   4.483
20114WAT     H260585   9.393   6.872   4.485
20115WAT      O60586   4.224   3.336   0.234
20115WAT     H160587   4.290   3.374   0.169
20115WAT     H260588   4.270   3.316   0.320
20116WAT      O60589   3.272   7.221   3.551
20116WAT     H160590   3.359   7.170   3.556
20116WAT     H260591   3.196   7.157   3.560
20117WAT      O60592   7.662   6.307   5.329
20117WAT     H160593   7.580   6.249   5.322
20117WAT     H260594   7.722   6.271   5.400
20118WAT      O60595   2.025   2.047   0.830
20118WAT     H160596   1.984   1.966   0.873
20118WAT     H260597   1.954   2.097   0.780
20119WAT      O60598   0.799   4.625   5.855
20119WAT     H160599   0.791   4.608   5.756
20119WAT     H260600   0.778   4.541   5.905
20120WAT      O60601   1.371   1.386   3.753
20120WAT     H160602   1.429   1.455   3.795
20120WAT     H260603   1.275   1.412   3.763
20121WAT      O60604   2.106   0.296   6.628
20121WAT     H160605   2.151   0.271   6.714
20121WAT     H260606   2.022   0.243   6.617
20122WAT      O60607   6.205   3.430   5.263
20122WAT     H160608   6.185   3.481   5.346
20122WAT     H260609   6.150   3.465   5.187
20123WAT      O60610   4.570   6.991   5.057
20123WAT     H160611   4.501   6.989   4.984
20123WAT     H260612   4.529   7.028   5.141
20124WAT      O60613   8.193   5.312   5.821
20124WAT     H160614   8.164   5.354   5.908
20124WAT     H260615   8.189   5.380   5.748
20125WAT      O60616   3.605   9.110   5.390
20125WAT     H160617   3.650   9.197   5.409
20125WAT     H260618   3.665   9.035   5.419
20126WAT      O60619   2.413   7.445   2.046
20126WAT     H160620   2.441   7.431   1.951
20126WAT     H260621   2.355   7.369   2.076
20127WAT      O60622   5.044   2.075   8.638
20127WAT     H160623   5.127   2.037   8.680
20127WAT     H260624   5.014   2.014   8.564
20128WAT      O60625   6.179   7.995   2.406
20128WAT     H160626   6.236   7.920   2.374
20128WAT     H260627   6.101   7.959   2.457
20129WAT      O60628   5.498   1.089   4.635
20129WAT     H160629   5.596   1.108   4.648
20129WAT     H260630   5.446   1.173   4.652
20130WAT      O60631   6.432   8.366   3.865
20130WAT     H160632   6.492   8.435   3.907
20130WAT     H260633   6.410   8.394   3.772
20131WAT      O60634   6.663   2.029   1.055
20131WAT     H160635   6.643   1.999   0.962
20131WAT     H260636   6.578   2.059   1.099
20132WAT      O60637   1.678   3.879   6.765
20132WAT     H160638   1.690   3.978   6.753
20132WAT     H260639   1.761   3.832   6.736
20133WAT      O60640   8.354   0.924   7.393
20133WAT     H160641   8.306   0.853   7.342
20133WAT     H260642   8.419   0.881   7.456
20134WAT      O60643   3.486   6.027   8.512
20134WAT     H160644   3.445   6.064   8.428
20134WAT     H260645   3.548   5.952   8.488
20135WAT      O60646   6.225   9.096   3.487
20135WAT     H160647   6.318   9.091   3.524
20135WAT     H260648   6.180   9.007   3.497
20136WAT      O60649   3.473   8.568   1.852
20136WAT     H160650   3.469   8.613   1.941
20136WAT     H260651   3.561   8.521   1.842
20137WAT      O60652   2.166   5.521   9.286
20137WAT     H160653   2.220   5.455   9.338
20137WAT     H260654   2.210   5.611   9.290
20138WAT      O60655   1.561   4.710   0.954
20138WAT     H160656   1.568   4.789   0.894
20138WAT     H260657   1.616   4.727   1.037
20139WAT      O60658   6.363   7.575   5.955
20139WAT     H160659   6.413   7.488   5.954
20139WAT     H260660   6.282   7.567   5.897
20140WAT      O60661   9.706   1.901   0.938
20140WAT     H160662   9.615   1.880   0.904
20140WAT     H260663   9.708   1.996   0.970
20141WAT      O60664   6.419   6.330   0.079
20141WAT     H160665   6.363   6.307   0.159
20141WAT     H260666   6.451   6.425   0.087
20142WAT      O60667   0.731   9.003   7.512
20142WAT     H160668   0.714   8.906   7.493
20142WAT     H260669   0.673   9.059   7.452
20143WAT      O60670   4.302   9.730   2.366
20143WAT     H160671   4.217   9.734   2.314
20143WAT     H260672   4.289   9.677   2.449
20144WAT      O60673   8.835   3.681   5.734
20144WAT     H160674   8.858   3.670   5.638
20144WAT     H260675   8.887   3.758   5.773
20145WAT      O60676   6.007   3.554   9.474
20145WAT     H160677   6.033   3.469   9.428
20145WAT     H260678   5.923   3.540   9.526
20146WAT      O60679   4.014   2.737   1.554
20146WAT     H160680   3.978   2.704   1.641
20146WAT     H260681   4.016   2.662   1.488
20147WAT      O60682   3.675   5.777   1.212
20147WAT     H160683   3.754   5.771   1.151
20147WAT     H260684   3.697   5.738   1.301
20148WAT      O60685   7.835   7.453   7.701
20148WAT     H160686   7.770   7.496   7.638
20148WAT     H260687   7.899   7.397   7.649
20149WAT      O60688   4.555   1.061   1.012
20149WAT     H160689   4.472   1.090   0.965
20149WAT     H260690   4.534   0.983   1.071
20150WAT      O60691   1.113   3.857   6.481
20150WAT     H160692   1.186   3.791   6.461
20150WAT     H260693   1.111   3.928   6.411
20151WAT      O60694   1.341   3.857   5.727
20151WAT     H160695   1.333   3.952   5.757
20151WAT     H260696   1.261   3.832   5.673
20152WAT      O60697   9.118   1.747   6.703
20152WAT     H160698   9.186   1.736   6.775
20152WAT     H260699   9.051   1.816   6.730
20153WAT      O60700   9.431   9.639   1.009
20153WAT     H160701   9.467   9.632   1.102
20153WAT     H260702   9.431   9.735   0.981
20154WAT      O60703   1.675   2.496   7.353
20154WAT     H160704   1.692   2.414   7.298
20154WAT     H260705   1.725   2.573   7.313
20155WAT      O60706   1.351   1.677   5.715
20155WAT     H160707   1.420   1.653   5.784
20155WAT     H260708   1.357   1.612   5.639
20156WAT      O60709   5.448   6.243   8.711
20156WAT     H160710   5.371   6.181   8.725
20156WAT     H260711   5.493   6.220   8.625
20157WAT      O60712   7.116   8.945   6.115
20157WAT     H160713   7.078   8.946   6.022
20157WAT     H260714   7.084   9.025   6.166
20158WAT      O60715   9.488   6.452   4.897
20158WAT     H160716   9.457   6.507   4.974
20158WAT     H260717   9.410   6.410   4.852
20159WAT      O60718   5.954   6.841   4.554
20159WAT     H160719   5.878   6.829   4.490
20159WAT     H260720   5.922   6.825   4.648
20160WAT      O60721   3.104   8.618   1.994
20160WAT     H160722   3.067   8.665   2.075
20160WAT     H260723   3.049   8.538   1.974
20161WAT      O60724   7.492   3.053   8.971
20161WAT     H160725   7.490   3.078   8.874
20161WAT     H260726   7.531   2.962   8.982
20162WAT      O60727   7.661   4.407   9.419
20162WAT     H160728   7.686   4.315   9.388
20162WAT     H260729   7.566   4.407   9.451
20163WAT      O60730   9.839   9.420   9.807
20163WAT     H160731   9.905   9.466   9.747
20163WAT     H260732   9.816   9.331   9.768
20164WAT      O60733   3.977   8.417   4.250
20164WAT     H160734   4.020   8.485   4.308
20164WAT     H260735   4.045   8.350   4.220
20165WAT      O60736   6.027   9.705   0.379
20165WAT     H160737   5.964   9.701   0.301
20165WAT     H260738   6.061   9.799   0.389
20166WAT      O60739   0.376   5.296   4.825
20166WAT     H160740   0.400   5.245   4.907
20166WAT     H260741   0.346   5.233   4.754
20167WAT      O60742   8.616   6.064   3.071
20167WAT     H160743   8.537   6.036   3.017
20167WAT     H260744   8.646   6.154   3.040
20168WAT      O60745   1.935   6.309   9.454
20168WAT     H160746   1.987   6.360   9.386
20168WAT     H260747   1.993   6.292   9.534
20169WAT      O60748   7.171   3.457   0.209
20169WAT     H160749   7.232   3.535   0.194
20169WAT     H260750   7.128   3.466   0.298
20170WAT      O60751   1.993   9.676   8.726
20170WAT     H160752   2.085   9.682   8.764
20170WAT     H260753   1.964   9.766   8.694
20171WAT      O60754   7.043   4.115   0.623
20171WAT     H160755   7.037   4.017   0.644
20171WAT     H260756   7.002   4.168   0.697
20172WAT      O60757   8.455   5.084   2.430
20172WAT     H160758   8.549   5.114   2.420
20172WAT     H260759   8.404   5.102   2.346
20173WAT      O60760   1.605   6.962   7.727
20173WAT     H160761   1.526   6.946   7.669
20173WAT     H260762   1.688   6.967   7.671
20174WAT      O60763   8.461   5.450   8.260
20174WAT     H160764   8.418   5.504   8.188
20174WAT     H260765   8.528   5.506   8.308
20175WAT      O60766   6.540   5.487   6.039
20175WAT     H160767   6.452   5.439   6.039
20175WAT     H260768   6.533   5.568   5.980
20176WAT      O60769   7.717   5.715   9.219
20176WAT     H160770   7.743   5.694   9.314
20176WAT     H260771   7.639   5.778   9.220
20177WAT      O60772   7.130   8.662   4.489
20177WAT     H160773   7.213   8.639   4.439
20177WAT     H260774   7.092   8.747   4.453
20178WAT      O60775   3.372   5.271   3.608
20178WAT     H160776   3.434   5.342   3.642
20178WAT     H260777   3.312   5.240   3.682
20179WAT      O60778   0.968   7.464   3.181
20179WAT     H160779   0.925   7.531   3.241
20179WAT     H260780   1.062   7.449   3.209
20180WAT      O60781   7.020   7.429   3.399
20180WAT     H160782   6.964   7.497   3.447
20180WAT     H260783   7.015   7.342   3.448
20181WAT      O60784   8.349   2.805   3.238
20181WAT     H160785   8.342   2.836   3.143
20181WAT     H260786   8.264   2.827   3.286
20182WAT      O60787   7.404   5.886   7.801
20182WAT     H160788   7.419   5.944   7.721
20182WAT     H260789   7.384   5.943   7.881
20183WAT      O60790   6.793   2.970   1.965
20183WAT     H160791   6.807   2.936   1.872
20183WAT     H260792   6.697   2.957   1.992
20184WAT      O60793   3.143   9.450   6.819
20184WAT     H160794   3.203   9.411   6.749
20184WAT     H260795   3.052   9.464   6.780
20185WAT      O60796   7.515   9.150   8.012
20185WAT     H160797   7.502   9.221   7.943
20185WAT     H260798   7.462   9.069   7.987
20186WAT      O60799   0.859   0.907   5.542
20186WAT     H160800   0.941   0.942   5.588
20186WAT     H260801   0.788   0.977   5.542
20187WAT      O60802   6.681   9.743   7.068
20187WAT     H160803   6.674   9.767   6.971
20187WAT     H260804   6.752   9.798   7.112
20188WAT      O60805   3.718   6.749   0.206
20188WAT     H160806   3.668   6.749   0.292
20188WAT     H260807   3.813   6.778   0.222
20189WAT      O60808   1.154   6.381   0.455
20189WAT     H160809   1.231   6.442   0.474
20189WAT     H260810   1.163   6.342   0.364
20190WAT      O60811   6.593   7.985   1.863
20190WAT     H160812   6.522   8.007   1.796
20190WAT     H260813   6.607   8.062   1.924
20191WAT      O60814   2.117   6.984   5.682
20191WAT     H160815   2.090   6.997   5.586
20191WAT     H260816   2.036   6.968   5.738
20192WAT      O60817   8.330   3.532   2.878
20192WAT     H160818   8.378   3.615   2.907
20192WAT     H260819   8.234   3.554   2.860
20193WAT      O60820   4.632   7.270   1.960
20193WAT     H160821   4.615   7.229   2.050
20193WAT     H260822   4.545   7.298   1.919
20194WAT      O60823   4.455   8.500   9.178
20194WAT     H160824   4.387   8.426   9.173
20194WAT     H260825   4.415   8.579   9.225
20195WAT      O60826   4.046   4.725   9.715
20195WAT     H160827   4.133   4.768   9.689
20195WAT     H260828   3.997   4.785   9.778
20196WAT      O60829   9.058   7.251   2.468
20196WAT     H160830   9.106   7.168   2.496
20196WAT     H260831   9.108   7.332   2.500
20197WAT      O60832   6.843   4.583   6.102
20197WAT     H160833   6.903   4.641   6.047
20197WAT     H260834   6.830   4.495   6.056
20198WAT      O60835   0.721   0.818   4.494
20198WAT     H160836   0.682   0.865   4.573
20198WAT     H260837   0.819   0.804   4.508
20199WAT      O60838   1.959   3.264   0.741
20199WAT     H160839   1.954   3.360   0.712
20199WAT     H260840   1.883   3.244   0.803
20200WAT      O60841   1.686   8.850   6.197
20200WAT     H160842   1.714   8.875   6.289
20200WAT     H260843   1.654   8.755   6.196
20201WAT      O60844   0.885   7.174   5.013
20201WAT     H160845   0.947   7.128   4.950
20201WAT     H260846   0.837   7.107   5.069
20202WAT      O60847   0.979   0.742   7.723
20202WAT     H160848   0.905   0.721   7.659
20202WAT     H260849   1.005   0.838   7.713
20203WAT      O60850   2.530   7.391   0.271
20203WAT     H160851   2.559   7.485   0.292
20203WAT     H260852   2.587   7.327   0.322
20204WAT      O60853   0.518   4.799   3.531
20204WAT     H160854   0.423   4.809   3.501
20204WAT     H260855   0.556   4.889   3.550
20205WAT      O60856   1.504   7.025   9.513
20205WAT     H160857   1.543   7.108   9.552
20205WAT     H260858   1.405   7.025   9.529
20206WAT      O60859   7.291   8.343   5.669
20206WAT     H160860   7.381   8.386   5.676
20206WAT     H260861   7.282   8.298   5.580
20207WAT      O60862   4.073   0.724   6.275
20207WAT     H160863   3.973   0.720   6.270
20207WAT     H260864   4.104   0.688   6.363
20208WAT      O60865   1.011   0.142   5.993
20208WAT     H160866   1.083   0.109   6.054
20208WAT     H260867   1.031   0.237   5.966
20209WAT      O60868   4.929   0.948   2.027
20209WAT     H160869   4.949   1.036   2.071
20209WAT     H260870   4.845   0.956   1.975
20210WAT      O60871   4.212   0.622   6.499
20210WAT     H160872   4.219   0.631   6.599
20210WAT     H260873   4.161   0.539   6.477
20211WAT      O60874   0.577   8.958   6.936
20211WAT     H160875   0.607   9.006   6.853
20211WAT     H260876   0.548   9.025   7.005
20212WAT      O60877   1.709   1.590   1.826
20212WAT     H160878   1.692   1.689   1.833
20212WAT     H260879   1.807   1.572   1.829
20213WAT      O60880   6.839   0.505   5.358
20213WAT     H160881   6.767   0.554   5.309
20213WAT     H260882   6.926   0.551   5.345
20214WAT      O60883   8.228   4.013   3.680
20214WAT     H160884   8.259   4.106   3.656
20214WAT     H260885   8.296   3.947   3.648
20215WAT      O60886   0.658   0.425   4.747
20215WAT     H160887   0.637   0.405   4.843
20215WAT     H260888   0.644   0.343   4.692
20216WAT      O60889   3.253   6.391   1.269
20216WAT     H160890   3.216   6.484   1.266
20216WAT     H260891   3.223   6.340   1.189
20217WAT      O60892   5.975   7.925   2.587
20217WAT     H160893   5.941   7.837   2.553
20217WAT     H260894   5.950   7.935   2.684
20218WAT      O60895   4.982   1.908   4.659
20218WAT     H160896   4.993   1.809   4.663
20218WAT     H260897   4.958   1.935   4.566
20219WAT      O60898   1.298   2.197   1.598
20219WAT     H160899   1.391   2.198   1.563
20219WAT     H260900   1.270   2.291   1.620
20220WAT      O60901   9.026   0.611   0.082
20220WAT     H160902   8.994   0.689   0.134
20220WAT     H260903   9.099   0.640   0.019
20221WAT      O60904   7.096   7.402   4.201
20221WAT     H160905   7.093   7.497   4.231
20221WAT     H260906   7.091   7.341   4.280
20222WAT      O60907   5.958   6.579   5.008
20222WAT     H160908   5.987   6.491   4.971
20222WAT     H260909   6.039   6.634   5.033
20223WAT      O60910   3.660   4.290   3.558
20223WAT     H160911   3.630   4.194   3.556
20223WAT     H260912   3.708   4.307   3.644
20224WAT      O60913   8.255   1.614   0.033
20224WAT     H160914   8.326   1.544   0.019
20224WAT     H260915   8.209   1.633  -0.054
20225WAT      O60916   7.747   4.263   4.432
20225WAT     H160917   7.801   4.261   4.516
20225WAT     H260918   7.725   4.170   4.404
20226WAT      O60919   9.510   6.960   3.961
20226WAT     H160920   9.425   6.958   4.014
20226WAT     H260921   9.497   6.909   3.876
20227WAT      O60922   9.807   4.835   8.809
20227WAT     H160923   9.775   4.863   8.899
20227WAT     H260924   9.905   4.853   8.801
20228WAT      O60925   0.244   1.545   6.747
20228WAT     H160926   0.275   1.552   6.842
20228WAT     H260927   0.146   1.525   6.745
20229WAT      O60928   5.311   0.151   0.738
20229WAT     H160929   5.302   0.057   0.706
20229WAT     H260930   5.404   0.183   0.721
20230WAT      O60931   0.476   5.913   7.814
20230WAT     H160932   0.480   5.986   7.746
20230WAT     H260933   0.535   5.937   7.891
20231WAT      O60934   2.264   6.043   2.545
20231WAT     H160935   2.308   6.132   2.533
20231WAT     H260936   2.236   6.032   2.640
20232WAT      O60937   3.790   5.995   7.379
20232WAT     H160938   3.806   6.053   7.458
20232WAT     H260939   3.701   6.017   7.339
20233WAT      O60940   3.069   8.372   8.003
20233WAT     H160941   3.080   8.471   8.012
20233WAT     H260942   3.158   8.327   8.010
20234WAT      O60943   2.729   7.818   1.690
20234WAT     H160944   2.750   7.758   1.766
20234WAT     H260945   2.642   7.790   1.648
20235WAT      O60946   5.887   8.880   1.953
20235WAT     H160947   5.850   8.879   2.046
20235WAT     H260948   5.970   8.824   1.950
20236WAT      O60949   2.589   0.672   9.696
20236WAT     H160950   2.529   0.751   9.682
20236WAT     H260951   2.540   0.589   9.670
20237WAT      O60952   1.143   4.580   0.862
20237WAT     H160953   1.055   4.617   0.894
20237WAT     H260954   1.139   4.481   0.863
20238WAT      O60955   2.704   4.718   8.648
20238WAT     H160956   2.721   4.667   8.564
20238WAT     H260957   2.637   4.790   8.631
20239WAT      O60958   6.130   6.317   8.573
20239WAT     H160959   6.061   6.369   8.522
20239WAT     H260960   6.156   6.236   8.520
20240WAT      O60961   7.568   8.433   3.659
20240WAT     H160962   7.649   8.486   3.682
20240WAT     H260963   7.487   8.492   3.664
20241WAT      O60964   9.848   3.451   7.323
20241WAT     H160965   9.892   3.530   7.279
20241WAT     H260966   9.886   3.439   7.414
20242WAT      O60967   7.331   8.584   9.836
20242WAT     H160968   7.400   8.619   9.899
20242WAT     H260969   7.332   8.484   9.837
20243WAT      O60970   0.550   4.739   1.298
20243WAT     H160971   0.544   4.839   1.294
20243WAT     H260972   0.613   4.713   1.370
20244WAT      O60973   8.298   4.251   3.590
20244WAT     H160974   8.246   4.336   3.598
20244WAT     H260975   8.381   4.267   3.537
20245WAT      O60976   3.384   9.077   9.486
20245WAT     H160977   3.301   9.121   9.451
20245WAT     H260978   3.434   9.143   9.543
20246WAT      O60979   4.567   3.655   9.434
20246WAT     H160980   4.570   3.627   9.530
20246WAT     H260981   4.503   3.595   9.385
20247WAT      O60982   9.382   6.313   9.627
20247WAT     H160983   9.417   6.332   9.719
20247WAT     H260984   9.456   6.280   9.569
20248WAT      O60985   1.640   1.793   8.475
20248WAT     H160986   1.735   1.796   8.445
20248WAT     H260987   1.607   1.886   8.492
20249WAT      O60988   9.686   0.740   6.737
20249WAT     H160989   9.775   0.753   6.780
20249WAT     H260990   9.626   0.816   6.763
20250WAT      O60991   7.121   7.242   0.987
20250WAT     H160992   7.071   7.156   0.992
20250WAT     H260993   7.076   7.302   0.920
20251WAT      O60994   9.740   8.945   8.661
20251WAT     H160995   9.746   8.918   8.565
20251WAT     H260996   9.676   8.884   8.708
20252WAT      O60997   3.803   4.570   0.781
20252WAT     H160998   3.818   4.489   0.836
20252WAT     H260999   3.850   4.648   0.822
20253WAT      O61000   0.194   5.259   3.158
20253WAT     H161001   0.168   5.243   3.063
20253WAT     H261002   0.293   5.271   3.165
20254WAT      O61003   6.652   1.714   2.870
20254WAT     H161004   6.653   1.616   2.891
20254WAT     H261005   6.678   1.728   2.774
20255WAT      O61006   9.595   8.729   0.364
20255WAT     H161007   9.643   8.782   0.294
20255WAT     H261008   9.652   8.653   0.393
20256WAT      O61009   9.079   5.433   3.924
20256WAT     H161010   9.086   5.335   3.909
20256WAT     H261011   9.094   5.454   4.020
20257WAT      O61012   5.298   7.530   0.445
20257WAT     H161013   5.252   7.465   0.384
20257WAT     H261014   5.273   7.511   0.540
20258WAT      O61015   1.775   7.189   5.876
20258WAT     H161016   1.712   7.210   5.801
20258WAT     H261017   1.817   7.100   5.861
20259WAT      O61018   5.816   5.047   1.796
20259WAT     H161019   5.857   5.060   1.706
20259WAT     H261020   5.884   5.067   1.867
20260WAT      O61021   1.386   6.664   1.073
20260WAT     H161022   1.411   6.741   1.013
20260WAT     H261023   1.388   6.694   1.168
20261WAT      O61024   1.614   9.277   6.004
20261WAT     H161025   1.574   9.199   5.957
20261WAT     H261026   1.542   9.343   6.027
20262WAT      O61027   4.314   0.779   0.027
20262WAT     H161028   4.283   0.861  -0.021
20262WAT     H261029   4.370   0.806   0.105
20263WAT      O61030   6.032   1.049   9.509
20263WAT     H161031   6.010   1.024   9.415
20263WAT     H261032   5.948   1.053   9.563
20264WAT      O61033   2.866   0.505   4.590
20264WAT     H161034   2.776   0.512   4.547
20264WAT     H261035   2.863   0.543   4.682
20265WAT      O61036   9.287   3.027   7.292
20265WAT     H161037   9.321   3.106   7.241
20265WAT     H261038   9.199   2.998   7.254
20266WAT      O61039   9.749   0.708   4.549
20266WAT     H161040   9.792   0.775   4.609
20266WAT     H261041   9.726   0.625   4.601
20267WAT      O61042   7.541   0.149   4.463
20267WAT     H161043   7.611   0.122   4.529
20267WAT     H261044   7.522   0.247   4.474
20268WAT      O61045   6.129   4.004   8.044
20268WAT     H161046   6.061   4.034   7.978
20268WAT     H261047   6.114   3.908   8.067
20269WAT      O61048   5.326   2.022   1.043
20269WAT     H161049   5.256   2.093   1.056
20269WAT     H261050   5.416   2.065   1.032
20270WAT      O61051   9.496   2.622   2.082
20270WAT     H161052   9.500   2.525   2.060
20270WAT     H261053   9.483   2.675   1.998
20271WAT      O61054   9.596   6.373   9.008
20271WAT     H161055   9.536   6.330   9.076
20271WAT     H261056   9.618   6.307   8.936
20272WAT      O61057   6.757   1.676   9.582
20272WAT     H161058   6.831   1.709   9.524
20272WAT     H261059   6.778   1.696   9.678
20273WAT      O61060   5.127   3.632   2.787
20273WAT     H161061   5.186   3.552   2.795
20273WAT     H261062   5.145   3.695   2.863
20274WAT      O61063   7.925   0.714   4.262
20274WAT     H161064   8.016   0.744   4.291
20274WAT     H261065   7.933   0.634   4.203
20275WAT      O61066   0.759   9.226   8.156
20275WAT     H161067   0.804   9.305   8.197
20275WAT     H261068   0.767   9.148   8.218
20276WAT      O61069   1.371   8.464   8.099
20276WAT     H161070   1.462   8.470   8.140
20276WAT     H261071   1.377   8.485   8.002
20277WAT      O61072   3.469   4.313   7.178
20277WAT     H161073   3.493   4.307   7.081
20277WAT     H261074   3.373   4.286   7.190
20278WAT      O61075   4.281   2.764   6.198
20278WAT     H161076   4.369   2.739   6.238
20278WAT     H261077   4.207   2.726   6.253
20279WAT      O61078   5.058   0.641   3.716
20279WAT     H161079   5.092   0.617   3.625
20279WAT     H261080   4.990   0.713   3.709
20280WAT      O61081   3.812   4.552   5.713
20280WAT     H161082   3.712   4.546   5.703
20280WAT     H261083   3.833   4.628   5.775
20281WAT      O61084   9.636   1.758   5.705
20281WAT     H161085   9.665   1.724   5.794
20281WAT     H261086   9.628   1.857   5.708
20282WAT      O61087   9.807   8.238   4.030
20282WAT     H161088   9.849   8.309   3.973
20282WAT     H261089   9.754   8.281   4.102
20283WAT      O61090   1.630   6.086   6.443
20283WAT     H161091   1.550   6.084   6.383
20283WAT     H261092   1.677   5.997   6.439
20284WAT      O61093   0.901   5.756   3.588
20284WAT     H161094   0.904   5.856   3.580
20284WAT     H261095   0.880   5.731   3.682
20285WAT      O61096   4.072   2.142   8.304
20285WAT     H161097   4.135   2.084   8.252
20285WAT     H261098   4.086   2.128   8.401
20286WAT      O61099   0.117   0.206   8.950
20286WAT     H161100   0.059   0.215   8.869
20286WAT     H261101   0.106   0.288   9.008
20287WAT      O61102   7.275   7.097   3.695
20287WAT     H161103   7.195   7.132   3.744
20287WAT     H261104   7.271   6.997   3.692
20288WAT      O61105   7.063   4.866   3.717
20288WAT     H161106   6.990   4.801   3.696
20288WAT     H261107   7.144   4.817   3.749
20289WAT      O61108   4.023   7.323   5.107
20289WAT     H161109   4.033   7.370   5.020
20289WAT     H261110   3.960   7.246   5.097
20290WAT      O61111   7.741   3.772   0.414
20290WAT     H161112   7.727   3.754   0.511
20290WAT     H261113   7.838   3.794   0.398
20291WAT      O61114   0.292   2.412   4.382
20291WAT     H161115   0.358   2.481   4.413
20291WAT     H261116   0.303   2.329   4.436
20292WAT      O61117   3.552   7.494   7.477
20292WAT     H161118   3.551   7.569   7.411
20292WAT     H261119   3.646   7.467   7.496
20293WAT      O61120   2.052   8.458   4.493
20293WAT     H161121   2.118   8.391   4.526
20293WAT     H261122   1.995   8.490   4.569
20294WAT      O61123   6.506   0.820   7.651
20294WAT     H161124   6.428   0.801   7.592
20294WAT     H261125   6.576   0.868   7.599
20295WAT      O61126   5.548   7.246   7.036
20295WAT     H161127   5.596   7.254   6.948
20295WAT     H261128   5.572   7.159   7.079
20296WAT      O61129   5.993   8.345   5.796
20296WAT     H161130   5.909   8.303   5.829
20296WAT     H261131   6.064   8.338   5.866
20297WAT      O61132   5.348   1.743   2.387
20297WAT     H161133   5.394   1.692   2.314
20297WAT     H261134   5.416   1.776   2.453
20298WAT      O61135   4.034   3.651   0.133
20298WAT     H161136   4.105   3.721   0.139
20298WAT     H261137   4.062   3.572   0.187
20299WAT      O61138   3.791   0.912   8.100
20299WAT     H161139   3.861   0.925   8.030
20299WAT     H261140   3.724   0.844   8.068
20300WAT      O61141   0.164   1.005   6.340
20300WAT     H161142   0.113   1.067   6.280
20300WAT     H261143   0.218   0.942   6.285
20301WAT      O61144   8.217   0.073   6.853
20301WAT     H161145   8.268   0.036   6.776
20301WAT     H261146   8.256   0.039   6.938
20302WAT      O61147   2.632   6.614   6.683
20302WAT     H161148   2.546   6.653   6.714
20302WAT     H261149   2.667   6.667   6.606
20303WAT      O61150   9.347   9.488   5.428
20303WAT     H161151   9.341   9.471   5.330
20303WAT     H261152   9.280   9.431   5.476
20304WAT      O61153   6.819   9.360   5.349
20304WAT     H161154   6.745   9.403   5.296
20304WAT     H261155   6.797   9.364   5.446
20305WAT      O61156   4.693   7.263   3.870
20305WAT     H161157   4.632   7.207   3.814
20305WAT     H261158   4.786   7.259   3.832
20306WAT      O61159   3.507   6.634   0.019
20306WAT     H161160   3.562   6.690   0.081
20306WAT     H261161   3.542   6.642  -0.074
20307WAT      O61162   6.645   7.184   0.925
20307WAT     H161163   6.714   7.223   0.986
20307WAT     H261164   6.624   7.090   0.952
20308WAT      O61165   3.501   0.658   0.737
20308WAT     H161166   3.554   0.651   0.651
20308WAT     H261167   3.472   0.567   0.765
20309WAT      O61168   3.893   9.822   9.428
20309WAT     H161169   3.925   9.762   9.501
20309WAT     H261170   3.971   9.866   9.383
20310WAT      O61171   0.750   1.922   1.525
20310WAT     H161172   0.772   1.966   1.612
20310WAT     H261173   0.831   1.875   1.489
20311WAT      O61174   3.940   4.913   5.452
20311WAT     H161175   4.010   4.907   5.381
20311WAT     H261176   3.852   4.882   5.416
20312WAT      O61177   1.867   9.132   2.412
20312WAT     H161178   1.907   9.072   2.481
20312WAT     H261179   1.940   9.187   2.369
20313WAT      O61180   4.842   3.840   4.073
20313WAT     H161181   4.837   3.846   4.173
20313WAT     H261182   4.749   3.832   4.037
20314WAT      O61183   0.868   0.743   2.358
20314WAT     H161184   0.808   0.807   2.311
20314WAT     H261185   0.958   0.784   2.369
20315WAT      O61186   5.873   3.330   5.899
20315WAT     H161187   5.925   3.257   5.855
20315WAT     H261188   5.784   3.295   5.927
20316WAT      O61189   8.898   9.053   8.510
20316WAT     H161190   8.802   9.057   8.537
20316WAT     H261191   8.909   8.988   8.435
20317WAT      O61192   8.952   0.662   7.363
20317WAT     H161193   8.887   0.637   7.292
20317WAT     H261194   9.038   0.613   7.349
20318WAT      O61195   5.047   2.042   9.279
20318WAT     H161196   5.096   2.037   9.366
20318WAT     H261197   5.018   2.137   9.263
20319WAT      O61198   2.081   6.766   4.847
20319WAT     H161199   2.010   6.698   4.827
20319WAT     H261200   2.073   6.842   4.783
20320WAT      O61201   6.481   3.595   0.819
20320WAT     H161202   6.501   3.525   0.887
20320WAT     H261203   6.565   3.641   0.792
20321WAT      O61204   8.956   8.625   5.047
20321WAT     H161205   8.987   8.582   4.962
20321WAT     H261206   9.011   8.707   5.064
20322WAT      O61207   7.134   1.957   9.454
20322WAT     H161208   7.077   1.875   9.451
20322WAT     H261209   7.148   1.991   9.362
20323WAT      O61210   7.337   5.150   7.390
20323WAT     H161211   7.240   5.135   7.409
20323WAT     H261212   7.347   5.233   7.334
20324WAT      O61213   0.103   1.363   7.787
20324WAT     H161214   0.146   1.290   7.840
20324WAT     H261215   0.025   1.399   7.838
20325WAT      O61216   2.163   5.972   9.534
20325WAT     H161217   2.240   5.992   9.595
20325WAT     H261218   2.083   5.949   9.589
20326WAT      O61219   9.837   7.275   8.404
20326WAT     H161220   9.917   7.217   8.425
20326WAT     H261221   9.791   7.298   8.489
20327WAT      O61222   8.684   9.758   1.155
20327WAT     H161223   8.727   9.734   1.067
20327WAT     H261224   8.728   9.840   1.192
20328WAT      O61225   0.892   6.235   6.943
20328WAT     H161226   0.911   6.152   6.995
20328WAT     H261227   0.941   6.312   6.984
20329WAT      O61228   9.418   7.912   2.140
20329WAT     H161229   9.347   7.885   2.205
20329WAT     H261230   9.401   7.868   2.052
20330WAT      O61231   5.746   4.827   1.379
20330WAT     H161232   5.839   4.832   1.416
20330WAT     H261233   5.682   4.806   1.452
20331WAT      O61234   2.799   7.082   3.032
20331WAT     H161235   2.835   7.081   2.939
20331WAT     H261236   2.734   7.006   3.043
20332WAT      O61237   5.315   3.491   6.506
20332WAT     H161238   5.354   3.559   6.568
20332WAT     H261239   5.316   3.527   6.413
20333WAT      O61240   8.029   6.510   7.151
20333WAT     H161241   7.971   6.578   7.106
20333WAT     H261242   8.119   6.510   7.109
20334WAT      O61243   6.291   2.750   6.891
20334WAT     H161244   6.198   2.716   6.877
20334WAT     H261245   6.311   2.754   6.989
20335WAT      O61246   5.780   2.752   9.599
20335WAT     H161247   5.852   2.812   9.564
20335WAT     H261248   5.701   2.807   9.625
20336WAT      O61249   9.340   0.493   2.800
20336WAT     H161250   9.273   0.432   2.843
20336WAT     H261251   9.320   0.587   2.824
20337WAT      O61252   6.248   2.250   1.279
20337WAT     H161253   6.224   2.154   1.276
20337WAT     H261254   6.180   2.300   1.332
20338WAT      O61255   7.957   0.181   2.645
20338WAT     H161256   7.873   0.179   2.698
20338WAT     H261257   8.032   0.144   2.699
20339WAT      O61258   8.780   6.570   4.111
20339WAT     H161259   8.766   6.473   4.133
20339WAT     H261260   8.821   6.577   4.020
20340WAT      O61261   2.038   9.104   9.398
20340WAT     H161262   2.087   9.019   9.416
20340WAT     H261263   2.048   9.128   9.302
20341WAT      O61264   5.255   6.480   3.773
20341WAT     H161265   5.277   6.577   3.769
20341WAT     H261266   5.283   6.436   3.688
20342WAT      O61267   1.375   5.925   8.491
20342WAT     H161268   1.334   5.942   8.401
20342WAT     H261269   1.335   5.842   8.530
20343WAT      O61270   1.593   5.005   2.410
20343WAT     H161271   1.633   4.963   2.491
20343WAT     H261272   1.617   5.101   2.406
20344WAT      O61273   1.622   2.007   9.489
20344WAT     H161274   1.530   1.968   9.500
20344WAT     H261275   1.683   1.970   9.559
20345WAT      O61276   6.664   0.135   1.986
20345WAT     H161277   6.639   0.224   1.949
20345WAT     H261278   6.763   0.122   1.978
20346WAT      O61279   6.725   3.706   4.494
20346WAT     H161280   6.804   3.684   4.438
20346WAT     H261281   6.664   3.626   4.498
20347WAT      O61282   0.464   7.902   3.540
20347WAT     H161283   0.365   7.917   3.544
20347WAT     H261284   0.497   7.877   3.630
20348WAT      O61285   2.826   6.167   7.083
20348WAT     H161286   2.767   6.236   7.125
20348WAT     H261287   2.916   6.170   7.126
20349WAT      O61288   2.219   1.851   6.293
20349WAT     H161289   2.235   1.798   6.209
20349WAT     H261290   2.232   1.948   6.274
20350WAT      O61291   3.831   7.964   3.810
20350WAT     H161292   3.924   7.929   3.814
20350WAT     H261293   3.796   7.978   3.903
20351WAT      O61294   5.671   3.958   0.505
20351WAT     H161295   5.667   4.057   0.498
20351WAT     H261296   5.596   3.925   0.562
20352WAT      O61297   2.830   1.073   2.887
20352WAT     H161298   2.895   1.052   2.813
20352WAT     H261299   2.775   1.152   2.861
20353WAT      O61300   8.071   2.395   4.642
20353WAT     H161301   8.094   2.316   4.585
20353WAT     H261302   8.020   2.462   4.588
20354WAT      O61303   5.224   1.640   6.348
20354WAT     H161304   5.233   1.706   6.422
20354WAT     H261305   5.314   1.598   6.330
20355WAT      O61306   0.302   1.835   6.604
20355WAT     H161307   0.382   1.806   6.551
20355WAT     H261308   0.322   1.830   6.702
20356WAT      O61309   0.712   7.053   2.514
20356WAT     H161310   0.660   7.111   2.451
20356WAT     H261311   0.807   7.085   2.518
20357WAT      O61312   7.792   8.738   4.458
20357WAT     H161313   7.888   8.762   4.446
20357WAT     H261314   7.737   8.822   4.462
20358WAT      O61315   8.623   0.327   5.176
20358WAT     H161316   8.610   0.275   5.091
20358WAT     H261317   8.564   0.408   5.174
20359WAT      O61318   1.205   6.778   4.777
20359WAT     H161319   1.228   6.718   4.701
20359WAT     H261320   1.276   6.771   4.847
20360WAT      O61321   1.818   4.511   5.671
20360WAT     H161322   1.749   4.569   5.714
20360WAT     H261323   1.828   4.426   5.723
20361WAT      O61324   9.224   4.062   2.388
20361WAT     H161325   9.296   3.996   2.369
20361WAT     H261326   9.264   4.154   2.396
20362WAT      O61327   5.692   5.081   1.274
20362WAT     H161328   5.713   4.984   1.271
20362WAT     H261329   5.676   5.109   1.368
20363WAT      O61330   0.865   3.706   4.467
20363WAT     H161331   0.944   3.688   4.525
20363WAT     H261332   0.826   3.795   4.492
20364WAT      O61333   2.279   6.457   3.181
20364WAT     H161334   2.376   6.433   3.185
20364WAT     H261335   2.229   6.405   3.250
20365WAT      O61336   8.748   3.839   2.951
20365WAT     H161337   8.763   3.839   3.050
20365WAT     H261338   8.814   3.899   2.907
20366WAT      O61339   3.742   2.955   5.422
20366WAT     H161340   3.768   3.047   5.452
20366WAT     H261341   3.651   2.958   5.381
20367WAT      O61342   0.564   2.210   6.043
20367WAT     H161343   0.620   2.127   6.046
20367WAT     H261344   0.583   2.261   5.959
20368WAT      O61345   6.053   4.826   8.295
20368WAT     H161346   5.975   4.772   8.327
20368WAT     H261347   6.021   4.893   8.228
20369WAT      O61348   4.113   7.977   7.994
20369WAT     H161349   4.014   7.989   7.990
20369WAT     H261350   4.137   7.924   8.076
20370WAT      O61351   8.007   2.307   1.318
20370WAT     H161352   8.039   2.380   1.379
20370WAT     H261353   7.910   2.289   1.336
20371WAT      O61354   3.021   4.111   7.089
20371WAT     H161355   2.936   4.124   7.140
20371WAT     H261356   3.002   4.067   7.002
20372WAT      O61357   1.111   5.589   3.636
20372WAT     H161358   1.132   5.618   3.729
20372WAT     H261359   1.035   5.643   3.601
20373WAT      O61360   5.992   1.900   9.572
20373WAT     H161361   6.064   1.962   9.602
20373WAT     H261362   6.029   1.807   9.563
20374WAT      O61363   1.301   6.671   7.995
20374WAT     H161364   1.230   6.665   7.925
20374WAT     H261365   1.332   6.766   8.004
20375WAT      O61366   4.640   8.523   1.197
20375WAT     H161367   4.560   8.567   1.238
20375WAT     H261368   4.718   8.585   1.201
20376WAT      O61369   1.599   8.346   6.809
20376WAT     H161370   1.586   8.247   6.805
20376WAT     H261371   1.538   8.391   6.743
20377WAT      O61372   1.776   4.862   8.054
20377WAT     H161373   1.817   4.864   7.963
20377WAT     H261374   1.687   4.815   8.050
20378WAT      O61375   8.257   9.749   9.598
20378WAT     H161376   8.205   9.773   9.516
20378WAT     H261377   8.318   9.825   9.622
20379WAT      O61378   2.675   8.572   7.374
20379WAT     H161379   2.595   8.615   7.416
20379WAT     H261380   2.646   8.516   7.297
20380WAT      O61381   6.665   7.838   1.234
20380WAT     H161382   6.711   7.751   1.249
20380WAT     H261383   6.654   7.853   1.135
20381WAT      O61384   7.075   5.607   3.417
20381WAT     H161385   7.085   5.685   3.356
20381WAT     H261386   6.991   5.617   3.471
20382WAT      O61387   5.891   2.487   6.263
20382WAT     H161388   5.962   2.553   6.236
20382WAT     H261389   5.850   2.517   6.349
20383WAT      O61390   7.687   8.205   5.846
20383WAT     H161391   7.716   8.276   5.781
20383WAT     H261392   7.696   8.240   5.939
20384WAT      O61393   2.990   8.910   1.111
20384WAT     H161394   3.066   8.855   1.076
20384WAT     H261395   2.906   8.885   1.063
20385WAT      O61396   6.772   5.026   7.787
20385WAT     H161397   6.810   4.936   7.767
20385WAT     H261398   6.696   5.017   7.852
20386WAT      O61399   1.807   6.928   5.762
20386WAT     H161400   1.747   6.915   5.683
20386WAT     H261401   1.860   6.845   5.778
20387WAT      O61402   2.376   7.700   0.150
20387WAT     H161403   2.373   7.794   0.118
20387WAT     H261404   2.445   7.691   0.222
20388WAT      O61405   8.034   5.134   0.869
20388WAT     H161406   8.114   5.168   0.917
20388WAT     H261407   7.954   5.139   0.930
20389WAT      O61408   6.328   0.342   4.272
20389WAT     H161409   6.265   0.416   4.251
20389WAT     H261410   6.312   0.266   4.210
20390WAT      O61411   0.953   6.738   1.871
20390WAT     H161412   0.978   6.692   1.956
20390WAT     H261413   0.968   6.836   1.881
20391WAT      O61414   1.017   8.108   3.077
20391WAT     H161415   0.972   8.123   3.165
20391WAT     H261416   1.012   8.011   3.053
20392WAT      O61417   9.789   1.945   8.137
20392WAT     H161418   9.873   1.998   8.141
20392WAT     H261419   9.804   1.865   8.079
20393WAT      O61420   7.829   6.622   2.051
20393WAT     H161421   7.827   6.593   2.147
20393WAT     H261422   7.910   6.586   2.007
20394WAT      O61423   9.061   3.211   3.911
20394WAT     H161424   9.035   3.298   3.869
20394WAT     H261425   8.978   3.157   3.927
20395WAT      O61426   0.348   5.112   8.322
20395WAT     H161427   0.250   5.127   8.334
20395WAT     H261428   0.364   5.027   8.272
20396WAT      O61429   0.500   3.597   0.321
20396WAT     H161430   0.508   3.540   0.403
20396WAT     H261431   0.421   3.658   0.331
20397WAT      O61432   7.188   4.407   0.629
20397WAT     H161433   7.107   4.366   0.587
20397WAT     H261434   7.193   4.380   0.726
20398WAT      O61435   7.661   7.008   1.004
20398WAT     H161436   7.623   6.974   0.918
20398WAT     H261437   7.703   7.097   0.989
20399WAT      O61438   7.579   2.636   7.648
20399WAT     H161439   7.539   2.548   7.676
20399WAT     H261440   7.655   2.619   7.585
20400WAT      O61441   4.193   2.863   0.814
20400WAT     H161442   4.145   2.808   0.882
20400WAT     H261443   4.210   2.954   0.850
20401WAT      O61444   9.387   5.499   8.834
20401WAT     H161445   9.364   5.551   8.752
20401WAT     H261446   9.470   5.536   8.875
20402WAT      O61447   8.975   7.976   1.741
20402WAT     H161448   8.890   8.022   1.766
20402WAT     H261449   9.053   8.028   1.778
20403WAT      O61450   1.992   0.843   6.858
20403WAT     H161451   2.028   0.909   6.792
20403WAT     H261452   2.015   0.751   6.829
20404WAT      O61453   9.170   8.036   3.598
20404WAT     H161454   9.240   8.105   3.619
20404WAT     H261455   9.173   7.963   3.666
20405WAT      O61456   1.368   4.587   2.565
20405WAT     H161457   1.269   4.574   2.573
20405WAT     H261458   1.401   4.546   2.479
20406WAT      O61459   7.910   3.283   7.352
20406WAT     H161460   7.956   3.211   7.404
20406WAT     H261461   7.943   3.372   7.383
20407WAT      O61462   5.880   5.558   1.531
20407WAT     H161463   5.930   5.543   1.445
20407WAT     H261464   5.938   5.610   1.594
20408WAT      O61465   9.284   2.512   3.844
20408WAT     H161466   9.263   2.507   3.942
20408WAT     H261467   9.381   2.534   3.833
20409WAT      O61468   4.252   8.509   1.081
20409WAT     H161469   4.211   8.590   1.039
20409WAT     H261470   4.262   8.437   1.012
20410WAT      O61471   1.472   2.617   1.052
20410WAT     H161472   1.475   2.550   1.126
20410WAT     H261473   1.546   2.683   1.064
20411WAT      O61474   9.784   4.625   1.743
20411WAT     H161475   9.864   4.683   1.730
20411WAT     H261476   9.813   4.532   1.769
20412WAT      O61477   8.365   4.640   5.069
20412WAT     H161478   8.304   4.676   5.139
20412WAT     H261479   8.442   4.704   5.056
20413WAT      O61480   8.639   9.063   8.655
20413WAT     H161481   8.574   9.139   8.651
20413WAT     H261482   8.677   9.056   8.746
20414WAT      O61483   2.506   7.854   5.691
20414WAT     H161484   2.495   7.797   5.773
20414WAT     H261485   2.600   7.849   5.660
20415WAT      O61486   7.381   0.241   7.323
20415WAT     H161487   7.343   0.169   7.265
20415WAT     H261488   7.426   0.310   7.266
20416WAT      O61489   0.432   5.626   8.178
20416WAT     H161490   0.434   5.543   8.234
20416WAT     H261491   0.357   5.685   8.208
20417WAT      O61492   4.042   1.791   5.404
20417WAT     H161493   4.050   1.864   5.336
20417WAT     H261494   3.987   1.717   5.366
20418WAT      O61495   5.208   0.772   2.446
20418WAT     H161496   5.211   0.686   2.496
20418WAT     H261497   5.140   0.832   2.488
20419WAT      O61498   8.557   2.686   9.385
20419WAT     H161499   8.469   2.673   9.340
20419WAT     H261500   8.579   2.605   9.439
20420WAT      O61501   1.125   1.178   6.952
20420WAT     H161502   1.217   1.216   6.954
20420WAT     H261503   1.100   1.154   6.858
20421WAT      O61504   3.220   4.799   5.535
20421WAT     H161505   3.239   4.765   5.443
20421WAT     H261506   3.231   4.898   5.538
20422WAT      O61507   8.670   5.433   1.896
20422WAT     H161508   8.629   5.372   1.828
20422WAT     H261509   8.668   5.389   1.986
20423WAT      O61510   9.129   9.291   1.217
20423WAT     H161511   9.222   9.300   1.253
20423WAT     H261512   9.133   9.256   1.124
20424WAT      O61513   4.492   3.447   6.006
20424WAT     H161514   4.476   3.376   6.075
20424WAT     H261515   4.537   3.526   6.050
20425WAT      O61516   7.537   8.782   6.104
20425WAT     H161517   7.461   8.816   6.159
20425WAT     H261518   7.623   8.803   6.151
20426WAT      O61519   8.820   9.105   6.146
20426WAT     H161520   8.848   9.071   6.056
20426WAT     H261521   8.851   9.041   6.216
20427WAT      O61522   2.373   4.515   1.351
20427WAT     H161523   2.435   4.479   1.282
20427WAT     H261524   2.424   4.565   1.421
20428WAT      O61525   0.900   2.690   5.021
20428WAT     H161526   0.903   2.788   5.044
20428WAT     H261527   0.962   2.640   5.082
20429WAT      O61528   5.758   0.843   9.506
20429WAT     H161529   5.718   0.860   9.416
20429WAT     H261530   5.781   0.931   9.549
20430WAT      O61531   7.431   9.681   3.201
20430WAT     H161532   7.475   9.753   3.253
20430WAT     H261533   7.344   9.657   3.244
20431WAT      O61534   7.487   4.618   1.477
20431WAT     H161535   7.461   4.708   1.510
20431WAT     H261536   7.480   4.615   1.377
20432WAT      O61537   8.590   7.901   1.395
20432WAT     H161538   8.595   7.878   1.298
20432WAT     H261539   8.682   7.916   1.430
20433WAT      O61540   7.119   7.775   8.526
20433WAT     H161541   7.133   7.702   8.592
20433WAT     H261542   7.086   7.857   8.573
20434WAT      O61543   6.035   1.541   3.782
20434WAT     H161544   6.071   1.565   3.872
20434WAT     H261545   6.074   1.602   3.714
20435WAT      O61546   4.498   9.358   2.173
20435WAT     H161547   4.566   9.353   2.246
20435WAT     H261548   4.544   9.374   2.085
20436WAT      O61549   2.578   0.561   0.836
20436WAT     H161550   2.593   0.611   0.922
20436WAT     H261551   2.635   0.601   0.764
20437WAT      O61552   8.930   1.625   4.851
20437WAT     H161553   8.988   1.569   4.910
20437WAT     H261554   8.887   1.697   4.905
20438WAT      O61555   0.396   7.355   7.137
20438WAT     H161556   0.492   7.383   7.145
20438WAT     H261557   0.379   7.278   7.198
20439WAT      O61558   3.168   8.748   6.908
20439WAT     H161559   3.229   8.807   6.961
20439WAT     H261560   3.222   8.681   6.858
20440WAT      O61561   1.393   4.320   6.215
20440WAT     H161562   1.359   4.391   6.277
20440WAT     H261563   1.400   4.233   6.263
20441WAT      O61564   3.961   5.464   1.611
20441WAT     H161565   3.873   5.459   1.658
20441WAT     H261566   3.947   5.454   1.513
20442WAT      O61567   7.234   2.300   6.729
20442WAT     H161568   7.302   2.347   6.673
20442WAT     H261569   7.144   2.304   6.684
20443WAT      O61570   3.585   1.851   1.693
20443WAT     H161571   3.575   1.812   1.785
20443WAT     H261572   3.495   1.856   1.649
20444WAT      O61573   8.805   2.989   1.087
20444WAT     H161574   8.828   2.893   1.067
20444WAT     H261575   8.733   2.992   1.156
20445WAT      O61576   4.228   2.290   7.653
20445WAT     H161577   4.135   2.288   7.617
20445WAT     H261578   4.256   2.385   7.667
20446WAT      O61579   8.809   4.894   9.298
20446WAT     H161580   8.873   4.958   9.256
20446WAT     H261581   8.746   4.860   9.228
20447WAT      O61582   5.935   5.165   8.097
20447WAT     H161583   5.933   5.143   8.195
20447WAT     H261584   5.870   5.237   8.077
20448WAT      O61585   3.432   4.720   9.571
20448WAT     H161586   3.362   4.783   9.539
20448WAT     H261587   3.431   4.637   9.515
20449WAT      O61588   8.937   3.550   0.343
20449WAT     H161589   9.030   3.561   0.307
20449WAT     H261590   8.906   3.456   0.329
20450WAT      O61591   6.745   5.240   7.271
20450WAT     H161592   6.666   5.279   7.318
20450WAT     H261593   6.813   5.312   7.253
20451WAT      O61594   3.780   2.099   5.615
20451WAT     H161595   3.873   2.136   5.620
20451WAT     H261596   3.721   2.164   5.568
20452WAT      O61597   1.873   7.962   4.524
20452WAT     H161598   1.851   7.971   4.427
20452WAT     H261599   1.818   7.889   4.564
20453WAT      O61600   6.083   9.676   5.967
20453WAT     H161601   6.065   9.774   5.973
20453WAT     H261602   6.127   9.645   6.051
20454WAT      O61603   2.601   6.162   1.664
20454WAT     H161604   2.601   6.262   1.669
20454WAT     H261605   2.690   6.127   1.695
20455WAT      O61606   6.731   6.631   5.385
20455WAT     H161607   6.646   6.678   5.411
20455WAT     H261608   6.803   6.698   5.371
20456WAT      O61609   6.316   7.026   3.083
20456WAT     H161610   6.376   7.061   3.155
20456WAT     H261611   6.285   7.102   3.026
20457WAT      O61612   3.350   4.328   5.162
20457WAT     H161613   3.296   4.319   5.245
20457WAT     H261614   3.290   4.327   5.082
20458WAT      O61615   6.756   9.446   1.846
20458WAT     H161616   6.826   9.447   1.775
20458WAT     H261617   6.788   9.390   1.923
20459WAT      O61618   2.854   4.628   2.228
20459WAT     H161619   2.896   4.693   2.291
20459WAT     H261620   2.911   4.618   2.147
20460WAT      O61621   3.859   0.655   1.220
20460WAT     H161622   3.944   0.637   1.270
20460WAT     H261623   3.782   0.644   1.282
20461WAT      O61624   6.817   4.877   2.830
20461WAT     H161625   6.757   4.940   2.780
20461WAT     H261626   6.910   4.914   2.832
20462WAT      O61627   0.835   3.224   1.915
20462WAT     H161628   0.812   3.311   1.873
20462WAT     H261629   0.787   3.150   1.867
20463WAT      O61630   3.799   7.584   6.008
20463WAT     H161631   3.794   7.623   6.100
20463WAT     H261632   3.715   7.603   5.958
20464WAT      O61633   6.069   5.649   2.936
20464WAT     H161634   6.132   5.698   2.997
20464WAT     H261635   6.118   5.575   2.891
20465WAT      O61636   1.314   8.188   5.333
20465WAT     H161637   1.267   8.190   5.245
20465WAT     H261638   1.412   8.204   5.319
20466WAT      O61639   6.018   7.930   5.781
20466WAT     H161640   6.094   7.995   5.783
20466WAT     H261641   6.036   7.857   5.848
20467WAT      O61642   6.375   6.782   1.169
20467WAT     H161643   6.363   6.682   1.163
20467WAT     H261644   6.286   6.826   1.162
20468WAT      O61645   0.406   3.197   6.977
20468WAT     H161646   0.446   3.112   6.943
20468WAT     H261647   0.309   3.200   6.954
20469WAT      O61648   6.091   4.888   7.084
20469WAT     H161649   6.020   4.825   7.117
20469WAT     H261650   6.166   4.891   7.150
20470WAT      O61651   2.463   3.571   6.297
20470WAT     H161652   2.438   3.654   6.246
20470WAT     H261653   2.425   3.491   6.251
20471WAT      O61654   1.113   5.326   7.492
20471WAT     H161655   1.022   5.349   7.458
20471WAT     H261656   1.172   5.406   7.485
20472WAT      O61657   4.672   8.615   8.595
20472WAT     H161658   4.694   8.689   8.658
20472WAT     H261659   4.670   8.650   8.502
20473WAT      O61660   7.549   9.393   1.959
20473WAT     H161661   7.512   9.305   1.926
20473WAT     H261662   7.643   9.379   1.991
20474WAT      O61663   5.189   3.236   7.939
20474WAT     H161664   5.098   3.232   7.978
20474WAT     H261665   5.243   3.159   7.972
20475WAT      O61666   4.226   7.831   2.852
20475WAT     H161667   4.149   7.895   2.848
20475WAT     H261668   4.216   7.762   2.781
20476WAT      O61669   7.130   5.275   0.461
20476WAT     H161670   7.160   5.182   0.440
20476WAT     H261671   7.200   5.322   0.514
20477WAT      O61672   2.579   0.813   6.846
20477WAT     H161673   2.605   0.909   6.836
20477WAT     H261674   2.615   0.778   6.933
20478WAT      O61675   8.223   1.438   1.920
20478WAT     H161676   8.312   1.445   1.966
20478WAT     H261677   8.179   1.528   1.919
20479WAT      O61678   1.820   5.923   8.535
20479WAT     H161679   1.800   5.859   8.461
20479WAT     H261680   1.889   5.884   8.596
20480WAT      O61681   6.704   7.856   8.826
20480WAT     H161682   6.704   7.757   8.835
20480WAT     H261683   6.653   7.882   8.743
20481WAT      O61684   7.933   4.531   2.118
20481WAT     H161685   8.012   4.510   2.060
20481WAT     H261686   7.904   4.625   2.101
20482WAT      O61687   6.853   1.991   2.195
20482WAT     H161688   6.916   2.043   2.136
20482WAT     H261689   6.870   1.894   2.183
20483WAT      O61690   6.860   6.325   2.901
20483WAT     H161691   6.843   6.255   2.831
20483WAT     H261692   6.890   6.280   2.985
20484WAT      O61693   1.953   0.797   3.110
20484WAT     H161694   1.874   0.855   3.091
20484WAT     H261695   1.922   0.712   3.154
20485WAT      O61696   3.017   9.783   8.211
20485WAT     H161697   3.017   9.743   8.302
20485WAT     H261698   2.970   9.871   8.212
20486WAT      O61699   1.871   3.419   6.041
20486WAT     H161700   1.805   3.429   6.115
20486WAT     H261701   1.831   3.452   5.956
20487WAT      O61702   0.692   6.719   0.073
20487WAT     H161703   0.727   6.769   0.152
20487WAT     H261704   0.629   6.648   0.103
20488WAT      O61705   7.055   6.912   6.991
20488WAT     H161706   6.978   6.961   7.031
20488WAT     H261707   7.025   6.821   6.962
20489WAT      O61708   8.410   1.717   1.216
20489WAT     H161709   8.445   1.757   1.300
20489WAT     H261710   8.312   1.735   1.208
20490WAT      O61711   6.175   3.718   4.887
20490WAT     H161712   6.211   3.777   4.959
20490WAT     H261713   6.228   3.730   4.804
20491WAT      O61714   2.414   2.306   9.720
20491WAT     H161715   2.448   2.396   9.693
20491WAT     H261716   2.358   2.268   9.646
20492WAT      O61717   5.244   2.129   5.578
20492WAT     H161718   5.238   2.212   5.632
20492WAT     H261719   5.332   2.084   5.596
20493WAT      O61720   6.953   2.552   3.173
20493WAT     H161721   6.873   2.555   3.233
20493WAT     H261722   7.031   2.516   3.225
20494WAT      O61723   1.255   2.527   2.426
20494WAT     H161724   1.245   2.441   2.475
20494WAT     H261725   1.301   2.511   2.338
20495WAT      O61726   5.484   2.838   0.673
20495WAT     H161727   5.542   2.883   0.606
20495WAT     H261728   5.538   2.814   0.753
20496WAT      O61729   9.268   6.893   3.664
20496WAT     H161730   9.365   6.884   3.690
20496WAT     H261731   9.259   6.962   3.593
20497WAT      O61732   1.269   3.618   5.065
20497WAT     H161733   1.368   3.631   5.062
20497WAT     H261734   1.224   3.708   5.070
20498WAT      O61735   6.908   7.971   9.215
20498WAT     H161736   7.000   8.010   9.221
20498WAT     H261737   6.878   7.943   9.306
20499WAT      O61738   0.557   9.025   1.563
20499WAT     H161739   0.591   9.063   1.650
20499WAT     H261740   0.573   8.927   1.562
20500WAT      O61741   3.895   3.175   5.037
20500WAT     H161742   3.958   3.201   5.110
20500WAT     H261743   3.817   3.239   5.036
20501WAT      O61744   0.847   2.694   7.415
20501WAT     H161745   0.943   2.676   7.396
20501WAT     H261746   0.791   2.621   7.376
20502WAT      O61747   5.605   7.953   8.368
20502WAT     H161748   5.593   7.886   8.295
20502WAT     H261749   5.664   7.914   8.439
20503WAT      O61750   4.799   1.674  -0.002
20503WAT     H161751   4.886   1.714  -0.032
20503WAT     H261752   4.783   1.699   0.094
20504WAT      O61753   2.466   5.153   8.171
20504WAT     H161754   2.402   5.092   8.126
20504WAT     H261755   2.430   5.247   8.170
20505WAT      O61756   6.557   9.196   7.199
20505WAT     H161757   6.559   9.206   7.298
20505WAT     H261758   6.467   9.221   7.164
20506WAT      O61759   5.053   6.477   6.479
20506WAT     H161760   4.990   6.488   6.402
20506WAT     H261761   5.144   6.454   6.445
20507WAT      O61762   8.557   3.721   3.282
20507WAT     H161763   8.526   3.789   3.348
20507WAT     H261764   8.655   3.733   3.264
20508WAT      O61765   7.334   4.645   9.736
20508WAT     H161766   7.419   4.599   9.762
20508WAT     H261767   7.278   4.659   9.818
20509WAT      O61768   9.161   9.759   7.963
20509WAT     H161769   9.218   9.787   8.040
20509WAT     H261770   9.066   9.747   7.993
20510WAT      O61771   3.353   8.399   5.204
20510WAT     H161772   3.430   8.438   5.153
20510WAT     H261773   3.347   8.442   5.294
20511WAT      O61774   3.962   9.592   3.856
20511WAT     H161775   3.999   9.546   3.775
20511WAT     H261776   3.862   9.592   3.851
20512WAT      O61777   3.482   8.515   0.637
20512WAT     H161778   3.391   8.519   0.679
20512WAT     H261779   3.489   8.433   0.579
20513WAT      O61780   3.617   5.719   4.012
20513WAT     H161781   3.699   5.754   3.967
20513WAT     H261782   3.598   5.626   3.981
20514WAT      O61783   5.426   3.408   4.219
20514WAT     H161784   5.360   3.385   4.147
20514WAT     H261785   5.482   3.485   4.190
20515WAT      O61786   4.292   8.943   6.613
20515WAT     H161787   4.255   8.850   6.623
20515WAT     H261788   4.284   8.972   6.518
20516WAT      O61789   9.194   0.879   6.064
20516WAT     H161790   9.129   0.807   6.039
20516WAT     H261791   9.235   0.857   6.152
20517WAT      O61792   4.674   6.161   5.779
20517WAT     H161793   4.578   6.186   5.765
20517WAT     H261794   4.727   6.183   5.697
20518WAT      O61795   8.881   0.293   9.256
20518WAT     H161796   8.842   0.333   9.339
20518WAT     H261797   8.856   0.349   9.177
20519WAT      O61798   5.023   2.563   3.921
20519WAT     H161799   5.004   2.470   3.890
20519WAT     H261800   5.121   2.576   3.930
20520WAT      O61801   3.936   8.115   6.114
20520WAT     H161802   4.031   8.146   6.101
20520WAT     H261803   3.924   8.027   6.069
20521WAT      O61804   9.615   3.697   8.398
20521WAT     H161805   9.581   3.780   8.353
20521WAT     H261806   9.634   3.627   8.329
20522WAT      O61807   0.763   6.971   5.164
20522WAT     H161808   0.849   6.922   5.177
20522WAT     H261809   0.687   6.913   5.196
20523WAT      O61810   0.777   3.815   9.657
20523WAT     H161811   0.824   3.873   9.724
20523WAT     H261812   0.774   3.721   9.690
20524WAT      O61813   3.268   8.243   9.327
20524WAT     H161814   3.170   8.239   9.345
20524WAT     H261815   3.293   8.336   9.300
20525WAT      O61816   0.509   0.360   0.634
20525WAT     H161817   0.471   0.286   0.689
20525WAT     H261818   0.598   0.388   0.671
20526WAT      O61819   5.224   2.915   4.560
20526WAT     H161820   5.300   2.979   4.550
20526WAT     H261821   5.147   2.946   4.504
20527WAT      O61822   0.075   9.450   5.306
20527WAT     H161823   0.125   9.422   5.225
20527WAT     H261824  -0.023   9.438   5.291
20528WAT      O61825   5.930   9.775   6.650
20528WAT     H161826   5.845   9.813   6.685
20528WAT     H261827   6.007   9.824   6.691
20529WAT      O61828   6.322   7.451   4.662
20529WAT     H161829   6.365   7.403   4.738
20529WAT     H261830   6.391   7.469   4.591
20530WAT      O61831   2.883   7.896   3.761
20530WAT     H161832   2.898   7.953   3.841
20530WAT     H261833   2.861   7.954   3.682
20531WAT      O61834   0.419   8.648   9.355
20531WAT     H161835   0.428   8.549   9.365
20531WAT     H261836   0.449   8.676   9.264
20532WAT      O61837   5.664   8.302   0.477
20532WAT     H161838   5.723   8.298   0.558
20532WAT     H261839   5.589   8.366   0.494
20533WAT      O61840   6.940   7.294   3.996
20533WAT     H161841   7.001   7.340   4.061
20533WAT     H261842   6.856   7.267   4.043
20534WAT      O61843   3.746   6.671   6.186
20534WAT     H161844   3.731   6.577   6.155
20534WAT     H261845   3.770   6.671   6.283
20535WAT      O61846   6.499   1.114   5.076
20535WAT     H161847   6.448   1.039   5.116
20535WAT     H261848   6.441   1.164   5.012
20536WAT      O61849   9.584   4.888   4.821
20536WAT     H161850   9.660   4.832   4.789
20536WAT     H261851   9.530   4.836   4.887
20537WAT      O61852   5.931   6.059   6.681
20537WAT     H161853   5.979   5.977   6.649
20537WAT     H261854   5.836   6.055   6.650
20538WAT      O61855   2.810   0.442   7.264
20538WAT     H161856   2.803   0.354   7.216
20538WAT     H261857   2.876   0.500   7.217
20539WAT      O61858   8.433   8.014   1.060
20539WAT     H161859   8.403   7.949   0.990
20539WAT     H261860   8.358   8.029   1.125
20540WAT      O61861   2.120   6.762   4.446
20540WAT     H161862   2.207   6.714   4.430
20540WAT     H261863   2.086   6.798   4.359
20541WAT      O61864   1.869   1.281   5.902
20541WAT     H161865   1.854   1.183   5.916
20541WAT     H261866   1.938   1.296   5.832
20542WAT      O61867   1.313   6.811   0.619
20542WAT     H161868   1.222   6.783   0.646
20542WAT     H261869   1.307   6.887   0.554
20543WAT      O61870   4.395   0.763   7.855
20543WAT     H161871   4.362   0.696   7.789
20543WAT     H261872   4.320   0.792   7.914
20544WAT      O61873   4.557   8.258   8.955
20544WAT     H161874   4.633   8.238   8.892
20544WAT     H261875   4.525   8.351   8.939
20545WAT      O61876   3.221   2.217   3.846
20545WAT     H161877   3.179   2.249   3.931
20545WAT     H261878   3.207   2.118   3.838
20546WAT      O61879   2.888   3.684   2.077
20546WAT     H161880   2.837   3.598   2.083
20546WAT     H261881   2.910   3.703   1.982
20547WAT      O61882   8.875   5.906   8.319
20547WAT     H161883   8.930   5.827   8.294
20547WAT     H261884   8.915   5.988   8.278
20548WAT      O61885   7.967   3.895   6.848
20548WAT     H161886   7.928   3.928   6.934
20548WAT     H261887   7.895   3.856   6.791
20549WAT      O61888   9.317   4.414   7.664
20549WAT     H161889   9.282   4.320   7.669
20549WAT     H261890   9.281   4.459   7.582
20550WAT      O61891   9.296   4.856   1.116
20550WAT     H161892   9.348   4.922   1.062
20550WAT     H261893   9.222   4.818   1.061
20551WAT      O61894   4.320   9.185   2.852
20551WAT     H161895   4.375   9.135   2.919
20551WAT     H261896   4.250   9.124   2.815
20552WAT      O61897   7.148   2.051   6.793
20552WAT     H161898   7.106   2.007   6.713
20552WAT     H261899   7.205   2.127   6.764
20553WAT      O61900   5.746   8.615   3.164
20553WAT     H161901   5.687   8.557   3.220
20553WAT     H261902   5.711   8.618   3.070
20554WAT      O61903   2.803   3.764   6.416
20554WAT     H161904   2.830   3.679   6.463
20554WAT     H261905   2.778   3.833   6.484
20555WAT      O61906   9.736   9.555   8.869
20555WAT     H161907   9.645   9.545   8.908
20555WAT     H261908   9.729   9.579   8.772
20556WAT      O61909   3.440   0.057   6.246
20556WAT     H161910   3.493   0.091   6.168
20556WAT     H261911   3.343   0.059   6.224
20557WAT      O61912   3.000   5.418   9.795
20557WAT     H161913   3.056   5.376   9.866
20557WAT     H261914   2.905   5.426   9.827
20558WAT      O61915   2.428   4.938   5.913
20558WAT     H161916   2.415   4.863   5.848
20558WAT     H261917   2.522   4.938   5.946
20559WAT      O61918   7.350   0.610   9.409
20559WAT     H161919   7.391   0.681   9.351
20559WAT     H261920   7.264   0.580   9.369
20560WAT      O61921   2.931   5.791   4.261
20560WAT     H161922   2.888   5.721   4.204
20560WAT     H261923   2.973   5.748   4.341
20561WAT      O61924   0.003   3.715   0.624
20561WAT     H161925   0.039   3.633   0.670
20561WAT     H261926   0.026   3.796   0.677
20562WAT      O61927   9.565   4.236   2.977
20562WAT     H161928   9.656   4.275   2.962
20562WAT     H261929   9.496   4.298   2.941
20563WAT      O61930   6.298   8.068   6.534
20563WAT     H161931   6.388   8.109   6.549
20563WAT     H261932   6.282   8.055   6.436
20564WAT      O61933   0.309   1.156   7.136
20564WAT     H161934   0.274   1.209   7.058
20564WAT     H261935   0.234   1.138   7.200
20565WAT      O61936   5.040   5.298   7.505
20565WAT     H161937   5.077   5.344   7.585
20565WAT     H261938   5.102   5.311   7.427
20566WAT      O61939   5.693   4.626   2.662
20566WAT     H161940   5.624   4.635   2.590
20566WAT     H261941   5.669   4.549   2.721
20567WAT      O61942   2.272   2.150   5.792
20567WAT     H161943   2.285   2.172   5.695
20567WAT     H261944   2.260   2.234   5.844
20568WAT      O61945   5.598   6.225   2.707
20568WAT     H161946   5.617   6.141   2.758
20568WAT     H261947   5.524   6.275   2.753
20569WAT      O61948   4.950   5.245   3.135
20569WAT     H161949   4.877   5.248   3.066
20569WAT     H261950   4.944   5.326   3.194
20570WAT      O61951   3.177   8.962   4.183
20570WAT     H161952   3.103   9.009   4.230
20570WAT     H261953   3.139   8.896   4.118
20571WAT      O61954   1.491   6.778   8.452
20571WAT     H161955   1.441   6.704   8.406
20571WAT     H261956   1.481   6.768   8.551
20572WAT      O61957   3.262   9.048   8.354
20572WAT     H161958   3.293   8.953   8.356
20572WAT     H261959   3.326   9.102   8.299
20573WAT      O61960   0.444   4.669   1.773
20573WAT     H161961   0.380   4.627   1.837
20573WAT     H261962   0.534   4.627   1.785
20574WAT      O61963   1.287   9.494   6.703
20574WAT     H161964   1.224   9.471   6.629
20574WAT     H261965   1.381   9.493   6.668
20575WAT      O61966   6.174   0.047   7.254
20575WAT     H161967   6.204   0.011   7.342
20575WAT     H261968   6.253   0.083   7.203
20576WAT      O61969   1.615   2.205   4.510
20576WAT     H161970   1.662   2.208   4.598
20576WAT     H261971   1.551   2.282   4.504
20577WAT      O61972   7.003   7.859   7.347
20577WAT     H161973   7.096   7.823   7.339
20577WAT     H261974   6.998   7.920   7.426
20578WAT      O61975   8.276   2.830   8.521
20578WAT     H161976   8.307   2.919   8.555
20578WAT     H261977   8.208   2.843   8.449
20579WAT      O61978   7.860   9.416   5.450
20579WAT     H161979   7.828   9.367   5.369
20579WAT     H261980   7.890   9.508   5.424
20580WAT      O61981   0.519   2.375   4.865
20580WAT     H161982   0.519   2.457   4.922
20580WAT     H261983   0.557   2.396   4.776
20581WAT      O61984   8.116   6.760   0.318
20581WAT     H161985   8.192   6.795   0.264
20581WAT     H261986   8.054   6.708   0.259
20582WAT      O61987   4.274   5.359   9.585
20582WAT     H161988   4.203   5.290   9.571
20582WAT     H261989   4.364   5.316   9.585
20583WAT      O61990   8.404   5.341   6.946
20583WAT     H161991   8.454   5.395   6.877
20583WAT     H261992   8.315   5.315   6.910
20584WAT      O61993   0.147   1.152   3.326
20584WAT     H161994   0.122   1.178   3.232
20584WAT     H261995   0.107   1.063   3.348
20585WAT      O61996   4.376   9.458   4.712
20585WAT     H161997   4.396   9.365   4.683
20585WAT     H261998   4.447   9.520   4.678
20586WAT      O61999   4.860   7.810   8.252
20586WAT     H162000   4.809   7.856   8.179
20586WAT     H262001   4.956   7.801   8.225
20587WAT      O62002   7.660   9.208   0.282
20587WAT     H162003   7.576   9.254   0.310
20587WAT     H262004   7.732   9.227   0.348
20588WAT      O62005   8.406   4.823   3.547
20588WAT     H162006   8.309   4.826   3.527
20588WAT     H262007   8.439   4.729   3.540
20589WAT      O62008   4.803   3.141   4.444
20589WAT     H162009   4.722   3.126   4.387
20589WAT     H262010   4.790   3.223   4.499
20590WAT      O62011   3.824   9.680   0.422
20590WAT     H162012   3.771   9.723   0.494
20590WAT     H262013   3.831   9.742   0.343
20591WAT      O62014   0.358   2.612   1.649
20591WAT     H162015   0.408   2.566   1.722
20591WAT     H262016   0.261   2.616   1.672
20592WAT      O62017   0.714   2.099   4.893
20592WAT     H162018   0.708   2.141   4.983
20592WAT     H262019   0.622   2.086   4.856
20593WAT      O62020   4.162   1.572   1.316
20593WAT     H162021   4.160   1.662   1.360
20593WAT     H262022   4.230   1.571   1.243
20594WAT      O62023   0.365   4.220   1.847
20594WAT     H162024   0.313   4.289   1.897
20594WAT     H262025   0.440   4.264   1.798
20595WAT      O62026   5.049   9.268   2.304
20595WAT     H162027   5.127   9.270   2.242
20595WAT     H262028   5.022   9.173   2.321
20596WAT      O62029   1.477   2.613   9.728
20596WAT     H162030   1.414   2.666   9.672
20596WAT     H262031   1.430   2.582   9.811
20597WAT      O62032   5.015   9.645   1.961
20597WAT     H162033   5.106   9.637   2.002
20597WAT     H262034   4.999   9.565   1.902
20598WAT      O62035   8.234   1.523   5.765
20598WAT     H162036   8.317   1.477   5.797
20598WAT     H262037   8.188   1.567   5.842
20599WAT      O62038   4.294   5.805   9.392
20599WAT     H162039   4.318   5.877   9.458
20599WAT     H262040   4.375   5.782   9.338
20600WAT      O62041   2.476   6.424   4.062
20600WAT     H162042   2.433   6.365   3.993
20600WAT     H262043   2.410   6.446   4.133
20601WAT      O62044   6.451   5.816   7.235
20601WAT     H162045   6.390   5.833   7.158
20601WAT     H262046   6.542   5.850   7.214
20602WAT      O62047   3.267   4.524   2.821
20602WAT     H162048   3.239   4.437   2.781
20602WAT     H262049   3.187   4.582   2.835
20603WAT      O62050   6.830   8.347   9.736
20603WAT     H162051   6.794   8.321   9.647
20603WAT     H262052   6.893   8.424   9.726
20604WAT      O62053   1.249   4.457   4.834
20604WAT     H162054   1.303   4.381   4.798
20604WAT     H262055   1.254   4.457   4.934
20605WAT      O62056   2.105   0.435   4.069
20605WAT     H162057   2.035   0.506   4.063
20605WAT     H262058   2.108   0.399   4.162
20606WAT      O62059   0.605   8.064   6.212
20606WAT     H162060   0.629   8.039   6.119
20606WAT     H262061   0.674   8.127   6.249
20607WAT      O62062   7.786   0.612   9.498
20607WAT     H162063   7.856   0.609   9.570
20607WAT     H262064   7.793   0.530   9.442
20608WAT      O62065   3.409   6.804   2.173
20608WAT     H162066   3.506   6.823   2.189
20608WAT     H262067   3.370   6.758   2.252
20609WAT      O62068   1.546   7.316   5.451
20609WAT     H162069   1.463   7.352   5.407
20609WAT     H262070   1.617   7.305   5.382
20610WAT      O62071   6.386   0.576   9.722
20610WAT     H162072   6.348   0.488   9.750
20610WAT     H262073   6.314   0.631   9.679
20611WAT      O62074   1.423   2.779   4.149
20611WAT     H162075   1.454   2.772   4.243
20611WAT     H262076   1.392   2.872   4.130
20612WAT      O62077   6.235   9.655   4.214
20612WAT     H162078   6.152   9.653   4.159
20612WAT     H262079   6.275   9.747   4.209
20613WAT      O62080   1.969   5.522   0.246
20613WAT     H162081   1.880   5.558   0.274
20613WAT     H262082   2.007   5.579   0.174
20614WAT      O62083   4.949   5.350   3.536
20614WAT     H162084   5.031   5.309   3.577
20614WAT     H262085   4.879   5.361   3.607
20615WAT      O62086   3.097   1.678   1.145
20615WAT     H162087   3.148   1.641   1.067
20615WAT     H262088   3.001   1.686   1.121
20616WAT      O62089   9.843   6.957   2.666
20616WAT     H162090   9.874   7.033   2.608
20616WAT     H262091   9.856   6.982   2.762
20617WAT      O62092   2.906   4.176   6.272
20617WAT     H162093   2.818   4.175   6.320
20617WAT     H262094   2.959   4.095   6.298
20618WAT      O62095   6.602   1.519   1.158
20618WAT     H162096   6.602   1.475   1.068
20618WAT     H262097   6.679   1.584   1.164
20619WAT      O62098   7.525   0.443   7.734
20619WAT     H162099   7.480   0.365   7.691
20619WAT     H262100   7.620   0.448   7.705
20620WAT      O62101   3.906   0.863   7.506
20620WAT     H162102   3.821   0.836   7.552
20620WAT     H262103   3.956   0.781   7.478
20621WAT      O62104   6.490   2.668   3.747
20621WAT     H162105   6.432   2.748   3.764
20621WAT     H262106   6.457   2.620   3.666
20622WAT      O62107   1.392   0.461   6.187
20622WAT     H162108   1.328   0.458   6.264
20622WAT     H262109   1.399   0.555   6.153
20623WAT      O62110   5.005   4.142   4.137
20623WAT     H162111   5.044   4.067   4.191
20623WAT     H262112   5.024   4.127   4.040
20624WAT      O62113   8.121   9.487   2.662
20624WAT     H162114   8.149   9.530   2.748
20624WAT     H262115   8.161   9.537   2.585
20625WAT      O62116   3.039   4.648   2.034
20625WAT     H162117   3.057   4.736   1.991
20625WAT     H262118   3.022   4.579   1.963
20626WAT      O62119   4.766   6.317   9.564
20626WAT     H162120   4.708   6.313   9.645
20626WAT     H262121   4.734   6.251   9.496
20627WAT      O62122   5.812   7.833   0.400
20627WAT     H162123   5.853   7.750   0.438
20627WAT     H262124   5.786   7.894   0.474
20628WAT      O62125   4.046   5.578   2.563
20628WAT     H162126   4.018   5.482   2.555
20628WAT     H262127   4.110   5.600   2.489
20629WAT      O62128   5.162   5.649   6.376
20629WAT     H162129   5.068   5.675   6.400
20629WAT     H262130   5.225   5.723   6.401
20630WAT      O62131   5.738   2.158   4.874
20630WAT     H162132   5.815   2.152   4.937
20630WAT     H262133   5.706   2.253   4.868
20631WAT      O62134   2.622   2.285   6.078
20631WAT     H162135   2.580   2.307   6.166
20631WAT     H262136   2.689   2.212   6.092
20632WAT      O62137   7.188   4.533   5.850
20632WAT     H162138   7.264   4.524   5.785
20632WAT     H262139   7.148   4.442   5.866
20633WAT      O62140   7.421   1.516   5.801
20633WAT     H162141   7.412   1.418   5.782
20633WAT     H262142   7.448   1.529   5.896
20634WAT      O62143   8.232   9.447   0.671
20634WAT     H162144   8.258   9.532   0.624
20634WAT     H262145   8.297   9.428   0.744
20635WAT      O62146   9.475   9.701   4.393
20635WAT     H162147   9.516   9.637   4.459
20635WAT     H262148   9.484   9.663   4.301
20636WAT      O62149   2.451   3.206   2.632
20636WAT     H162150   2.366   3.208   2.579
20636WAT     H262151   2.460   3.290   2.685
20637WAT      O62152   2.409   8.739   4.653
20637WAT     H162153   2.361   8.815   4.609
20637WAT     H262154   2.455   8.684   4.584
20638WAT      O62155   1.331   0.387   8.293
20638WAT     H162156   1.401   0.321   8.265
20638WAT     H262157   1.376   0.473   8.321
20639WAT      O62158   5.524   0.712   2.738
20639WAT     H162159   5.500   0.787   2.676
20639WAT     H262160   5.443   0.658   2.758
20640WAT      O62161   0.430   3.414   8.047
20640WAT     H162162   0.474   3.357   8.117
20640WAT     H262163   0.481   3.407   7.962
20641WAT      O62164   5.274   0.263   0.253
20641WAT     H162165   5.188   0.288   0.209
20641WAT     H262166   5.278   0.163   0.264
20642WAT      O62167   2.737   8.327   3.601
20642WAT     H162168   2.699   8.303   3.691
20642WAT     H262169   2.776   8.419   3.605
20643WAT      O62170   3.585   4.642   9.785
20643WAT     H162171   3.519   4.574   9.817
20643WAT     H262172   3.549   4.687   9.703
20644WAT      O62173   4.733   9.704   9.036
20644WAT     H162174   4.750   9.615   8.992
20644WAT     H262175   4.750   9.696   9.134
20645WAT      O62176   7.216   6.471   7.453
20645WAT     H162177   7.169   6.460   7.540
20645WAT     H262178   7.301   6.418   7.454
20646WAT      O62179   1.249   5.672   3.426
20646WAT     H162180   1.312   5.594   3.418
20646WAT     H262181   1.186   5.656   3.502
20647WAT      O62182   4.098   2.058   6.153
20647WAT     H162183   4.175   2.114   6.123
20647WAT     H262184   4.013   2.108   6.138
20648WAT      O62185   1.748   2.158   4.771
20648WAT     H162186   1.722   2.253   4.789
20648WAT     H262187   1.710   2.099   4.842
20649WAT      O62188   0.157   6.495   1.935
20649WAT     H162189   0.094   6.572   1.943
20649WAT     H262190   0.203   6.479   2.022
20650WAT      O62191   0.126   9.761   6.748
20650WAT     H162192   0.212   9.735   6.792
20650WAT     H262193   0.132   9.744   6.649
20651WAT      O62194   4.722   6.744   5.556
20651WAT     H162195   4.708   6.709   5.464
20651WAT     H262196   4.684   6.680   5.623
20652WAT      O62197   5.960   5.912   2.162
20652WAT     H162198   6.020   5.843   2.203
20652WAT     H262199   6.014   5.974   2.106
20653WAT      O62200   8.426   0.608   6.671
20653WAT     H162201   8.408   0.699   6.633
20653WAT     H262202   8.434   0.614   6.771
20654WAT      O62203   0.607   0.624   4.324
20654WAT     H162204   0.638   0.640   4.230
20654WAT     H262205   0.656   0.684   4.386
20655WAT      O62206   8.940   2.819   8.177
20655WAT     H162207   8.887   2.831   8.093
20655WAT     H262208   8.921   2.729   8.216
20656WAT      O62209   6.717   2.464   7.740
20656WAT     H162210   6.687   2.395   7.805
20656WAT     H262211   6.696   2.555   7.775
20657WAT      O62212   3.365   0.008   3.382
20657WAT     H162213   3.463   0.014   3.400
20657WAT     H262214   3.349  -0.054   3.305
20658WAT      O62215   3.069   6.043   9.782
20658WAT     H162216   3.107   6.130   9.810
20658WAT     H262217   3.090   5.973   9.851
20659WAT      O62218   1.681   4.777   4.934
20659WAT     H162219   1.649   4.870   4.911
20659WAT     H262220   1.778   4.769   4.910
20660WAT      O62221   1.565   9.005   9.052
20660WAT     H162222   1.555   8.918   9.100
20660WAT     H262223   1.520   8.999   8.963
20661WAT      O62224   7.419   7.471   0.327
20661WAT     H162225   7.395   7.554   0.377
20661WAT     H262226   7.407   7.487   0.229
20662WAT      O62227   6.407   2.712   1.106
20662WAT     H162228   6.356   2.646   1.162
20662WAT     H262229   6.344   2.758   1.044
20663WAT      O62230   9.234   5.877   6.670
20663WAT     H162231   9.239   5.898   6.768
20663WAT     H262232   9.232   5.778   6.657
20664WAT      O62233   3.878   4.755   5.893
20664WAT     H162234   3.844   4.836   5.940
20664WAT     H262235   3.977   4.748   5.906
20665WAT      O62236   0.994   7.573   1.117
20665WAT     H162237   1.035   7.660   1.144
20665WAT     H262238   1.013   7.556   1.020
20666WAT      O62239   3.521   8.323   2.989
20666WAT     H162240   3.454   8.397   2.997
20666WAT     H262241   3.499   8.251   3.054
20667WAT      O62242   8.084   3.630   4.839
20667WAT     H162243   8.043   3.714   4.875
20667WAT     H262244   8.170   3.611   4.886
20668WAT      O62245   7.296   7.671   2.521
20668WAT     H162246   7.319   7.669   2.618
20668WAT     H262247   7.277   7.578   2.489
20669WAT      O62248   2.352   0.986   9.458
20669WAT     H162249   2.349   0.935   9.544
20669WAT     H262250   2.286   0.946   9.394
20670WAT      O62251   1.729   0.751   8.570
20670WAT     H162252   1.688   0.672   8.525
20670WAT     H262253   1.739   0.733   8.668
20671WAT      O62254   9.728   5.623   7.003
20671WAT     H162255   9.787   5.545   7.023
20671WAT     H262256   9.782   5.698   6.966
20672WAT      O62257   9.298   2.262   3.158
20672WAT     H162258   9.240   2.237   3.236
20672WAT     H262259   9.277   2.355   3.130
20673WAT      O62260   2.140   6.877   9.018
20673WAT     H162261   2.156   6.890   9.116
20673WAT     H262262   2.191   6.946   8.966
20674WAT      O62263   3.157   8.827   1.550
20674WAT     H162264   3.197   8.874   1.471
20674WAT     H262265   3.064   8.800   1.528
20675WAT      O62266   6.353   0.585   0.340
20675WAT     H162267   6.351   0.668   0.284
20675WAT     H262268   6.384   0.607   0.432
20676WAT      O62269   8.867   1.559   0.803
20676WAT     H162270   8.808   1.606   0.738
20676WAT     H262271   8.812   1.522   0.878
20677WAT      O62272   1.887   7.646   8.120
20677WAT     H162273   1.812   7.711   8.135
20677WAT     H262274   1.971   7.696   8.102
20678WAT      O62275   7.434   1.618   8.856
20678WAT     H162276   7.426   1.684   8.931
20678WAT     H262277   7.492   1.542   8.885
20679WAT      O62278   2.326   4.190   6.328
20679WAT     H162279   2.341   4.287   6.309
20679WAT     H262280   2.389   4.135   6.273
20680WAT      O62281   8.184   0.494   5.643
20680WAT     H162282   8.244   0.481   5.564
20680WAT     H262283   8.233   0.546   5.714
20681WAT      O62284   7.544   3.160   5.884
20681WAT     H162285   7.517   3.110   5.966
20681WAT     H262286   7.462   3.187   5.833
20682WAT      O62287   2.214   6.503   7.101
20682WAT     H162288   2.227   6.562   7.021
20682WAT     H262289   2.135   6.535   7.153
20683WAT      O62290   2.628   4.365   2.732
20683WAT     H162291   2.569   4.312   2.794
20683WAT     H262292   2.676   4.435   2.784
20684WAT      O62293   2.672   4.503   3.017
20684WAT     H162294   2.710   4.422   3.063
20684WAT     H262295   2.746   4.562   2.987
20685WAT      O62296   0.352   3.496   3.107
20685WAT     H162297   0.279   3.538   3.162
20685WAT     H262298   0.439   3.508   3.153
20686WAT      O62299   4.855   3.140   7.807
20686WAT     H162300   4.866   3.190   7.893
20686WAT     H262301   4.866   3.042   7.824
20687WAT      O62302   7.730   7.923   2.875
20687WAT     H162303   7.741   7.890   2.969
20687WAT     H262304   7.803   7.988   2.853
20688WAT      O62305   1.293   7.356   3.726
20688WAT     H162306   1.310   7.355   3.627
20688WAT     H262307   1.302   7.263   3.762
20689WAT      O62308   2.595   5.347   9.399
20689WAT     H162309   2.586   5.266   9.456
20689WAT     H262310   2.505   5.384   9.378
20690WAT      O62311   9.379   8.850   1.684
20690WAT     H162312   9.287   8.888   1.671
20690WAT     H262313   9.446   8.925   1.683
20691WAT      O62314   1.034   4.825   8.440
20691WAT     H162315   0.936   4.821   8.426
20691WAT     H262316   1.054   4.831   8.538
20692WAT      O62317   9.268   4.085   2.809
20692WAT     H162318   9.210   4.165   2.792
20692WAT     H262319   9.261   4.022   2.732
20693WAT      O62320   7.972   7.884   6.336
20693WAT     H162321   8.063   7.895   6.376
20693WAT     H262322   7.923   7.811   6.384
20694WAT      O62323   2.433   4.683   9.180
20694WAT     H162324   2.498   4.725   9.244
20694WAT     H262325   2.354   4.648   9.231
20695WAT      O62326   1.809   9.313   5.313
20695WAT     H162327   1.780   9.335   5.219
20695WAT     H262328   1.906   9.335   5.324
20696WAT      O62329   0.584   4.909   7.559
20696WAT     H162330   0.572   4.811   7.546
20696WAT     H262331   0.549   4.935   7.650
20697WAT      O62332   8.591   3.231   9.183
20697WAT     H162333   8.552   3.140   9.171
20697WAT     H262334   8.519   3.300   9.185
20698WAT      O62335   8.161   7.748   8.029
20698WAT     H162336   8.107   7.695   7.964
20698WAT     H262337   8.120   7.740   8.120
20699WAT      O62338   2.943   2.921   3.691
20699WAT     H162339   2.975   2.937   3.598
20699WAT     H262340   3.019   2.932   3.755
20700WAT      O62341   2.486   4.768   6.905
20700WAT     H162342   2.516   4.760   6.810
20700WAT     H262343   2.392   4.734   6.913
20701WAT      O62344   1.905   0.536   9.145
20701WAT     H162345   1.961   0.614   9.116
20701WAT     H262346   1.950   0.488   9.220
20702WAT      O62347   7.207   4.877   5.680
20702WAT     H162348   7.158   4.804   5.633
20702WAT     H262349   7.289   4.839   5.724
20703WAT      O62350   1.602   4.763   4.252
20703WAT     H162351   1.596   4.856   4.288
20703WAT     H262352   1.696   4.743   4.224
20704WAT      O62353   0.510   6.709   3.001
20704WAT     H162354   0.442   6.698   3.073
20704WAT     H262355   0.468   6.748   2.919
20705WAT      O62356   9.581   8.850   9.040
20705WAT     H162357   9.548   8.852   8.946
20705WAT     H262358   9.643   8.927   9.056
20706WAT      O62359   2.909   6.218   5.655
20706WAT     H162360   2.974   6.283   5.614
20706WAT     H262361   2.922   6.128   5.614
20707WAT      O62362   5.222   3.409   3.179
20707WAT     H162363   5.156   3.349   3.225
20707WAT     H262364   5.315   3.385   3.209
20708WAT      O62365   2.893   2.069   4.827
20708WAT     H162366   2.794   2.061   4.840
20708WAT     H262367   2.932   1.979   4.808
20709WAT      O62368   0.913   4.254   6.593
20709WAT     H162369   0.871   4.239   6.682
20709WAT     H262370   0.904   4.172   6.537
20710WAT      O62371   9.711   4.266   5.588
20710WAT     H162372   9.633   4.329   5.587
20710WAT     H262373   9.680   4.175   5.564
20711WAT      O62374   5.146   6.197   4.916
20711WAT     H162375   5.168   6.207   4.819
20711WAT     H262376   5.092   6.114   4.929
20712WAT      O62377   9.786   1.591   9.134
20712WAT     H162378   9.851   1.529   9.091
20712WAT     H262379   9.824   1.683   9.137
20713WAT      O62380   7.088   5.955   3.397
20713WAT     H162381   6.991   5.961   3.420
20713WAT     H262382   7.133   6.041   3.422
20714WAT      O62383   6.174   0.834   8.899
20714WAT     H162384   6.246   0.782   8.852
20714WAT     H262385   6.094   0.775   8.912
20715WAT      O62386   4.381   3.766   3.849
20715WAT     H162387   4.436   3.738   3.928
20715WAT     H262388   4.374   3.690   3.784
20716WAT      O62389   5.589   7.813   8.153
20716WAT     H162390   5.682   7.792   8.123
20716WAT     H262391   5.525   7.751   8.107
20717WAT      O62392   6.128   9.671   7.684
20717WAT     H162393   6.042   9.688   7.635
20717WAT     H262394   6.143   9.572   7.692
20718WAT      O62395   6.237   6.849   3.386
20718WAT     H162396   6.314   6.786   3.376
20718WAT     H262397   6.162   6.819   3.327
20719WAT      O62398   9.183   1.160   3.593
20719WAT     H162399   9.198   1.068   3.559
20719WAT     H262400   9.180   1.159   3.693
20720WAT      O62401   1.861   7.994   4.788
20720WAT     H162402   1.912   7.908   4.794
20720WAT     H262403   1.867   8.030   4.695
20721WAT      O62404   9.284   1.652   8.293
20721WAT     H162405   9.227   1.570   8.301
20721WAT     H262406   9.272   1.709   8.374
20722WAT      O62407   6.041   1.220   8.291
20722WAT     H162408   6.061   1.123   8.306
20722WAT     H262409   6.110   1.260   8.231
20723WAT      O62410   8.384   5.895   2.485
20723WAT     H162411   8.372   5.956   2.406
20723WAT     H262412   8.327   5.814   2.473
20724WAT      O62413   5.764   0.604   2.749
20724WAT     H162414   5.666   0.620   2.757
20724WAT     H262415   5.804   0.667   2.683
20725WAT      O62416   8.170   8.560   0.789
20725WAT     H162417   8.220   8.509   0.860
20725WAT     H262418   8.228   8.632   0.753
20726WAT      O62419   3.043   8.441   5.966
20726WAT     H162420   3.084   8.531   5.979
20726WAT     H262421   2.960   8.434   6.021
20727WAT      O62422   2.608   5.845   4.409
20727WAT     H162423   2.675   5.912   4.440
20727WAT     H262424   2.537   5.834   4.478
20728WAT      O62425   2.319   8.238   8.079
20728WAT     H162426   2.236   8.183   8.070
20728WAT     H262427   2.310   8.321   8.023
20729WAT      O62428   6.745   5.718   8.879
20729WAT     H162429   6.825   5.752   8.928
20729WAT     H262430   6.768   5.701   8.783
20730WAT      O62431   7.422   9.427   6.427
20730WAT     H162432   7.512   9.454   6.393
20730WAT     H262433   7.383   9.501   6.482
20731WAT      O62434   0.479   6.460   4.058
20731WAT     H162435   0.475   6.371   4.105
20731WAT     H262436   0.449   6.532   4.119
20732WAT      O62437   7.750   3.653   3.759
20732WAT     H162438   7.809   3.730   3.784
20732WAT     H262439   7.799   3.567   3.773
20733WAT      O62440   4.957   2.148   4.804
20733WAT     H162441   4.994   2.070   4.754
20733WAT     H262442   4.857   2.143   4.807
20734WAT      O62443   9.022   2.717   1.806
20734WAT     H162444   9.064   2.793   1.854
20734WAT     H262445   9.033   2.729   1.707
20735WAT      O62446   6.839   2.664   9.889
20735WAT     H162447   6.918   2.720   9.867
20735WAT     H262448   6.770   2.720   9.936
20736WAT      O62449   6.404   7.719   7.300
20736WAT     H162450   6.419   7.620   7.304
20736WAT     H262451   6.391   7.755   7.392
20737WAT      O62452   3.587   0.664   5.129
20737WAT     H162453   3.630   0.614   5.204
20737WAT     H262454   3.657   0.691   5.063
20738WAT      O62455   8.408   6.343   0.096
20738WAT     H162456   8.481   6.407   0.071
20738WAT     H262457   8.431   6.252   0.061
20739WAT      O62458   7.445   7.865   4.873
20739WAT     H162459   7.456   7.774   4.913
20739WAT     H262460   7.531   7.894   4.833
20740WAT      O62461   2.155   3.890   2.345
20740WAT     H162462   2.193   3.801   2.373
20740WAT     H262463   2.088   3.920   2.413
20741WAT      O62464   8.905   7.730   2.918
20741WAT     H162465   8.884   7.797   2.989
20741WAT     H262466   8.821   7.701   2.873
20742WAT      O62467   7.364   1.439   2.110
20742WAT     H162468   7.303   1.478   2.041
20742WAT     H262469   7.411   1.359   2.071
20743WAT      O62470   3.389   4.284   9.173
20743WAT     H162471   3.309   4.226   9.160
20743WAT     H262472   3.472   4.227   9.174
20744WAT      O62473   7.783   0.998   0.678
20744WAT     H162474   7.876   0.965   0.695
20744WAT     H262475   7.756   0.975   0.585
20745WAT      O62476   0.067   7.580   0.913
20745WAT     H162477   0.017   7.531   0.842
20745WAT     H262478   0.027   7.560   1.002
20746WAT      O62479   4.980   2.419   7.067
20746WAT     H162480   4.910   2.358   7.105
20746WAT     H262481   5.032   2.462   7.140
20747WAT      O62482   1.391   4.503   6.793
20747WAT     H162483   1.327   4.459   6.856
20747WAT     H262484   1.412   4.441   6.718
20748WAT      O62485   3.363   6.802   2.789
20748WAT     H162486   3.346   6.799   2.888
20748WAT     H262487   3.301   6.738   2.744
20749WAT      O62488   7.926   6.286   7.555
20749WAT     H162489   8.007   6.231   7.534
20749WAT     H262490   7.935   6.376   7.514
20750WAT      O62491   1.241   3.242   4.254
20750WAT     H162492   1.278   3.157   4.215
20750WAT     H262493   1.191   3.292   4.184
20751WAT      O62494   3.397   5.811   2.804
20751WAT     H162495   3.362   5.827   2.712
20751WAT     H262496   3.351   5.872   2.868
20752WAT      O62497   8.783   2.790   0.716
20752WAT     H162498   8.760   2.818   0.623
20752WAT     H262499   8.866   2.837   0.746
20753WAT      O62500   0.499   8.387   9.402
20753WAT     H162501   0.594   8.406   9.374
20753WAT     H262502   0.497   8.304   9.457
20754WAT      O62503   7.190   2.563   3.986
20754WAT     H162504   7.122   2.588   4.054
20754WAT     H262505   7.260   2.634   3.981
20755WAT      O62506   2.320   5.176   9.101
20755WAT     H162507   2.394   5.210   9.043
20755WAT     H262508   2.240   5.235   9.090
20756WAT      O62509   0.212   6.709   7.341
20756WAT     H162510   0.141   6.755   7.395
20756WAT     H262511   0.213   6.612   7.364
20757WAT      O62512   3.327   6.732   7.856
20757WAT     H162513   3.274   6.711   7.939
20757WAT     H262514   3.325   6.653   7.794
20758WAT      O62515   9.529   1.970   6.348
20758WAT     H162516   9.492   1.914   6.422
20758WAT     H262517   9.561   1.911   6.274
20759WAT      O62518   9.601   4.718   9.497
20759WAT     H162519   9.520   4.694   9.444
20759WAT     H262520   9.616   4.817   9.493
20760WAT      O62521   6.365   0.224   5.010
20760WAT     H162522   6.441   0.191   4.954
20760WAT     H262523   6.381   0.319   5.036
20761WAT      O62524   4.526   3.316   1.831
20761WAT     H162525   4.591   3.375   1.878
20761WAT     H262526   4.441   3.310   1.883
20762WAT      O62527   0.949   6.432   6.570
20762WAT     H162528   0.898   6.452   6.654
20762WAT     H262529   1.038   6.478   6.573
20763WAT      O62530   7.787   6.241   8.622
20763WAT     H162531   7.853   6.173   8.654
20763WAT     H262532   7.795   6.251   8.522
20764WAT      O62533   3.478   1.598   9.163
20764WAT     H162534   3.408   1.552   9.109
20764WAT     H262535   3.494   1.548   9.248
20765WAT      O62536   9.210   6.693   9.333
20765WAT     H162537   9.287   6.692   9.270
20765WAT     H262538   9.134   6.744   9.292
20766WAT      O62539   7.541   2.777   1.201
20766WAT     H162540   7.594   2.794   1.118
20766WAT     H262541   7.472   2.848   1.212
20767WAT      O62542   8.409   9.111   5.226
20767WAT     H162543   8.370   9.156   5.306
20767WAT     H262544   8.345   9.118   5.149
20768WAT      O62545   6.595   8.433   0.558
20768WAT     H162546   6.595   8.343   0.603
20768WAT     H262547   6.624   8.422   0.463
20769WAT      O62548   7.309   3.828   5.281
20769WAT     H162549   7.296   3.810   5.184
20769WAT     H262550   7.257   3.908   5.308
20770WAT      O62551   8.285   3.901   4.605
20770WAT     H162552   8.294   3.899   4.704
20770WAT     H262553   8.355   3.844   4.563
20771WAT      O62554   9.231   8.036   8.992
20771WAT     H162555   9.138   8.030   9.027
20771WAT     H262556   9.279   8.113   9.034
20772WAT      O62557   1.156   4.975   6.309
20772WAT     H162558   1.174   5.068   6.340
20772WAT     H262559   1.128   4.918   6.387
20773WAT      O62560   9.100   3.869   9.612
20773WAT     H162561   9.149   3.907   9.533
20773WAT     H262562   9.146   3.897   9.696
20774WAT      O62563   3.434   4.825   2.437
20774WAT     H162564   3.414   4.870   2.524
20774WAT     H262565   3.453   4.894   2.367
20775WAT      O62566   6.419   4.229   0.895
20775WAT     H162567   6.341   4.168   0.911
20775WAT     H262568   6.392   4.300   0.830
20776WAT      O62569   3.738   5.730   7.452
20776WAT     H162570   3.787   5.811   7.420
20776WAT     H262571   3.801   5.652   7.452
20777WAT      O62572   3.994   8.233   9.471
20777WAT     H162573   4.080   8.284   9.469
20777WAT     H262574   3.973   8.207   9.565
20778WAT      O62575   6.415   8.780   4.064
20778WAT     H162576   6.321   8.751   4.047
20778WAT     H262577   6.471   8.702   4.091
20779WAT      O62578   6.781   5.421   1.804
20779WAT     H162579   6.786   5.398   1.707
20779WAT     H262580   6.844   5.496   1.824
20780WAT      O62581   1.761   0.851   3.336
20780WAT     H162582   1.743   0.753   3.332
20780WAT     H262583   1.738   0.886   3.427
20781WAT      O62584   1.280   5.790   6.565
20781WAT     H162585   1.358   5.781   6.627
20781WAT     H262586   1.195   5.784   6.616
20782WAT      O62587   5.784   3.570   2.431
20782WAT     H162588   5.770   3.568   2.332
20782WAT     H262589   5.720   3.507   2.475
20783WAT      O62590   6.286   5.792   7.908
20783WAT     H162591   6.347   5.714   7.918
20783WAT     H262592   6.194   5.760   7.884
20784WAT      O62593   0.715   8.909   0.791
20784WAT     H162594   0.687   8.835   0.851
20784WAT     H262595   0.789   8.877   0.731
20785WAT      O62596   6.952   6.347   0.969
20785WAT     H162597   6.959   6.436   0.923
20785WAT     H262598   7.031   6.333   1.028
20786WAT      O62599   3.100   5.407   5.640
20786WAT     H162600   3.042   5.476   5.598
20786WAT     H262601   3.055   5.372   5.723
20787WAT      O62602   7.150   2.620   3.642
20787WAT     H162603   7.183   2.527   3.623
20787WAT     H262604   7.093   2.618   3.725
20788WAT      O62605   8.435   3.670   8.108
20788WAT     H162606   8.450   3.590   8.050
20788WAT     H262607   8.522   3.704   8.143
20789WAT      O62608   9.078   3.159   0.165
20789WAT     H162609   8.989   3.183   0.204
20789WAT     H262610   9.150   3.210   0.213
20790WAT      O62611   7.868   9.010   8.362
20790WAT     H162612   7.935   9.013   8.288
20790WAT     H262613   7.779   9.039   8.327
20791WAT      O62614   7.744   7.091   6.008
20791WAT     H162615   7.712   7.044   6.090
20791WAT     H262616   7.814   7.158   6.032
20792WAT      O62617   9.076   1.250   1.674
20792WAT     H162618   9.136   1.280   1.748
20792WAT     H262619   8.981   1.261   1.701
20793WAT      O62620   8.940   3.942   4.633
20793WAT     H162621   8.843   3.961   4.617
20793WAT     H262622   8.964   3.971   4.725
20794WAT      O62623   8.299   4.295   7.970
20794WAT     H162624   8.303   4.280   7.871
20794WAT     H262625   8.257   4.216   8.014
20795WAT      O62626   9.892   3.654   8.141
20795WAT     H162627   9.913   3.699   8.227
20795WAT     H262628   9.800   3.615   8.145
20796WAT      O62629   2.973   4.831   5.669
20796WAT     H162630   3.063   4.811   5.630
20796WAT     H262631   2.915   4.749   5.664
20797WAT      O62632   9.478   7.949   0.285
20797WAT     H162633   9.400   8.009   0.299
20797WAT     H262634   9.546   7.966   0.357
20798WAT      O62635   2.221   5.108   2.664
20798WAT     H162636   2.142   5.066   2.618
20798WAT     H262637   2.284   5.036   2.694
20799WAT      O62638   9.283   1.963   6.088
20799WAT     H162639   9.292   1.868   6.117
20799WAT     H262640   9.212   2.008   6.143
20800WAT      O62641   6.182   2.101   9.167
20800WAT     H162642   6.083   2.116   9.173
20800WAT     H262643   6.202   2.005   9.186
20801WAT      O62644   9.010   5.817   4.785
20801WAT     H162645   9.052   5.885   4.844
20801WAT     H262646   9.027   5.725   4.821
20802WAT      O62647   5.302   1.952   8.728
20802WAT     H162648   5.339   2.044   8.724
20802WAT     H262649   5.372   1.886   8.700
20803WAT      O62650   9.389   7.323   0.528
20803WAT     H162651   9.358   7.386   0.457
20803WAT     H262652   9.385   7.229   0.494
20804WAT      O62653   8.500   1.731   9.247
20804WAT     H162654   8.561   1.810   9.259
20804WAT     H262655   8.413   1.749   9.292
20805WAT      O62656   6.454   1.051   9.139
20805WAT     H162657   6.477   0.966   9.092
20805WAT     H262658   6.501   1.128   9.096
20806WAT      O62659   8.423   5.037   8.468
20806WAT     H162660   8.459   4.987   8.389
20806WAT     H262661   8.323   5.037   8.465
20807WAT      O62662   8.303   0.380   9.856
20807WAT     H162663   8.399   0.406   9.870
20807WAT     H262664   8.245   0.432   9.918
20808WAT      O62665   4.328   3.134   7.673
20808WAT     H162666   4.381   3.119   7.590
20808WAT     H262667   4.389   3.164   7.747
20809WAT      O62668   3.521   2.394   8.445
20809WAT     H162669   3.547   2.323   8.381
20809WAT     H262670   3.498   2.353   8.534
20810WAT      O62671   2.228   7.863   5.155
20810WAT     H162672   2.259   7.909   5.238
20810WAT     H262673   2.129   7.849   5.161
20811WAT      O62674   9.159   5.058   9.472
20811WAT     H162675   9.238   5.119   9.465
20811WAT     H262676   9.095   5.094   9.541
20812WAT      O62677   0.417   6.546   1.507
20812WAT     H162678   0.491   6.498   1.555
20812WAT     H262679   0.338   6.553   1.568
20813WAT      O62680   4.500   3.766   6.825
20813WAT     H162681   4.499   3.769   6.725
20813WAT     H262682   4.427   3.824   6.860
20814WAT      O62683   9.668   2.161   2.982
20814WAT     H162684   9.585   2.111   2.957
20814WAT     H262685   9.665   2.185   3.079
20815WAT      O62686   4.988   6.364   5.941
20815WAT     H162687   4.914   6.320   5.991
20815WAT     H262688   4.970   6.357   5.843
20816WAT      O62689   3.635   3.383   9.233
20816WAT     H162690   3.626   3.336   9.145
20816WAT     H262691   3.547   3.420   9.261
20817WAT      O62692   1.300   7.352   5.991
20817WAT     H162693   1.317   7.284   5.919
20817WAT     H262694   1.292   7.306   6.079
20818WAT      O62695   5.317   1.751   8.454
20818WAT     H162696   5.384   1.759   8.528
20818WAT     H262697   5.316   1.657   8.421
20819WAT      O62698   2.961   8.240   3.300
20819WAT     H162699   3.056   8.250   3.331
20819WAT     H262700   2.918   8.330   3.296
20820WAT      O62701   1.300   4.559   5.375
20820WAT     H162702   1.396   4.532   5.373
20820WAT     H262703   1.281   4.608   5.460
20821WAT      O62704   7.071   8.297   0.190
20821WAT     H162705   7.069   8.395   0.207
20821WAT     H262706   7.008   8.251   0.253
20822WAT      O62707   1.690   3.312   1.631
20822WAT     H162708   1.724   3.399   1.595
20822WAT     H262709   1.743   3.237   1.591
20823WAT      O62710   6.734   9.077   8.367
20823WAT     H162711   6.768   9.112   8.454
20823WAT     H262712   6.648   9.028   8.383
20824WAT      O62713   0.215   6.662   0.509
20824WAT     H162714   0.255   6.670   0.417
20824WAT     H262715   0.247   6.739   0.565
20825WAT      O62716   7.785   4.895   4.739
20825WAT     H162717   7.717   4.929   4.804
20825WAT     H262718   7.847   4.832   4.786
20826WAT      O62719   2.752   2.222   9.579
20826WAT     H162720   2.692   2.284   9.528
20826WAT     H262721   2.847   2.237   9.551
20827WAT      O62722   1.530   5.680   4.605
20827WAT     H162723   1.497   5.682   4.511
20827WAT     H262724   1.626   5.707   4.607
20828WAT      O62725   2.872   7.812   4.464
20828WAT     H162726   2.847   7.903   4.499
20828WAT     H262727   2.917   7.760   4.537
20829WAT      O62728   0.275   7.949   9.873
20829WAT     H162729   0.240   7.993   9.790
20829WAT     H262730   0.372   7.928   9.861
20830WAT      O62731   4.791   0.296   1.379
20830WAT     H162732   4.835   0.298   1.469
20830WAT     H262733   4.701   0.253   1.387
20831WAT      O62734   7.057   0.542   9.372
20831WAT     H162735   7.047   0.520   9.274
20831WAT     H262736   7.002   0.622   9.394
20832WAT      O62737   4.295   4.376   0.206
20832WAT     H162738   4.202   4.395   0.175
20832WAT     H262739   4.325   4.448   0.268
20833WAT      O62740   1.601   9.384   8.788
20833WAT     H162741   1.596   9.482   8.770
20833WAT     H262742   1.693   9.360   8.817
20834WAT      O62743   0.463   6.159   5.114
20834WAT     H162744   0.437   6.134   5.021
20834WAT     H262745   0.406   6.109   5.179
20835WAT      O62746   0.963   4.505   8.707
20835WAT     H162747   0.896   4.506   8.633
20835WAT     H262748   0.916   4.511   8.795
20836WAT      O62749   3.579   8.527   7.118
20836WAT     H162750   3.553   8.441   7.163
20836WAT     H262751   3.673   8.521   7.085
20837WAT      O62752   1.270   3.777   1.904
20837WAT     H162753   1.255   3.691   1.952
20837WAT     H262754   1.326   3.837   1.960
20838WAT      O62755   8.920   0.331   2.924
20838WAT     H162756   8.938   0.407   2.861
20838WAT     H262757   8.973   0.344   3.008
20839WAT      O62758   8.581   5.180   7.741
20839WAT     H162759   8.636   5.166   7.659
20839WAT     H262760   8.640   5.206   7.818
20840WAT      O62761   4.730   4.744   1.144
20840WAT     H162762   4.749   4.687   1.224
20840WAT     H262763   4.724   4.687   1.062
20841WAT      O62764   6.033   9.477   6.266
20841WAT     H162765   6.005   9.553   6.325
20841WAT     H262766   6.113   9.504   6.213
20842WAT      O62767   8.659   3.887   9.825
20842WAT     H162768   8.651   3.919   9.919
20842WAT     H262769   8.573   3.842   9.797
20843WAT      O62770   5.043   7.219   7.552
20843WAT     H162771   4.966   7.158   7.567
20843WAT     H262772   5.102   7.182   7.480
20844WAT      O62773   9.196   6.097   3.579
20844WAT     H162774   9.258   6.026   3.546
20844WAT     H262775   9.105   6.057   3.593
20845WAT      O62776   9.243   1.078   0.693
20845WAT     H162777   9.287   1.003   0.644
20845WAT     H262778   9.178   1.042   0.760
20846WAT      O62779   1.046   1.456   1.035
20846WAT     H162780   0.976   1.519   1.000
20846WAT     H262781   1.136   1.496   1.023
20847WAT      O62782   3.238   7.292   7.149
20847WAT     H162783   3.302   7.276   7.074
20847WAT     H262784   3.282   7.273   7.236
20848WAT      O62785   1.263   0.889   2.427
20848WAT     H162786   1.249   0.982   2.394
20848WAT     H262787   1.257   0.888   2.527
20849WAT      O62788   8.941   4.364   1.603
20849WAT     H162789   8.849   4.380   1.567
20849WAT     H262790   8.936   4.299   1.678
20850WAT      O62791   1.483   1.753   7.517
20850WAT     H162792   1.395   1.742   7.563
20850WAT     H262793   1.544   1.678   7.542
20851WAT      O62794   9.497   4.792   7.379
20851WAT     H162795   9.517   4.724   7.449
20851WAT     H262796   9.418   4.846   7.407
20852WAT      O62797   4.895   0.327   1.629
20852WAT     H162798   4.810   0.297   1.673
20852WAT     H262799   4.971   0.274   1.666
20853WAT      O62800   3.901   0.095   3.404
20853WAT     H162801   3.958   0.110   3.484
20853WAT     H262802   3.835   0.170   3.396
20854WAT      O62803   7.251   4.584   4.136
20854WAT     H162804   7.257   4.552   4.231
20854WAT     H262805   7.343   4.592   4.097
20855WAT      O62806   4.680   9.276   5.405
20855WAT     H162807   4.587   9.315   5.407
20855WAT     H262808   4.708   9.263   5.311
20856WAT      O62809   5.211   8.867   7.240
20856WAT     H162810   5.272   8.839   7.166
20856WAT     H262811   5.125   8.816   7.235
20857WAT      O62812   2.952   3.128   4.259
20857WAT     H162813   2.981   3.037   4.231
20857WAT     H262814   2.954   3.190   4.180
20858WAT      O62815   6.279   1.535   1.373
20858WAT     H162816   6.182   1.509   1.380
20858WAT     H262817   6.316   1.550   1.464
20859WAT      O62818   4.196   5.355   1.035
20859WAT     H162819   4.155   5.437   0.995
20859WAT     H262820   4.238   5.378   1.123
20860WAT      O62821   2.206   8.278   3.366
20860WAT     H162822   2.176   8.189   3.330
20860WAT     H262823   2.304   8.274   3.387
20861WAT      O62824   4.684   2.722   9.403
20861WAT     H162825   4.764   2.776   9.375
20861WAT     H262826   4.634   2.772   9.474
20862WAT      O62827   7.305   0.616   8.383
20862WAT     H162828   7.377   0.563   8.338
20862WAT     H262829   7.215   0.581   8.356
20863WAT      O62830   2.873   4.457   1.142
20863WAT     H162831   2.873   4.357   1.138
20863WAT     H262832   2.943   4.488   1.207
20864WAT      O62833   4.873   1.542   0.354
20864WAT     H162834   4.926   1.557   0.437
20864WAT     H262835   4.814   1.462   0.365
20865WAT      O62836   0.210   4.303   9.157
20865WAT     H162837   0.276   4.362   9.111
20865WAT     H262838   0.209   4.214   9.113
20866WAT      O62839   6.663   7.237   0.123
20866WAT     H162840   6.683   7.291   0.205
20866WAT     H262841   6.586   7.280   0.074
20867WAT      O62842   6.008   6.034   0.961
20867WAT     H162843   6.091   6.082   0.935
20867WAT     H262844   5.989   6.050   1.058
20868WAT      O62845   9.030   5.821   3.913
20868WAT     H162846   8.958   5.824   3.844
20868WAT     H262847   9.091   5.900   3.902
20869WAT      O62848   9.035   2.935   5.669
20869WAT     H162849   8.951   2.903   5.626
20869WAT     H262850   9.071   2.863   5.729
20870WAT      O62851   3.619   5.895   6.393
20870WAT     H162852   3.633   5.814   6.449
20870WAT     H262853   3.633   5.872   6.297
20871WAT      O62854   0.063   9.276   7.288
20871WAT     H162855   0.054   9.309   7.194
20871WAT     H262856  -0.028   9.266   7.328
20872WAT      O62857   2.890   4.815   7.808
20872WAT     H162858   2.922   4.820   7.903
20872WAT     H262859   2.823   4.888   7.792
20873WAT      O62860   1.467   5.919   3.756
20873WAT     H162861   1.438   6.014   3.744
20873WAT     H262862   1.461   5.871   3.668
20874WAT      O62863   1.897   6.422   5.714
20874WAT     H162864   1.869   6.398   5.807
20874WAT     H262865   1.941   6.342   5.671
20875WAT      O62866   7.738   1.918   6.690
20875WAT     H162867   7.756   2.002   6.639
20875WAT     H262868   7.640   1.907   6.703
20876WAT      O62869   9.309   6.606   9.011
20876WAT     H162870   9.376   6.632   9.079
20876WAT     H262871   9.350   6.611   8.920
20877WAT      O62872   9.317   1.837   0.186
20877WAT     H162873   9.335   1.739   0.198
20877WAT     H262874   9.375   1.889   0.248
20878WAT      O62875   1.675   7.213   4.486
20878WAT     H162876   1.689   7.308   4.513
20878WAT     H262877   1.579   7.188   4.497
20879WAT      O62878   3.762   3.288   8.460
20879WAT     H162879   3.719   3.370   8.496
20879WAT     H262880   3.725   3.208   8.507
20880WAT      O62881   7.082   3.566   7.842
20880WAT     H162882   7.161   3.539   7.898
20880WAT     H262883   7.001   3.572   7.900
20881WAT      O62884   0.326   4.192   4.256
20881WAT     H162885   0.265   4.120   4.225
20881WAT     H262886   0.417   4.179   4.217
20882WAT      O62887   3.205   5.537   1.994
20882WAT     H162888   3.209   5.541   2.094
20882WAT     H262889   3.217   5.442   1.965
20883WAT      O62890   7.413   2.006   7.882
20883WAT     H162891   7.358   2.033   7.961
20883WAT     H262892   7.359   1.946   7.823
20884WAT      O62893   7.042   1.961   8.318
20884WAT     H162894   7.104   2.002   8.385
20884WAT     H262895   6.981   1.896   8.363
20885WAT      O62896   7.304   9.353   1.633
20885WAT     H162897   7.314   9.426   1.700
20885WAT     H262898   7.387   9.297   1.632
20886WAT      O62899   0.188   2.262   9.573
20886WAT     H162900   0.125   2.329   9.611
20886WAT     H262901   0.209   2.193   9.641
20887WAT      O62902   9.876   6.704   5.087
20887WAT     H162903   9.972   6.690   5.111
20887WAT     H262904   9.841   6.786   5.133
20888WAT      O62905   3.265   5.533   0.293
20888WAT     H162906   3.305   5.606   0.237
20888WAT     H262907   3.237   5.569   0.381
20889WAT      O62908   6.543   5.843   1.141
20889WAT     H162909   6.453   5.869   1.177
20889WAT     H262910   6.535   5.824   1.043
20890WAT      O62911   6.272   3.622   9.504
20890WAT     H162912   6.301   3.675   9.584
20890WAT     H262913   6.179   3.589   9.518
20891WAT      O62914   7.138   0.866   4.257
20891WAT     H162915   7.201   0.891   4.331
20891WAT     H262916   7.147   0.932   4.183
20892WAT      O62917   6.252   4.955   3.053
20892WAT     H162918   6.268   4.886   3.123
20892WAT     H262919   6.208   5.035   3.093
20893WAT      O62920   7.254   2.675   9.381
20893WAT     H162921   7.229   2.594   9.328
20893WAT     H262922   7.238   2.657   9.478
20894WAT      O62923   7.197   5.523   9.074
20894WAT     H162924   7.104   5.533   9.038
20894WAT     H262925   7.222   5.427   9.073
20895WAT      O62926   9.377   8.129   9.881
20895WAT     H162927   9.285   8.105   9.912
20895WAT     H262928   9.410   8.207   9.933
20896WAT      O62929   0.665   8.788   4.399
20896WAT     H162930   0.674   8.887   4.390
20896WAT     H262931   0.640   8.749   4.310
20897WAT      O62932   1.524   0.322   8.576
20897WAT     H162933   1.594   0.265   8.533
20897WAT     H262934   1.453   0.264   8.616
20898WAT      O62935   8.490   9.063   6.786
20898WAT     H162936   8.506   9.054   6.884
20898WAT     H262937   8.500   9.160   6.760
20899WAT      O62938   7.970   3.754   2.319
20899WAT     H162939   7.905   3.789   2.253
20899WAT     H262940   7.979   3.655   2.308
20900WAT      O62941   1.906   2.054   2.700
20900WAT     H162942   1.857   2.039   2.614
20900WAT     H262943   1.918   2.152   2.714
20901WAT      O62944   9.412   4.363   7.223
20901WAT     H162945   9.379   4.339   7.315
20901WAT     H262946   9.399   4.285   7.162
20902WAT      O62947   2.091   4.955   6.938
20902WAT     H162948   2.189   4.960   6.957
20902WAT     H262949   2.059   5.043   6.906
20903WAT      O62950   7.212   7.494   1.898
20903WAT     H162951   7.144   7.566   1.914
20903WAT     H262952   7.210   7.466   1.802
20904WAT      O62953   6.997   8.340   0.905
20904WAT     H162954   6.994   8.253   0.955
20904WAT     H262955   7.070   8.397   0.941
20905WAT      O62956   5.773   0.005   8.553
20905WAT     H162957   5.794   0.031   8.647
20905WAT     H262958   5.728  -0.085   8.552
20906WAT      O62959   6.652   3.721   7.345
20906WAT     H162960   6.651   3.799   7.408
20906WAT     H262961   6.666   3.636   7.397
20907WAT      O62962   9.375   7.101   0.032
20907WAT     H162963   9.469   7.134   0.026
20907WAT     H262964   9.350   7.056  -0.054
20908WAT      O62965   7.004   8.744   5.683
20908WAT     H162966   7.083   8.707   5.636
20908WAT     H262967   6.959   8.671   5.735
20909WAT      O62968   3.669   6.373   3.677
20909WAT     H162969   3.696   6.468   3.686
20909WAT     H262970   3.724   6.328   3.607
20910WAT      O62971   7.518   2.558   8.843
20910WAT     H162972   7.511   2.571   8.942
20910WAT     H262973   7.545   2.464   8.823
20911WAT      O62974   6.575   0.074   1.283
20911WAT     H162975   6.516   0.152   1.260
20911WAT     H262976   6.593   0.075   1.382
20912WAT      O62977   3.040   2.602   9.684
20912WAT     H162978   2.957   2.637   9.727
20912WAT     H262979   3.108   2.675   9.676
20913WAT      O62980   1.119   0.713   9.027
20913WAT     H162981   1.028   0.731   9.064
20913WAT     H262982   1.111   0.661   8.942
20914WAT      O62983   5.700   7.982   7.267
20914WAT     H162984   5.763   7.937   7.204
20914WAT     H262985   5.681   8.075   7.235
20915WAT      O62986   2.630   2.712   0.096
20915WAT     H162987   2.699   2.639   0.100
20915WAT     H262988   2.613   2.748   0.187
20916WAT      O62989   3.786   8.965   1.216
20916WAT     H162990   3.847   8.887   1.201
20916WAT     H262991   3.795   8.996   1.311
20917WAT      O62992   8.416   2.912   2.188
20917WAT     H162993   8.350   2.962   2.245
20917WAT     H262994   8.409   2.943   2.094
20918WAT      O62995   0.739   4.450   7.990
20918WAT     H162996   0.810   4.520   7.981
20918WAT     H262997   0.657   4.480   7.942
20919WAT      O62998   0.281   4.331   7.807
20919WAT     H162999   0.278   4.246   7.859
20919WAT     H263000   0.272   4.311   7.709
20920WAT      O63001   9.170   7.244   9.173
20920WAT     H163002   9.259   7.237   9.217
20920WAT     H263003   9.176   7.209   9.079
20921WAT      O63004   3.369   8.203   1.532
20921WAT     H163005   3.379   8.205   1.432
20921WAT     H263006   3.273   8.219   1.556
20922WAT      O63007   4.276   9.750   3.425
20922WAT     H163008   4.307   9.659   3.454
20922WAT     H263009   4.199   9.740   3.362
20923WAT      O63010   1.307   4.059   4.626
20923WAT     H163011   1.362   3.990   4.577
20923WAT     H263012   1.242   4.013   4.687
20924WAT      O63013   1.650   7.436   7.163
20924WAT     H163014   1.668   7.447   7.260
20924WAT     H263015   1.552   7.442   7.146
20925WAT      O63016   2.061   2.738   7.744
20925WAT     H163017   2.124   2.814   7.762
20925WAT     H263018   2.075   2.667   7.813
20926WAT      O63019   2.152   3.082   6.528
20926WAT     H163020   2.199   3.165   6.558
20926WAT     H263021   2.124   3.029   6.607
20927WAT      O63022   4.074   6.734   1.835
20927WAT     H163023   4.153   6.783   1.871
20927WAT     H263024   4.082   6.726   1.735
20928WAT      O63025   1.218   0.885   3.947
20928WAT     H163026   1.295   0.908   3.888
20928WAT     H263027   1.248   0.887   4.043
20929WAT      O63028   2.469   8.287   5.151
20929WAT     H163029   2.425   8.353   5.211
20929WAT     H263030   2.475   8.199   5.198
20930WAT      O63031   3.674   2.831   0.161
20930WAT     H163032   3.689   2.734   0.180
20930WAT     H263033   3.762   2.878   0.151
20931WAT      O63034   7.190   8.855   8.863
20931WAT     H163035   7.123   8.820   8.797
20931WAT     H263036   7.164   8.947   8.890
20932WAT      O63037   0.092   2.301   5.197
20932WAT     H163038   0.116   2.338   5.287
20932WAT     H263039   0.078   2.377   5.133
20933WAT      O63040   3.993   7.324   5.368
20933WAT     H163041   3.995   7.319   5.268
20933WAT     H263042   4.043   7.245   5.405
20934WAT      O63043   0.098   7.327   5.030
20934WAT     H163044   0.045   7.274   4.964
20934WAT     H263045   0.136   7.408   4.986
20935WAT      O63046   1.024   3.842   5.312
20935WAT     H163047   1.114   3.885   5.323
20935WAT     H263048   0.981   3.834   5.402
20936WAT      O63049   3.166   2.405   8.647
20936WAT     H163050   3.227   2.339   8.692
20936WAT     H263051   3.082   2.413   8.699
20937WAT      O63052   3.587   8.344   1.246
20937WAT     H163053   3.502   8.292   1.253
20937WAT     H263054   3.565   8.439   1.221
20938WAT      O63055   4.535   3.947   7.739
20938WAT     H163056   4.553   3.931   7.836
20938WAT     H263057   4.613   3.993   7.698
20939WAT      O63058   9.246   2.663   7.411
20939WAT     H163059   9.165   2.657   7.354
20939WAT     H263060   9.328   2.660   7.354
20940WAT      O63061   8.308   3.183   3.737
20940WAT     H163062   8.344   3.267   3.697
20940WAT     H263063   8.342   3.104   3.685
20941WAT      O63064   7.531   7.903   4.204
20941WAT     H163065   7.462   7.852   4.154
20941WAT     H263066   7.506   7.908   4.301
20942WAT      O63067   8.289   6.745   8.242
20942WAT     H163068   8.367   6.737   8.304
20942WAT     H263069   8.213   6.789   8.289
20943WAT      O63070   8.553   0.438   1.001
20943WAT     H163071   8.457   0.411   0.991
20943WAT     H263072   8.611   0.363   0.970
20944WAT      O63073   4.837   3.563   5.646
20944WAT     H163074   4.762   3.511   5.686
20944WAT     H263075   4.887   3.611   5.719
20945WAT      O63076   5.878   6.330   7.983
20945WAT     H163077   5.925   6.411   8.018
20945WAT     H263078   5.808   6.357   7.917
20946WAT      O63079   4.509   1.922   7.753
20946WAT     H163080   4.427   1.889   7.800
20946WAT     H263081   4.485   2.003   7.699
20947WAT      O63082   9.292   8.117   0.347
20947WAT     H163083   9.237   8.139   0.266
20947WAT     H263084   9.232   8.103   0.426
20948WAT      O63085   2.366   2.312   5.348
20948WAT     H163086   2.448   2.268   5.383
20948WAT     H263087   2.328   2.258   5.272
20949WAT      O63088   9.174   5.804   3.042
20949WAT     H163089   9.135   5.879   2.988
20949WAT     H263090   9.100   5.755   3.088
20950WAT      O63091   9.156   7.118   6.066
20950WAT     H163092   9.088   7.120   5.993
20950WAT     H263093   9.224   7.189   6.050
20951WAT      O63094   3.111   6.448   9.486
20951WAT     H163095   3.161   6.363   9.475
20951WAT     H263096   3.025   6.430   9.534
20952WAT      O63097   8.070   2.025   5.388
20952WAT     H163098   7.996   2.034   5.321
20952WAT     H263099   8.137   2.098   5.372
20953WAT      O63100   3.239   6.707   0.071
20953WAT     H163101   3.253   6.660   0.158
20953WAT     H263102   3.313   6.683   0.008
20954WAT      O63103   0.788   8.846   1.346
20954WAT     H163104   0.713   8.836   1.280
20954WAT     H263105   0.758   8.816   1.436
20955WAT      O63106   5.801   1.427   6.854
20955WAT     H163107   5.880   1.390   6.903
20955WAT     H263108   5.741   1.352   6.826
20956WAT      O63109   1.993   6.164   0.042
20956WAT     H163110   2.090   6.156   0.018
20956WAT     H263111   1.968   6.090   0.105
20957WAT      O63112   7.807   8.115   7.042
20957WAT     H163113   7.846   8.079   7.126
20957WAT     H263114   7.785   8.039   6.981
20958WAT      O63115   2.837   5.611   4.079
20958WAT     H163116   2.812   5.631   3.985
20958WAT     H263117   2.873   5.518   4.086
20959WAT      O63118   0.074   4.951   5.809
20959WAT     H163119   0.154   5.001   5.775
20959WAT     H263120   0.073   4.859   5.771
20960WAT      O63121   4.327   0.422   0.861
20960WAT     H163122   4.376   0.336   0.847
20960WAT     H263123   4.242   0.420   0.808
20961WAT      O63124   3.413   9.051   4.951
20961WAT     H163125   3.441   8.956   4.949
20961WAT     H263126   3.486   9.107   4.990
20962WAT      O63127   9.872   2.378   9.018
20962WAT     H163128   9.854   2.323   9.100
20962WAT     H263129   9.954   2.343   8.972
20963WAT      O63130   4.000   8.973   3.518
20963WAT     H163131   4.080   8.980   3.578
20963WAT     H263132   3.978   8.877   3.503
20964WAT      O63133   8.555   4.173   6.112
20964WAT     H163134   8.511   4.134   6.193
20964WAT     H263135   8.507   4.256   6.085
20965WAT      O63136   4.134   1.606   8.256
20965WAT     H163137   4.121   1.687   8.199
20965WAT     H263138   4.219   1.614   8.307
20966WAT      O63139   0.557   4.416   9.813
20966WAT     H163140   0.608   4.462   9.741
20966WAT     H263141   0.550   4.319   9.793
20967WAT      O63142   4.436   3.238   8.739
20967WAT     H163143   4.356   3.203   8.788
20967WAT     H263144   4.502   3.275   8.805
20968WAT      O63145   8.121   8.157   9.219
20968WAT     H163146   8.085   8.078   9.170
20968WAT     H263147   8.206   8.187   9.176
20969WAT      O63148   4.647   0.687   1.739
20969WAT     H163149   4.668   0.780   1.767
20969WAT     H263150   4.681   0.623   1.807
20970WAT      O63151   9.185   9.003   9.064
20970WAT     H163152   9.223   8.998   8.971
20970WAT     H263153   9.111   8.937   9.073
20971WAT      O63154   3.739   7.281   8.432
20971WAT     H163155   3.800   7.301   8.356
20971WAT     H263156   3.646   7.309   8.409
20972WAT      O63157   3.859   0.139   4.275
20972WAT     H163158   3.862   0.192   4.360
20972WAT     H263159   3.823   0.196   4.202
20973WAT      O63160   1.159   8.866   6.983
20973WAT     H163161   1.147   8.819   6.895
20973WAT     H263162   1.070   8.892   7.019
20974WAT      O63163   7.756   5.623   3.554
20974WAT     H163164   7.852   5.636   3.580
20974WAT     H263165   7.723   5.536   3.591
20975WAT      O63166   5.422   9.184   3.387
20975WAT     H163167   5.459   9.276   3.396
20975WAT     H263168   5.360   9.180   3.308
20976WAT      O63169   3.347   5.801   0.171
20976WAT     H163170   3.373   5.809   0.267
20976WAT     H263171   3.429   5.782   0.116
20977WAT      O63172   2.554   2.184   9.311
20977WAT     H163173   2.524   2.124   9.238
20977WAT     H263174   2.481   2.192   9.380
20978WAT      O63175   4.208   6.721   5.700
20978WAT     H163176   4.168   6.685   5.784
20978WAT     H263177   4.242   6.646   5.644
20979WAT      O63178   1.455   9.760   9.682
20979WAT     H163179   1.388   9.834   9.673
20979WAT     H263180   1.409   9.678   9.718
20980WAT      O63181   8.590   2.602   5.525
20980WAT     H163182   8.526   2.581   5.599
20980WAT     H263183   8.655   2.672   5.556
20981WAT      O63184   6.856   9.706   1.785
20981WAT     H163185   6.934   9.692   1.845
20981WAT     H263186   6.802   9.622   1.779
20982WAT      O63187   1.030   2.205   5.519
20982WAT     H163188   0.997   2.175   5.608
20982WAT     H263189   1.110   2.151   5.493
20983WAT      O63190   6.545   5.242   8.162
20983WAT     H163191   6.536   5.331   8.118
20983WAT     H263192   6.472   5.182   8.131
20984WAT      O63193   3.573   6.047   2.335
20984WAT     H163194   3.512   6.125   2.347
20984WAT     H263195   3.610   6.047   2.242
20985WAT      O63196   6.789   8.907   6.303
20985WAT     H163197   6.769   8.832   6.366
20985WAT     H263198   6.878   8.892   6.260
20986WAT      O63199   6.138   7.634   6.982
20986WAT     H163200   6.191   7.564   6.933
20986WAT     H263201   6.152   7.723   6.940
20987WAT      O63202   3.237   0.607   3.637
20987WAT     H163203   3.274   0.679   3.578
20987WAT     H263204   3.192   0.649   3.716
20988WAT      O63205   1.704   1.031   7.483
20988WAT     H163206   1.624   1.002   7.430
20988WAT     H263207   1.747   1.109   7.438
20989WAT      O63208   4.078   4.317   6.938
20989WAT     H163209   4.022   4.293   7.017
20989WAT     H263210   4.064   4.250   6.865
20990WAT      O63211   0.566   3.358   8.730
20990WAT     H163212   0.481   3.347   8.782
20990WAT     H263213   0.554   3.321   8.638
20991WAT      O63214   1.591   0.111   1.506
20991WAT     H163215   1.562   0.205   1.526
20991WAT     H263216   1.585   0.094   1.408
20992WAT      O63217   7.067   3.157   3.878
20992WAT     H163218   7.128   3.154   3.958
20992WAT     H263219   7.076   3.246   3.834
20993WAT      O63220   2.991   1.644   0.318
20993WAT     H163221   3.070   1.685   0.273
20993WAT     H263222   2.991   1.670   0.415
20994WAT      O63223   2.918   3.996   5.265
20994WAT     H163224   2.851   3.962   5.200
20994WAT     H263225   2.912   4.095   5.272
20995WAT      O63226   2.878   7.672   8.191
20995WAT     H163227   2.837   7.624   8.114
20995WAT     H263228   2.908   7.606   8.260
20996WAT      O63229   7.048   7.867   6.450
20996WAT     H163230   7.072   7.827   6.361
20996WAT     H263231   7.063   7.966   6.447
20997WAT      O63232   9.728   9.181   7.417
20997WAT     H163233   9.657   9.245   7.445
20997WAT     H263234   9.783   9.155   7.496
20998WAT      O63235   2.655   4.758   4.843
20998WAT     H163236   2.571   4.802   4.878
20998WAT     H263237   2.715   4.736   4.920
20999WAT      O63238   4.767   6.221   1.370
20999WAT     H163239   4.831   6.174   1.309
20999WAT     H263240   4.675   6.187   1.354
21000WAT      O63241   3.982   3.541   6.874
21000WAT     H163242   3.944   3.558   6.965
21000WAT     H263243   4.004   3.628   6.831
21001WAT      O63244   2.007   3.647   6.980
21001WAT     H163245   1.978   3.680   6.890
21001WAT     H263246   1.926   3.624   7.034
21002WAT      O63247   2.571   9.433   9.354
21002WAT     H163248   2.611   9.522   9.332
21002WAT     H263249   2.560   9.424   9.453
21003WAT      O63250   6.793   9.617   2.825
21003WAT     H163251   6.811   9.624   2.923
21003WAT     H263252   6.696   9.630   2.808
21004WAT      O63253   1.256   1.369   4.999
21004WAT     H163254   1.350   1.388   4.972
21004WAT     H263255   1.193   1.404   4.930
21005WAT      O63256   2.901   9.293   0.915
21005WAT     H163257   2.808   9.324   0.895
21005WAT     H263258   2.926   9.219   0.853
21006WAT      O63259   2.558   0.762   2.298
21006WAT     H163260   2.617   0.780   2.219
21006WAT     H263261   2.482   0.704   2.270
21007WAT      O63262   8.063   1.928   6.331
21007WAT     H163263   8.009   1.887   6.405
21007WAT     H263264   8.159   1.931   6.357
21008WAT      O63265   9.611   0.899   3.621
21008WAT     H163266   9.559   0.941   3.696
21008WAT     H263267   9.559   0.823   3.584
21009WAT      O63268   5.866   1.831   7.728
21009WAT     H163269   5.857   1.809   7.825
21009WAT     H263270   5.920   1.915   7.718
21010WAT      O63271   5.435   0.930   6.656
21010WAT     H163272   5.338   0.920   6.632
21010WAT     H263273   5.486   0.851   6.622
21011WAT      O63274   2.445   8.853   3.352
21011WAT     H163275   2.451   8.947   3.321
21011WAT     H263276   2.376   8.804   3.298
21012WAT      O63277   3.777   0.340   0.196
21012WAT     H163278   3.726   0.363   0.113
21012WAT     H263279   3.875   0.339   0.177
21013WAT      O63280   5.323   0.937   5.290
21013WAT     H163281   5.362   0.852   5.256
21013WAT     H263282   5.232   0.951   5.249
21014WAT      O63283   0.725   4.354   5.937
21014WAT     H163284   0.793   4.288   5.968
21014WAT     H263285   0.648   4.355   6.001
21015WAT      O63286   1.588   0.268   7.117
21015WAT     H163287   1.600   0.307   7.208
21015WAT     H263288   1.511   0.204   7.118
21016WAT      O63289   5.516   8.494   8.398
21016WAT     H163290   5.466   8.446   8.471
21016WAT     H263291   5.457   8.502   8.318
21017WAT      O63292   9.114   3.212   0.542
21017WAT     H163293   9.163   3.276   0.601
21017WAT     H263294   9.016   3.228   0.549
21018WAT      O63295   4.325   2.795   0.278
21018WAT     H163296   4.423   2.795   0.300
21018WAT     H263297   4.290   2.889   0.282
21019WAT      O63298   1.904   6.179   3.043
21019WAT     H163299   1.805   6.169   3.030
21019WAT     H263300   1.933   6.126   3.123
21020WAT      O63301   4.922   2.336   5.001
21020WAT     H163302   4.926   2.261   4.935
21020WAT     H263303   4.989   2.406   4.976
21021WAT      O63304   4.539   1.436   3.534
21021WAT     H163305   4.488   1.497   3.473
21021WAT     H263306   4.491   1.348   3.540
21022WAT      O63307   4.796   1.722   8.589
21022WAT     H163308   4.830   1.775   8.666
21022WAT     H263309   4.839   1.632   8.589
21023WAT      O63310   3.521   4.262   7.677
21023WAT     H163311   3.463   4.343   7.690
21023WAT     H263312   3.465   4.180   7.683
21024WAT      O63313   8.333   7.280   7.611
21024WAT     H163314   8.339   7.331   7.696
21024WAT     H263315   8.386   7.327   7.540
21025WAT      O63316   8.297   9.615   0.107
21025WAT     H163317   8.253   9.592   0.021
21025WAT     H263318   8.229   9.622   0.180
21026WAT      O63319   3.144   1.541   9.757
21026WAT     H163320   3.220   1.562   9.819
21026WAT     H263321   3.073   1.491   9.806
21027WAT      O63322   2.916   9.421   2.746
21027WAT     H163323   2.956   9.490   2.686
21027WAT     H263324   2.917   9.454   2.841
21028WAT      O63325   8.706   5.178   2.397
21028WAT     H163326   8.789   5.125   2.381
21028WAT     H263327   8.676   5.221   2.311
21029WAT      O63328   9.736   2.997   7.751
21029WAT     H163329   9.785   2.977   7.836
21029WAT     H263330   9.645   3.031   7.772
21030WAT      O63331   1.599   0.823   0.756
21030WAT     H163332   1.638   0.863   0.839
21030WAT     H263333   1.667   0.824   0.684
21031WAT      O63334   1.127   4.863   2.555
21031WAT     H163335   1.217   4.906   2.557
21031WAT     H263336   1.063   4.917   2.611
21032WAT      O63337   3.407   4.496   9.377
21032WAT     H163338   3.326   4.546   9.345
21032WAT     H263339   3.417   4.412   9.325
21033WAT      O63340   6.308   0.156   5.830
21033WAT     H163341   6.245   0.086   5.794
21033WAT     H263342   6.281   0.179   5.924
21034WAT      O63343   8.445   8.508   6.701
21034WAT     H163344   8.391   8.581   6.660
21034WAT     H263345   8.436   8.425   6.645
21035WAT      O63346   7.039   4.882   4.708
21035WAT     H163347   7.045   4.980   4.722
21035WAT     H263348   6.950   4.849   4.741
21036WAT      O63349   7.373   4.461   3.056
21036WAT     H163350   7.313   4.497   2.984
21036WAT     H263351   7.366   4.519   3.137
21037WAT      O63352   3.067   5.394   3.572
21037WAT     H163353   3.124   5.456   3.626
21037WAT     H263354   3.093   5.399   3.476
21038WAT      O63355   7.513   4.571   0.803
21038WAT     H163356   7.469   4.494   0.850
21038WAT     H263357   7.558   4.538   0.720
21039WAT      O63358   4.141   9.645   8.825
21039WAT     H163359   4.048   9.610   8.815
21039WAT     H263360   4.193   9.627   8.742
21040WAT      O63361   0.347   4.028   4.834
21040WAT     H163362   0.250   4.012   4.850
21040WAT     H263363   0.378   3.969   4.759
21041WAT      O63364   3.572   0.894   0.872
21041WAT     H163365   3.526   0.910   0.960
21041WAT     H263366   3.534   0.812   0.829
21042WAT      O63367   9.469   7.882   8.548
21042WAT     H163368   9.384   7.935   8.549
21042WAT     H263369   9.507   7.880   8.640
21043WAT      O63370   5.461   5.566   1.805
21043WAT     H163371   5.506   5.649   1.774
21043WAT     H263372   5.505   5.487   1.762
21044WAT      O63373   0.425   1.336   1.135
21044WAT     H163374   0.390   1.255   1.087
21044WAT     H263375   0.374   1.349   1.219
21045WAT      O63376   7.335   9.065   2.730
21045WAT     H163377   7.276   9.061   2.811
21045WAT     H263378   7.329   9.157   2.690
21046WAT      O63379   9.737   1.299   7.211
21046WAT     H163380   9.772   1.391   7.229
21046WAT     H263381   9.653   1.284   7.262
21047WAT      O63382   9.044   6.189   7.972
21047WAT     H163383   9.097   6.177   7.889
21047WAT     H263384   9.018   6.285   7.981
21048WAT      O63385   5.539   8.272   3.229
21048WAT     H163386   5.632   8.237   3.240
21048WAT     H263387   5.539   8.371   3.240
21049WAT      O63388   6.021   2.305   6.888
21049WAT     H163389   6.032   2.365   6.808
21049WAT     H263390   5.996   2.360   6.968
21050WAT      O63391   7.006   6.745   8.668
21050WAT     H163392   7.006   6.819   8.600
21050WAT     H263393   7.098   6.706   8.675
21051WAT      O63394   0.640   9.047   4.333
21051WAT     H163395   0.541   9.062   4.339
21051WAT     H263396   0.687   9.107   4.397
21052WAT      O63397   3.541   5.496   3.285
21052WAT     H163398   3.535   5.412   3.338
21052WAT     H263399   3.598   5.480   3.204
21053WAT      O63400   8.537   4.190   0.756
21053WAT     H163401   8.593   4.132   0.816
21053WAT     H263402   8.452   4.142   0.734
21054WAT      O63403   6.825   6.064   2.820
21054WAT     H163404   6.770   5.996   2.869
21054WAT     H263405   6.920   6.035   2.818
21055WAT      O63406   2.142   4.470   7.283
21055WAT     H163407   2.217   4.444   7.222
21055WAT     H263408   2.084   4.390   7.300
21056WAT      O63409   5.401   1.075   7.479
21056WAT     H163410   5.367   1.143   7.415
21056WAT     H263411   5.472   1.116   7.537
21057WAT      O63412   4.287   0.976   2.648
21057WAT     H163413   4.336   1.048   2.597
21057WAT     H263414   4.257   0.905   2.585
21058WAT      O63415   1.123   3.427   5.768
21058WAT     H163416   1.131   3.521   5.735
21058WAT     H263417   1.032   3.391   5.745
21059WAT      O63418   7.811   4.667   8.263
21059WAT     H163419   7.743   4.727   8.306
21059WAT     H263420   7.768   4.611   8.193
21060WAT      O63421   8.777   2.781   6.589
21060WAT     H163422   8.795   2.683   6.592
21060WAT     H263423   8.698   2.801   6.648
21061WAT      O63424   5.080   6.225   5.593
21061WAT     H163425   5.098   6.241   5.496
21061WAT     H263426   5.018   6.295   5.628
21062WAT      O63427   0.632   8.464   4.620
21062WAT     H163428   0.535   8.489   4.618
21062WAT     H263429   0.655   8.429   4.711
21063WAT      O63430   2.988   7.009   5.549
21063WAT     H163431   2.896   7.047   5.556
21063WAT     H263432   2.989   6.916   5.584
21064WAT      O63433   8.144   1.656   5.306
21064WAT     H163434   8.094   1.698   5.229
21064WAT     H263435   8.080   1.635   5.380
21065WAT      O63436   9.003   9.526   1.303
21065WAT     H163437   9.076   9.560   1.362
21065WAT     H263438   9.033   9.444   1.255
21066WAT      O63439   8.186   7.269   5.193
21066WAT     H163440   8.178   7.332   5.271
21066WAT     H263441   8.095   7.236   5.169
21067WAT      O63442   1.825   9.819   0.613
21067WAT     H163443   1.898   9.768   0.568
21067WAT     H263444   1.860   9.907   0.644
21068WAT      O63445   6.617   2.863   9.847
21068WAT     H163446   6.539   2.857   9.786
21068WAT     H263447   6.686   2.923   9.807
21069WAT      O63448   3.740   9.085   9.453
21069WAT     H163449   3.664   9.034   9.413
21069WAT     H263450   3.724   9.183   9.441
21070WAT      O63451   4.133   7.986   8.338
21070WAT     H163452   4.124   7.976   8.437
21070WAT     H263453   4.100   8.076   8.311
21071WAT      O63454   2.342   2.412   0.585
21071WAT     H163455   2.355   2.448   0.677
21071WAT     H263456   2.382   2.475   0.519
21072WAT      O63457   5.758   7.950   2.223
21072WAT     H163458   5.768   8.008   2.304
21072WAT     H263459   5.662   7.946   2.197
21073WAT      O63460   3.088   4.148   3.111
21073WAT     H163461   3.001   4.105   3.089
21073WAT     H263462   3.079   4.247   3.102
21074WAT      O63463   7.835   4.915   2.914
21074WAT     H163464   7.775   4.995   2.921
21074WAT     H263465   7.834   4.865   3.001
21075WAT      O63466   3.596   8.026   3.691
21075WAT     H163467   3.684   8.006   3.735
21075WAT     H263468   3.523   7.982   3.743
21076WAT      O63469   8.700   2.682   2.909
21076WAT     H163470   8.795   2.692   2.882
21076WAT     H263471   8.655   2.615   2.850
21077WAT      O63472   0.611   6.366   8.283
21077WAT     H163473   0.623   6.271   8.255
21077WAT     H263474   0.588   6.370   8.380
21078WAT      O63475   3.991   8.708   7.654
21078WAT     H163476   4.014   8.616   7.686
21078WAT     H263477   3.909   8.704   7.597
21079WAT      O63478   7.139   4.888   5.341
21079WAT     H163479   7.042   4.896   5.363
21079WAT     H263480   7.162   4.792   5.324
21080WAT      O63481   8.684   8.488   2.653
21080WAT     H163482   8.775   8.457   2.680
21080WAT     H263483   8.642   8.541   2.727
21081WAT      O63484   5.126   6.322   1.762
21081WAT     H163485   5.088   6.309   1.670
21081WAT     H263486   5.223   6.346   1.755
21082WAT      O63487   9.744   8.369   9.621
21082WAT     H163488   9.679   8.323   9.682
21082WAT     H263489   9.744   8.324   9.532
21083WAT      O63490   4.987   6.226   4.075
21083WAT     H163491   4.967   6.212   4.172
21083WAT     H263492   5.061   6.293   4.065
21084WAT      O63493   8.342   2.485   1.089
21084WAT     H163494   8.269   2.547   1.115
21084WAT     H263495   8.319   2.392   1.118
21085WAT      O63496   3.547   8.137   9.484
21085WAT     H163497   3.570   8.084   9.566
21085WAT     H263498   3.462   8.186   9.500
21086WAT      O63499   3.279   4.972   9.816
21086WAT     H163500   3.377   4.962   9.804
21086WAT     H263501   3.231   4.923   9.743
21087WAT      O63502   7.979   7.531   7.050
21087WAT     H163503   8.015   7.453   7.102
21087WAT     H263504   8.037   7.611   7.066
21088WAT      O63505   8.716   4.997   1.327
21088WAT     H163506   8.698   4.909   1.370
21088WAT     H263507   8.812   5.022   1.343
21089WAT      O63508   6.794   7.218   9.756
21089WAT     H163509   6.728   7.205   9.830
21089WAT     H263510   6.846   7.302   9.773
21090WAT      O63511   0.567   4.252   5.610
21090WAT     H163512   0.628   4.314   5.660
21090WAT     H263513   0.553   4.169   5.663
21091WAT      O63514   1.063   6.262   7.800
21091WAT     H163515   1.000   6.286   7.874
21091WAT     H263516   1.157   6.266   7.834
21092WAT      O63517   9.559   1.628   0.638
21092WAT     H163518   9.620   1.549   0.647
21092WAT     H263519   9.613   1.710   0.618
21093WAT      O63520   6.308   4.571   3.644
21093WAT     H163521   6.241   4.500   3.666
21093WAT     H263522   6.261   4.655   3.619
21094WAT      O63523   6.973   6.609   0.890
21094WAT     H163524   7.021   6.694   0.908
21094WAT     H263525   6.887   6.628   0.843
21095WAT      O63526   0.940   4.306   0.077
21095WAT     H163527   0.969   4.401   0.068
21095WAT     H263528   0.857   4.302   0.133
21096WAT      O63529   3.694   8.932   8.305
21096WAT     H163530   3.677   9.030   8.314
21096WAT     H263531   3.720   8.894   8.394
21097WAT      O63532   8.163   0.734   3.318
21097WAT     H163533   8.097   0.690   3.379
21097WAT     H263534   8.224   0.665   3.279
21098WAT      O63535   6.914   0.361   2.895
21098WAT     H163536   6.918   0.390   2.991
21098WAT     H263537   7.006   0.342   2.862
21099WAT      O63538   3.795   5.668   8.740
21099WAT     H163539   3.887   5.706   8.747
21099WAT     H263540   3.799   5.578   8.696
21100WAT      O63541   0.315   8.438   8.519
21100WAT     H163542   0.369   8.496   8.458
21100WAT     H263543   0.222   8.474   8.526
21101WAT      O63544   5.081   4.355   0.119
21101WAT     H163545   4.989   4.377   0.151
21101WAT     H263546   5.148   4.389   0.186
21102WAT      O63547   5.690   6.683   8.080
21102WAT     H163548   5.607   6.632   8.106
21102WAT     H263549   5.723   6.734   8.159
21103WAT      O63550   0.324   6.700   9.612
21103WAT     H163551   0.416   6.716   9.647
21103WAT     H263552   0.301   6.772   9.547
21104WAT      O63553   1.570   8.241   0.702
21104WAT     H163554   1.496   8.181   0.673
21104WAT     H263555   1.655   8.188   0.710
21105WAT      O63556   0.713   0.166   7.746
21105WAT     H163557   0.645   0.121   7.804
21105WAT     H263558   0.800   0.117   7.753
21106WAT      O63559   7.440   1.638   3.166
21106WAT     H163560   7.525   1.589   3.186
21106WAT     H263561   7.362   1.576   3.175
21107WAT      O63562   0.278   9.741   7.384
21107WAT     H163563   0.369   9.712   7.415
21107WAT     H263564   0.280   9.757   7.286
21108WAT      O63565   4.823   3.531   0.046
21108WAT     H163566   4.733   3.507   0.082
21108WAT     H263567   4.868   3.594   0.109
21109WAT      O63568   9.594   9.394   5.506
21109WAT     H163569   9.502   9.416   5.473
21109WAT     H263570   9.603   9.422   5.601
21110WAT      O63571   7.020   0.017   8.907
21110WAT     H163572   6.990   0.100   8.859
21110WAT     H263573   6.948  -0.053   8.901
21111WAT      O63574   8.030   9.399   6.068
21111WAT     H163575   8.061   9.361   6.155
21111WAT     H263576   8.106   9.447   6.023
21112WAT      O63577   7.546   0.565   8.231
21112WAT     H163578   7.575   0.487   8.286
21112WAT     H263579   7.555   0.543   8.134
21113WAT      O63580   4.690   2.739   0.116
21113WAT     H163581   4.674   2.649   0.074
21113WAT     H263582   4.719   2.726   0.211
21114WAT      O63583   7.040   1.813   2.572
21114WAT     H163584   6.991   1.781   2.653
21114WAT     H263585   6.993   1.892   2.533
21115WAT      O63586   8.912   4.613   5.685
21115WAT     H163587   9.011   4.609   5.672
21115WAT     H263588   8.868   4.638   5.599
21116WAT      O63589   8.282   6.914   2.489
21116WAT     H163590   8.216   6.989   2.491
21116WAT     H263591   8.374   6.951   2.475
21117WAT      O63592   2.981   9.724   8.463
21117WAT     H163593   2.953   9.630   8.485
21117WAT     H263594   2.900   9.782   8.456
21118WAT      O63595   6.775   2.690   9.348
21118WAT     H163596   6.701   2.753   9.370
21118WAT     H263597   6.863   2.736   9.361
21119WAT      O63598   5.626   0.674   5.720
21119WAT     H163599   5.681   0.700   5.641
21119WAT     H263600   5.588   0.583   5.706
21120WAT      O63601   8.540   1.546   5.350
21120WAT     H163602   8.480   1.607   5.401
21120WAT     H263603   8.486   1.488   5.289
21121WAT      O63604   9.096   0.320   6.175
21121WAT     H163605   9.022   0.306   6.240
21121WAT     H263606   9.152   0.398   6.205
21122WAT      O63607   4.428   9.638   9.050
21122WAT     H163608   4.460   9.614   9.142
21122WAT     H263609   4.404   9.734   9.047
21123WAT      O63610   8.908   9.001   7.701
21123WAT     H163611   8.900   8.902   7.699
21123WAT     H263612   8.968   9.028   7.776
21124WAT      O63613   3.644   6.531   3.116
21124WAT     H163614   3.695   6.510   3.199
21124WAT     H263615   3.646   6.630   3.100
21125WAT      O63616   7.628   9.780   7.327
21125WAT     H163617   7.537   9.766   7.290
21125WAT     H263618   7.675   9.692   7.335
21126WAT      O63619   0.511   1.946   2.541
21126WAT     H163620   0.574   1.936   2.465
21126WAT     H263621   0.471   1.857   2.564
21127WAT      O63622   6.512   3.457   3.134
21127WAT     H163623   6.442   3.391   3.160
21127WAT     H263624   6.496   3.543   3.183
21128WAT      O63625   4.362   6.500   2.385
21128WAT     H163626   4.276   6.504   2.335
21128WAT     H263627   4.394   6.593   2.404
21129WAT      O63628   8.294   8.707   9.084
21129WAT     H163629   8.245   8.698   8.997
21129WAT     H263630   8.238   8.760   9.148
21130WAT      O63631   3.896   0.892   4.352
21130WAT     H163632   3.937   0.806   4.320
21130WAT     H263633   3.836   0.874   4.429
21131WAT      O63634   4.390   1.472   6.213
21131WAT     H163635   4.369   1.503   6.121
21131WAT     H263636   4.305   1.451   6.261
21132WAT      O63637   1.364   4.340   1.181
21132WAT     H163638   1.416   4.420   1.210
21132WAT     H263639   1.379   4.324   1.083
21133WAT      O63640   2.754   9.614   4.328
21133WAT     H163641   2.678   9.550   4.323
21133WAT     H263642   2.767   9.658   4.239
21134WAT      O63643   2.141   9.003   1.701
21134WAT     H163644   2.096   9.058   1.770
21134WAT     H263645   2.158   9.058   1.619
21135WAT      O63646   6.529   1.131   7.914
21135WAT     H163647   6.488   1.041   7.900
21135WAT     H263648   6.627   1.126   7.895
21136WAT      O63649   4.633   1.707   6.392
21136WAT     H163650   4.679   1.622   6.416
21136WAT     H263651   4.699   1.768   6.348
21137WAT      O63652   0.111   9.039   6.646
21137WAT     H163653   0.091   8.946   6.677
21137WAT     H263654   0.086   9.049   6.550
21138WAT      O63655   6.411   7.934   9.129
21138WAT     H163656   6.383   7.935   9.225
21138WAT     H263657   6.510   7.921   9.123
21139WAT      O63658   0.736   7.663   8.127
21139WAT     H163659   0.827   7.658   8.168
21139WAT     H263660   0.668   7.635   8.195
21140WAT      O63661   0.347   5.194   1.234
21140WAT     H163662   0.254   5.198   1.198
21140WAT     H263663   0.345   5.208   1.333
21141WAT      O63664   4.362   6.731   3.356
21141WAT     H163665   4.351   6.788   3.438
21141WAT     H263666   4.367   6.790   3.275
21142WAT      O63667   1.823   2.402   8.322
21142WAT     H163668   1.724   2.389   8.312
21142WAT     H263669   1.852   2.365   8.410
21143WAT      O63670   6.012   7.689   5.929
21143WAT     H163671   5.943   7.660   5.862
21143WAT     H263672   6.019   7.621   6.002
21144WAT      O63673   9.020   3.351   8.716
21144WAT     H163674   8.987   3.291   8.643
21144WAT     H263675   9.051   3.296   8.793
21145WAT      O63676   7.755   2.817   4.624
21145WAT     H163677   7.828   2.869   4.669
21145WAT     H263678   7.709   2.759   4.692
21146WAT      O63679   4.001   5.701   6.806
21146WAT     H163680   4.097   5.694   6.834
21146WAT     H263681   3.948   5.741   6.881
21147WAT      O63682   9.361   5.252   9.429
21147WAT     H163683   9.436   5.259   9.494
21147WAT     H263684   9.397   5.229   9.339
21148WAT      O63685   3.608   1.024   9.135
21148WAT     H163686   3.704   1.017   9.106
21148WAT     H263687   3.598   1.101   9.199
21149WAT      O63688   9.501   3.866   7.534
21149WAT     H163689   9.402   3.855   7.544
21149WAT     H263690   9.520   3.921   7.453
21150WAT      O63691   0.569   3.428   7.812
21150WAT     H163692   0.561   3.339   7.766
21150WAT     H263693   0.663   3.440   7.844
21151WAT      O63694   3.890   8.328   4.725
21151WAT     H163695   3.988   8.326   4.745
21151WAT     H263696   3.875   8.323   4.627
21152WAT      O63697   3.989   1.672   1.890
21152WAT     H163698   4.087   1.652   1.897
21152WAT     H263699   3.955   1.642   1.801
21153WAT      O63700   0.987   5.675   2.551
21153WAT     H163701   0.892   5.653   2.571
21153WAT     H263702   0.993   5.767   2.513
21154WAT      O63703   3.949   1.888   4.067
21154WAT     H163704   4.022   1.860   4.004
21154WAT     H263705   3.916   1.808   4.117
21155WAT      O63706   8.475   6.392   8.571
21155WAT     H163707   8.574   6.406   8.580
21155WAT     H263708   8.456   6.332   8.494
21156WAT      O63709   7.141   2.911   5.820
21156WAT     H163710   7.113   2.935   5.727
21156WAT     H263711   7.182   2.820   5.819
21157WAT      O63712   1.976   9.083   6.765
21157WAT     H163713   1.962   9.152   6.694
21157WAT     H263714   1.906   9.091   6.835
21158WAT      O63715   1.305   4.961   8.464
21158WAT     H163716   1.215   4.919   8.450
21158WAT     H263717   1.374   4.908   8.415
21159WAT      O63718   1.459   9.762   3.908
21159WAT     H163719   1.400   9.830   3.865
21159WAT     H263720   1.408   9.715   3.980
21160WAT      O63721   3.635   0.088   6.050
21160WAT     H163722   3.603   0.168   5.999
21160WAT     H263723   3.655   0.013   5.987
21161WAT      O63724   2.321   8.338   9.321
21161WAT     H163725   2.407   8.303   9.285
21161WAT     H263726   2.339   8.416   9.381
21162WAT      O63727   6.278   6.439   7.834
21162WAT     H163728   6.264   6.443   7.933
21162WAT     H263729   6.362   6.388   7.815
21163WAT      O63730   1.066   1.155   9.136
21163WAT     H163731   1.069   1.129   9.232
21163WAT     H263732   0.974   1.187   9.113
21164WAT      O63733   7.214   9.828   5.603
21164WAT     H163734   7.233   9.823   5.505
21164WAT     H263735   7.288   9.784   5.654
21165WAT      O63736   2.374   6.301   0.663
21165WAT     H163737   2.449   6.319   0.599
21165WAT     H263738   2.383   6.207   0.698
21166WAT      O63739   7.390   0.689   5.447
21166WAT     H163740   7.385   0.593   5.421
21166WAT     H263741   7.485   0.714   5.466
21167WAT      O63742   9.072   5.817   1.366
21167WAT     H163743   9.159   5.848   1.405
21167WAT     H263744   8.996   5.857   1.417
21168WAT      O63745   7.654   2.524   6.318
21168WAT     H163746   7.747   2.549   6.292
21168WAT     H263747   7.614   2.596   6.375
21169WAT      O63748   6.246   7.687   8.625
21169WAT     H163749   6.162   7.646   8.661
21169WAT     H263750   6.293   7.736   8.699
21170WAT      O63751   8.654   7.436   6.322
21170WAT     H163752   8.746   7.419   6.286
21170WAT     H263753   8.587   7.408   6.254
21171WAT      O63754   3.986   5.103   1.503
21171WAT     H163755   4.072   5.052   1.497
21171WAT     H263756   3.934   5.091   1.419
21172WAT      O63757   5.074   6.239   0.446
21172WAT     H163758   5.062   6.312   0.378
21172WAT     H263759   5.129   6.166   0.406
21173WAT      O63760   1.472   9.380   4.237
21173WAT     H163761   1.556   9.329   4.217
21173WAT     H263762   1.435   9.418   4.152
21174WAT      O63763   9.292   2.693   6.830
21174WAT     H163764   9.324   2.602   6.803
21174WAT     H263765   9.358   2.762   6.800
21175WAT      O63766   1.720   4.090   0.812
21175WAT     H163767   1.758   4.109   0.902
21175WAT     H263768   1.780   4.129   0.742
21176WAT      O63769   1.200   1.672   7.144
21176WAT     H163770   1.263   1.594   7.147
21176WAT     H263771   1.106   1.638   7.149
21177WAT      O63772   9.013   3.684   2.090
21177WAT     H163773   9.011   3.784   2.089
21177WAT     H263774   9.095   3.653   2.138
21178WAT      O63775   0.641   1.492   2.070
21178WAT     H163776   0.650   1.567   2.005
21178WAT     H263777   0.612   1.409   2.023
21179WAT      O63778   5.942   8.843   3.844
21179WAT     H163779   5.942   8.942   3.828
21179WAT     H263780   5.936   8.795   3.756
21180WAT      O63781   8.568   5.073   3.032
21180WAT     H163782   8.625   5.024   2.965
21180WAT     H263783   8.556   5.016   3.113
21181WAT      O63784   2.553   7.460   6.730
21181WAT     H163785   2.635   7.515   6.712
21181WAT     H263786   2.492   7.464   6.651
21182WAT      O63787   3.981   8.377   8.696
21182WAT     H163788   4.055   8.444   8.699
21182WAT     H263789   3.912   8.400   8.764
21183WAT      O63790   4.458   3.078   3.546
21183WAT     H163791   4.483   3.088   3.450
21183WAT     H263792   4.363   3.048   3.552
21184WAT      O63793   0.578   6.639   1.087
21184WAT     H163794   0.636   6.678   1.158
21184WAT     H263795   0.543   6.550   1.117
21185WAT      O63796   4.464   1.497   5.340
21185WAT     H163797   4.397   1.455   5.402
21185WAT     H263798   4.522   1.560   5.392
21186WAT      O63799   1.032   7.275   7.940
21186WAT     H163800   1.045   7.244   8.034
21186WAT     H263801   1.069   7.367   7.929
21187WAT      O63802   8.638   7.680   0.322
21187WAT     H163803   8.556   7.738   0.332
21187WAT     H263804   8.635   7.634   0.234
21188WAT      O63805   6.857   3.862   8.235
21188WAT     H163806   6.785   3.801   8.266
21188WAT     H263807   6.862   3.942   8.294
21189WAT      O63808   7.333   8.725   3.376
21189WAT     H163809   7.433   8.735   3.375
21189WAT     H263810   7.291   8.813   3.356
21190WAT      O63811   5.436   5.276   0.762
21190WAT     H163812   5.448   5.227   0.848
21190WAT     H263813   5.521   5.322   0.737
21191WAT      O63814   4.332   2.711   4.367
21191WAT     H163815   4.238   2.690   4.341
21191WAT     H263816   4.391   2.705   4.286
21192WAT      O63817   5.799   1.083   9.634
21192WAT     H163818   5.823   1.077   9.731
21192WAT     H263819   5.716   1.138   9.624
21193WAT      O63820   4.950   1.423   7.388
21193WAT     H163821   4.865   1.468   7.415
21193WAT     H263822   4.973   1.353   7.456
21194WAT      O63823   7.360   1.878   9.616
21194WAT     H163824   7.355   1.788   9.572
21194WAT     H263825   7.314   1.946   9.558
21195WAT      O63826   8.487   6.967   3.164
21195WAT     H163827   8.527   6.911   3.237
21195WAT     H263828   8.400   7.005   3.195
21196WAT      O63829   3.768   4.823   7.546
21196WAT     H163830   3.779   4.922   7.558
21196WAT     H263831   3.681   4.794   7.584
21197WAT      O63832   1.537   4.949   1.944
21197WAT     H163833   1.561   5.039   1.908
21197WAT     H263834   1.446   4.924   1.911
21198WAT      O63835   6.220   2.920   1.525
21198WAT     H163836   6.172   2.868   1.596
21198WAT     H263837   6.157   2.983   1.481
21199WAT      O63838   7.940   5.085   2.114
21199WAT     H163839   7.967   5.166   2.062
21199WAT     H263840   7.938   5.006   2.053
21200WAT      O63841   8.551   6.482   2.626
21200WAT     H163842   8.511   6.489   2.717
21200WAT     H263843   8.645   6.448   2.634
21201WAT      O63844   8.643   6.573   3.856
21201WAT     H163845   8.607   6.484   3.887
21201WAT     H263846   8.576   6.644   3.876
21202WAT      O63847   3.455   8.845   7.495
21202WAT     H163848   3.535   8.901   7.471
21202WAT     H263849   3.451   8.765   7.434
21203WAT      O63850   8.800   3.594   2.901
21203WAT     H163851   8.899   3.597   2.913
21203WAT     H263852   8.761   3.684   2.918
21204WAT      O63853   8.781   0.127   1.799
21204WAT     H163854   8.778   0.106   1.701
21204WAT     H263855   8.788   0.042   1.851
21205WAT      O63856   7.623   1.019   6.098
21205WAT     H163857   7.614   1.107   6.051
21205WAT     H263858   7.696   1.025   6.167
21206WAT      O63859   8.453   1.645   7.095
21206WAT     H163860   8.407   1.730   7.070
21206WAT     H263861   8.549   1.663   7.116
21207WAT      O63862   4.780   8.820   2.864
21207WAT     H163863   4.710   8.813   2.934
21207WAT     H263864   4.870   8.801   2.904
21208WAT      O63865   9.246   0.733   6.772
21208WAT     H163866   9.316   0.800   6.797
21208WAT     H263867   9.265   0.647   6.818
21209WAT      O63868   3.378   3.052   3.212
21209WAT     H163869   3.349   3.091   3.300
21209WAT     H263870   3.368   3.120   3.140
21210WAT      O63871   5.737   7.053   6.223
21210WAT     H163872   5.809   6.984   6.227
21210WAT     H263873   5.650   7.013   6.250
21211WAT      O63874   4.355   5.466   4.969
21211WAT     H163875   4.266   5.426   4.992
21211WAT     H263876   4.423   5.394   4.959
21212WAT      O63877   2.142   6.467   4.712
21212WAT     H163878   2.062   6.505   4.665
21212WAT     H263879   2.220   6.529   4.700
21213WAT      O63880   2.791   7.992   0.224
21213WAT     H163881   2.712   8.028   0.273
21213WAT     H263882   2.799   8.037   0.135
21214WAT      O63883   1.734   7.795   5.113
21214WAT     H163884   1.708   7.892   5.115
21214WAT     H263885   1.800   7.776   5.186
21215WAT      O63886   7.473   9.545   6.055
21215WAT     H163887   7.532   9.527   6.133
21215WAT     H263888   7.469   9.644   6.038
21216WAT      O63889   2.507   2.950   7.701
21216WAT     H163890   2.601   2.925   7.722
21216WAT     H263891   2.481   2.913   7.612
21217WAT      O63892   3.421   3.407   5.391
21217WAT     H163893   3.378   3.401   5.301
21217WAT     H263894   3.354   3.383   5.461
21218WAT      O63895   1.767   9.354   5.049
21218WAT     H163896   1.688   9.333   4.991
21218WAT     H263897   1.763   9.450   5.076
21219WAT      O63898   0.079   1.239   5.053
21219WAT     H163899   0.118   1.158   5.009
21219WAT     H263900  -0.021   1.230   5.057
21220WAT      O63901   2.532   1.914   1.005
21220WAT     H163902   2.501   1.913   0.910
21220WAT     H263903   2.470   1.858   1.060
21221WAT      O63904   2.274   0.788   7.089
21221WAT     H163905   2.300   0.735   7.008
21221WAT     H263906   2.236   0.876   7.060
21222WAT      O63907   8.737   3.328   2.363
21222WAT     H163908   8.664   3.324   2.432
21222WAT     H263909   8.718   3.402   2.299
21223WAT      O63910   3.885   3.009   2.897
21223WAT     H163911   3.934   2.925   2.872
21223WAT     H263912   3.922   3.086   2.846
21224WAT      O63913   2.788   9.447   7.274
21224WAT     H163914   2.869   9.478   7.324
21224WAT     H263915   2.715   9.425   7.339
21225WAT      O63916   2.253   8.383   7.435
21225WAT     H163917   2.296   8.466   7.470
21225WAT     H263918   2.235   8.393   7.337
21226WAT      O63919   5.997   9.600   9.350
21226WAT     H163920   6.054   9.642   9.421
21226WAT     H263921   5.995   9.501   9.363
21227WAT      O63922   3.768   6.188   4.089
21227WAT     H163923   3.724   6.101   4.107
21227WAT     H263924   3.806   6.188   3.996
21228WAT      O63925   6.607   4.906   0.811
21228WAT     H163926   6.525   4.940   0.856
21228WAT     H263927   6.685   4.965   0.834
21229WAT      O63928   5.655   6.304   4.400
21229WAT     H163929   5.723   6.327   4.331
21229WAT     H263930   5.690   6.232   4.460
21230WAT      O63931   4.778   6.768   3.300
21230WAT     H163932   4.876   6.748   3.310
21230WAT     H263933   4.734   6.693   3.252
21231WAT      O63934   6.690   3.819   5.712
21231WAT     H163935   6.655   3.846   5.622
21231WAT     H263936   6.778   3.772   5.701
21232WAT      O63937   8.917   4.531   8.235
21232WAT     H163938   8.868   4.570   8.313
21232WAT     H263939   8.865   4.547   8.151
21233WAT      O63940   0.759   4.322   8.270
21233WAT     H163941   0.699   4.249   8.302
21233WAT     H263942   0.733   4.347   8.176
21234WAT      O63943   2.190   0.030   1.367
21234WAT     H163944   2.092   0.013   1.358
21234WAT     H263945   2.233  -0.045   1.417
21235WAT      O63946   6.870   9.768   2.305
21235WAT     H163947   6.795   9.715   2.265
21235WAT     H263948   6.859   9.772   2.404
21236WAT      O63949   6.793   2.050   9.652
21236WAT     H163950   6.713   2.017   9.701
21236WAT     H263951   6.871   1.990   9.671
21237WAT      O63952   7.324   0.411   6.692
21237WAT     H163953   7.225   0.407   6.710
21237WAT     H263954   7.340   0.466   6.610
21238WAT      O63955   6.086   5.425   4.981
21238WAT     H163956   6.047   5.341   5.017
21238WAT     H263957   6.044   5.446   4.892
21239WAT      O63958   6.874   4.374   4.318
21239WAT     H163959   6.923   4.371   4.405
21239WAT     H263960   6.822   4.289   4.306
21240WAT      O63961   4.840   1.875   9.249
21240WAT     H163962   4.819   1.862   9.152
21240WAT     H263963   4.922   1.932   9.257
21241WAT      O63964   2.538   1.747   3.799
21241WAT     H163965   2.454   1.699   3.822
21241WAT     H263966   2.574   1.712   3.712
21242WAT      O63967   1.763   7.098   6.289
21242WAT     H163968   1.684   7.091   6.230
21242WAT     H263969   1.748   7.169   6.358
21243WAT      O63970   5.199   6.889   0.000
21243WAT     H163971   5.136   6.967   0.008
21243WAT     H263972   5.292   6.920   0.021
21244WAT      O63973   4.585   2.811   5.166
21244WAT     H163974   4.516   2.852   5.226
21244WAT     H263975   4.579   2.854   5.076
21245WAT      O63976   3.967   1.563   3.412
21245WAT     H163977   3.965   1.466   3.437
21245WAT     H263978   3.966   1.571   3.312
21246WAT      O63979   7.357   5.642   7.624
21246WAT     H163980   7.435   5.589   7.658
21246WAT     H263981   7.373   5.740   7.640
21247WAT      O63982   4.093   9.350   1.592
21247WAT     H163983   4.077   9.416   1.518
21247WAT     H263984   4.104   9.399   1.678
21248WAT      O63985   8.970   9.423   9.724
21248WAT     H163986   9.037   9.460   9.659
21248WAT     H263987   8.877   9.443   9.691
21249WAT      O63988   4.933   9.233   4.600
21249WAT     H163989   5.020   9.273   4.570
21249WAT     H263990   4.893   9.290   4.671
21250WAT      O63991   4.430   5.248   7.703
21250WAT     H163992   4.444   5.343   7.676
21250WAT     H263993   4.367   5.243   7.780
21251WAT      O63994   8.229   5.255   1.539
21251WAT     H163995   8.229   5.202   1.454
21251WAT     H263996   8.188   5.200   1.612
21252WAT      O63997   7.910   3.586   1.886
21252WAT     H163998   7.825   3.598   1.937
21252WAT     H263999   7.951   3.498   1.910
21253WAT      O64000   2.898   1.381   9.867
21253WAT     H164001   2.880   1.297   9.817
21253WAT     H264002   2.917   1.360   9.963
21254WAT      O64003   5.919   9.312   9.379
21254WAT     H164004   5.976   9.245   9.331
21254WAT     H264005   5.887   9.272   9.465
21255WAT      O64006   1.803   8.091   8.358
21255WAT     H164007   1.890   8.045   8.376
21255WAT     H264008   1.820   8.175   8.306
21256WAT      O64009   1.489   5.656   8.860
21256WAT     H164010   1.485   5.558   8.883
21256WAT     H264011   1.550   5.669   8.782
21257WAT      O64012   3.476   0.734   3.923
21257WAT     H164013   3.500   0.747   3.827
21257WAT     H264014   3.411   0.805   3.951
21258WAT      O64015   7.037   1.940   4.764
21258WAT     H164016   6.965   1.880   4.730
21258WAT     H264017   7.089   1.977   4.687
21259WAT      O64018   9.654   4.743   2.738
21259WAT     H164019   9.705   4.707   2.660
21259WAT     H264020   9.681   4.838   2.755
21260WAT      O64021   6.971   2.920   6.985
21260WAT     H164022   7.001   3.008   7.019
21260WAT     H264023   6.974   2.852   7.058
21261WAT      O64024   5.881   2.617   7.434
21261WAT     H164025   5.932   2.594   7.517
21261WAT     H264026   5.943   2.616   7.355
21262WAT      O64027   7.946   3.342   6.887
21262WAT     H164028   7.963   3.301   6.798
21262WAT     H264029   7.891   3.425   6.875
21263WAT      O64030   3.300   8.950   2.111
21263WAT     H164031   3.211   8.993   2.127
21263WAT     H264032   3.304   8.914   2.017
21264WAT      O64033   4.945   1.118   4.464
21264WAT     H164034   4.936   1.097   4.561
21264WAT     H264035   4.978   1.038   4.415
21265WAT      O64036   8.765   3.204   0.527
21265WAT     H164037   8.737   3.108   0.530
21265WAT     H264038   8.818   3.225   0.609
21266WAT      O64039   2.885   3.488   7.699
21266WAT     H164040   2.809   3.551   7.715
21266WAT     H264041   2.914   3.496   7.603
21267WAT      O64042   9.355   5.835   0.265
21267WAT     H164043   9.314   5.913   0.312
21267WAT     H264044   9.363   5.758   0.328
21268WAT      O64045   0.244   7.023   7.990
21268WAT     H164046   0.198   7.086   8.052
21268WAT     H264047   0.216   6.929   8.011
21269WAT      O64048   7.042   2.868   9.762
21269WAT     H164049   6.990   2.876   9.677
21269WAT     H264050   7.098   2.951   9.774
21270WAT      O64051   6.001   6.511   7.190
21270WAT     H164052   6.031   6.597   7.231
21270WAT     H264053   6.074   6.475   7.133
21271WAT      O64054   9.705   4.538   4.158
21271WAT     H164055   9.725   4.466   4.223
21271WAT     H264056   9.789   4.566   4.112
21272WAT      O64057   3.075   1.790   6.238
21272WAT     H164058   3.009   1.736   6.289
21272WAT     H264059   3.029   1.837   6.162
21273WAT      O64060   8.645   5.645   9.813
21273WAT     H164061   8.597   5.588   9.880
21273WAT     H264062   8.698   5.715   9.862
21274WAT      O64063   3.188   4.553   7.535
21274WAT     H164064   3.115   4.622   7.537
21274WAT     H264065   3.257   4.581   7.468
21275WAT      O64066   1.099   1.649   5.665
21275WAT     H164067   1.087   1.551   5.649
21275WAT     H264068   1.189   1.666   5.705
21276WAT      O64069   5.715   7.839   2.972
21276WAT     H164070   5.718   7.765   2.905
21276WAT     H264071   5.677   7.921   2.930
21277WAT      O64072   3.216   5.612   2.566
21277WAT     H164073   3.127   5.573   2.590
21277WAT     H264074   3.289   5.552   2.600
21278WAT      O64075   6.742   7.010   9.552
21278WAT     H164076   6.770   7.084   9.613
21278WAT     H264077   6.742   6.923   9.602
21279WAT      O64078   2.837   2.599   4.865
21279WAT     H164079   2.741   2.604   4.892
21279WAT     H264080   2.851   2.519   4.806
21280WAT      O64081   0.004   2.050   4.082
21280WAT     H164082   0.017   2.119   4.153
21280WAT     H264083  -0.060   1.980   4.115
21281WAT      O64084   7.411   1.760   6.687
21281WAT     H164085   7.451   1.851   6.701
21281WAT     H264086   7.395   1.716   6.775
21282WAT      O64087   4.973   7.645   0.876
21282WAT     H164088   5.014   7.702   0.805
21282WAT     H264089   4.920   7.703   0.938
21283WAT      O64090   8.943   2.462   0.449
21283WAT     H164091   8.929   2.384   0.388
21283WAT     H264092   8.868   2.468   0.515
21284WAT      O64093   2.493   7.497   9.516
21284WAT     H164094   2.430   7.570   9.492
21284WAT     H264095   2.555   7.478   9.440
21285WAT      O64096   8.674   7.232   7.387
21285WAT     H164097   8.617   7.150   7.374
21285WAT     H264098   8.766   7.214   7.352
21286WAT      O64099   2.372   7.677   4.550
21286WAT     H164100   2.322   7.655   4.634
21286WAT     H264101   2.374   7.596   4.491
21287WAT      O64102   6.126   9.541   1.294
21287WAT     H164103   6.216   9.582   1.304
21287WAT     H264104   6.120   9.492   1.207
21288WAT      O64105   6.812   6.106   8.804
21288WAT     H164106   6.785   6.122   8.899
21288WAT     H264107   6.912   6.108   8.797
21289WAT      O64108   2.981   2.406   0.308
21289WAT     H164109   3.033   2.354   0.240
21289WAT     H264110   3.034   2.412   0.393
21290WAT      O64111   6.922   5.149   0.581
21290WAT     H164112   6.927   5.062   0.532
21290WAT     H264113   6.987   5.214   0.539
21291WAT      O64114   9.665   3.365   2.469
21291WAT     H164115   9.696   3.458   2.484
21291WAT     H264116   9.582   3.365   2.414
21292WAT      O64117   9.829   2.506   5.447
21292WAT     H164118   9.774   2.542   5.372
21292WAT     H264119   9.771   2.456   5.510
21293WAT      O64120   5.963   3.269   8.578
21293WAT     H164121   5.951   3.368   8.583
21293WAT     H264122   5.876   3.226   8.557
21294WAT      O64123   5.436   1.359   1.051
21294WAT     H164124   5.455   1.332   1.145
21294WAT     H264125   5.480   1.446   1.031
21295WAT      O64126   5.899   0.917   2.045
21295WAT     H164127   5.955   0.972   1.983
21295WAT     H264128   5.845   0.977   2.103
21296WAT      O64129   9.750   5.794   1.615
21296WAT     H164130   9.683   5.727   1.584
21296WAT     H264131   9.722   5.829   1.705
21297WAT      O64132   2.812   9.662   3.266
21297WAT     H164133   2.752   9.702   3.196
21297WAT     H264134   2.907   9.678   3.242
21298WAT      O64135   3.976   2.505   7.873
21298WAT     H164136   3.987   2.511   7.773
21298WAT     H264137   4.063   2.523   7.918
21299WAT      O64138   7.114   0.974   9.453
21299WAT     H164139   7.178   1.005   9.523
21299WAT     H264140   7.097   0.877   9.464
21300WAT      O64141   7.989   7.381   1.039
21300WAT     H164142   7.962   7.415   1.129
21300WAT     H264143   7.963   7.448   0.969
21301WAT      O64144   8.776   1.638   6.570
21301WAT     H164145   8.839   1.667   6.498
21301WAT     H264146   8.713   1.569   6.534
21302WAT      O64147   3.988   2.176   0.482
21302WAT     H164148   4.032   2.234   0.413
21302WAT     H264149   3.890   2.196   0.484
21303WAT      O64150   2.847   0.956   0.825
21303WAT     H164151   2.782   1.030   0.808
21303WAT     H264152   2.818   0.904   0.906
21304WAT      O64153   8.906   4.801   5.246
21304WAT     H164154   8.938   4.891   5.275
21304WAT     H264155   8.903   4.797   5.146
21305WAT      O64156   3.530   9.356   0.459
21305WAT     H164157   3.623   9.373   0.428
21305WAT     H264158   3.465   9.405   0.400
21306WAT      O64159   0.868   6.172   8.257
21306WAT     H164160   0.862   6.197   8.354
21306WAT     H264161   0.851   6.074   8.247
21307WAT      O64162   6.331   3.567   8.392
21307WAT     H164163   6.390   3.506   8.339
21307WAT     H264164   6.340   3.547   8.489
21308WAT      O64165   2.741   0.361   0.954
21308WAT     H164166   2.794   0.290   1.000
21308WAT     H264167   2.764   0.363   0.857
21309WAT      O64168   1.152   2.311   2.210
21309WAT     H164169   1.123   2.306   2.115
21309WAT     H264170   1.074   2.338   2.267
21310WAT      O64171   8.944   3.651   4.392
21310WAT     H164172   8.977   3.603   4.473
21310WAT     H264173   8.939   3.749   4.411
21311WAT      O64174   4.686   9.407   0.681
21311WAT     H164175   4.705   9.362   0.768
21311WAT     H264176   4.700   9.342   0.606
21312WAT      O64177   6.331   0.712   5.723
21312WAT     H164178   6.421   0.729   5.762
21312WAT     H264179   6.328   0.620   5.683
21313WAT      O64180   6.385   7.131   5.313
21313WAT     H164181   6.428   7.131   5.403
21313WAT     H264182   6.424   7.204   5.257
21314WAT      O64183   6.576   6.336   3.380
21314WAT     H164184   6.505   6.291   3.432
21314WAT     H264185   6.552   6.337   3.283
21315WAT      O64186   1.766   4.892   8.931
21315WAT     H164187   1.831   4.833   8.978
21315WAT     H264188   1.724   4.843   8.855
21316WAT      O64189   0.466   7.772   7.695
21316WAT     H164190   0.390   7.791   7.633
21316WAT     H264191   0.501   7.859   7.731
21317WAT      O64192   8.225   0.420   5.080
21317WAT     H164193   8.255   0.476   5.003
21317WAT     H264194   8.144   0.368   5.055
21318WAT      O64195   9.743   4.437   3.556
21318WAT     H164196   9.745   4.448   3.457
21318WAT     H264197   9.720   4.524   3.599
21319WAT      O64198   2.055   4.079   1.637
21319WAT     H164199   1.963   4.111   1.658
21319WAT     H264200   2.122   4.141   1.678
21320WAT      O64201   5.400   7.666   8.039
21320WAT     H164202   5.344   7.711   7.969
21320WAT     H264203   5.342   7.606   8.093
21321WAT      O64204   1.054   9.783   2.133
21321WAT     H164205   1.020   9.806   2.042
21321WAT     H264206   1.137   9.727   2.125
21322WAT      O64207   0.272   1.331   7.414
21322WAT     H164208   0.214   1.384   7.476
21322WAT     H264209   0.219   1.256   7.374
21323WAT      O64210   0.660   7.335   2.659
21323WAT     H164211   0.684   7.295   2.570
21323WAT     H264212   0.730   7.312   2.726
21324WAT      O64213   3.024   1.813   7.590
21324WAT     H164214   3.100   1.794   7.529
21324WAT     H264215   2.943   1.763   7.560
21325WAT      O64216   4.788   0.265   0.987
21325WAT     H164217   4.786   0.200   0.911
21325WAT     H264218   4.882   0.274   1.021
21326WAT      O64219   0.335   7.999   3.825
21326WAT     H164220   0.404   7.927   3.832
21326WAT     H264221   0.375   8.079   3.780
21327WAT      O64222   5.904   3.410   2.821
21327WAT     H164223   5.999   3.392   2.848
21327WAT     H264224   5.849   3.328   2.835
21328WAT      O64225   2.373   2.904   0.513
21328WAT     H164226   2.369   2.834   0.584
21328WAT     H264227   2.432   2.873   0.439
21329WAT      O64228   1.243   7.777   7.833
21329WAT     H164229   1.287   7.769   7.744
21329WAT     H264230   1.146   7.798   7.821
21330WAT      O64231   6.831   4.178   1.447
21330WAT     H164232   6.850   4.189   1.545
21330WAT     H264233   6.916   4.158   1.399
21331WAT      O64234   6.968   3.677   3.268
21331WAT     H164235   7.054   3.715   3.302
21331WAT     H264236   6.951   3.589   3.312
21332WAT      O64237   4.867   5.539   2.513
21332WAT     H164238   4.963   5.521   2.532
21332WAT     H264239   4.809   5.484   2.572
21333WAT      O64240   3.985   0.334   7.139
21333WAT     H164241   3.978   0.406   7.207
21333WAT     H264242   3.966   0.246   7.181
21334WAT      O64243   1.631   4.712   3.053
21334WAT     H164244   1.688   4.636   3.023
21334WAT     H264245   1.669   4.798   3.018
21335WAT      O64246   7.019   9.158   4.957
21335WAT     H164247   6.933   9.183   5.002
21335WAT     H264248   7.073   9.241   4.940
21336WAT      O64249   7.125   8.007   4.304
21336WAT     H164250   7.202   8.066   4.326
21336WAT     H264251   7.051   8.021   4.370
21337WAT      O64252   9.351   0.523   0.165
21337WAT     H164253   9.365   0.603   0.107
21337WAT     H264254   9.351   0.440   0.110
21338WAT      O64255   0.829   7.749   0.335
21338WAT     H164256   0.888   7.675   0.303
21338WAT     H264257   0.792   7.725   0.425
21339WAT      O64258   9.177   0.684   9.760
21339WAT     H164259   9.126   0.746   9.700
21339WAT     H264260   9.266   0.724   9.781
21340WAT      O64261   3.922   7.396   8.690
21340WAT     H164262   3.858   7.337   8.741
21340WAT     H264263   3.968   7.341   8.620
21341WAT      O64264   0.563   5.627   3.226
21341WAT     H164265   0.584   5.712   3.274
21341WAT     H264266   0.505   5.648   3.147
21342WAT      O64267   9.532   2.404   0.994
21342WAT     H164268   9.437   2.373   1.001
21342WAT     H264269   9.554   2.462   1.072
21343WAT      O64270   0.138   6.429   2.806
21343WAT     H164271   0.066   6.381   2.755
21343WAT     H264272   0.178   6.500   2.748
21344WAT      O64273   5.976   1.848   3.385
21344WAT     H164274   5.923   1.833   3.469
21344WAT     H264275   5.915   1.841   3.306
21345WAT      O64276   7.801   0.737   2.514
21345WAT     H164277   7.761   0.691   2.593
21345WAT     H264278   7.729   0.758   2.447
21346WAT      O64279   7.984   8.174   7.431
21346WAT     H164280   7.899   8.226   7.422
21346WAT     H264281   8.032   8.202   7.514
21347WAT      O64282   7.071   6.300   1.853
21347WAT     H164283   7.101   6.236   1.783
21347WAT     H264284   6.973   6.291   1.868
21348WAT      O64285   2.151   9.006   2.229
21348WAT     H164286   2.219   9.021   2.300
21348WAT     H264287   2.075   8.952   2.267
21349WAT      O64288   0.386   8.569   0.589
21349WAT     H164289   0.437   8.601   0.509
21349WAT     H264290   0.288   8.576   0.571
21350WAT      O64291   5.368   4.137   3.864
21350WAT     H164292   5.456   4.096   3.886
21350WAT     H264293   5.366   4.232   3.896
21351WAT      O64294   0.555   6.576   8.626
21351WAT     H164295   0.458   6.557   8.608
21351WAT     H264296   0.564   6.621   8.715
21352WAT      O64297   4.065   2.939   4.651
21352WAT     H164298   3.988   2.976   4.704
21352WAT     H264299   4.134   3.010   4.639
21353WAT      O64300   0.159   3.329   6.521
21353WAT     H164301   0.091   3.255   6.524
21353WAT     H264302   0.113   3.417   6.515
21354WAT      O64303   5.898   4.344   5.775
21354WAT     H164304   5.864   4.301   5.692
21354WAT     H264305   5.835   4.417   5.803
21355WAT      O64306   4.848   8.069   0.619
21355WAT     H164307   4.786   8.016   0.561
21355WAT     H264308   4.796   8.114   0.691
21356WAT      O64309   3.995   8.819   2.228
21356WAT     H164310   3.979   8.867   2.314
21356WAT     H264311   4.083   8.845   2.190
21357WAT      O64312   9.282   2.545   8.817
21357WAT     H164313   9.249   2.559   8.911
21357WAT     H264314   9.219   2.484   8.769
21358WAT      O64315   8.307   3.539   6.470
21358WAT     H164316   8.307   3.509   6.565
21358WAT     H264317   8.228   3.598   6.454
21359WAT      O64318   9.545   0.309   4.257
21359WAT     H164319   9.602   0.392   4.253
21359WAT     H264320   9.570   0.249   4.181
21360WAT      O64321   6.669   9.579   2.206
21360WAT     H164322   6.627   9.551   2.293
21360WAT     H264323   6.720   9.502   2.168
21361WAT      O64324   5.653   2.565   8.780
21361WAT     H164325   5.742   2.531   8.811
21361WAT     H264326   5.666   2.651   8.731
21362WAT      O64327   4.677   5.608   7.373
21362WAT     H164328   4.728   5.633   7.291
21362WAT     H264329   4.669   5.509   7.379
21363WAT      O64330   3.418   7.545   5.649
21363WAT     H164331   3.429   7.469   5.712
21363WAT     H264332   3.321   7.555   5.625
21364WAT      O64333   1.064   1.766   5.054
21364WAT     H164334   1.152   1.742   5.013
21364WAT     H264335   1.033   1.691   5.113
21365WAT      O64336   0.474   9.583   2.581
21365WAT     H164337   0.573   9.586   2.570
21365WAT     H264338   0.444   9.662   2.634
21366WAT      O64339   9.447   7.303   3.382
21366WAT     H164340   9.522   7.342   3.436
21366WAT     H264341   9.461   7.323   3.286
21367WAT      O64342   6.189   6.707   6.286
21367WAT     H164343   6.176   6.703   6.385
21367WAT     H264344   6.203   6.802   6.258
21368WAT      O64345   8.072   0.083   5.386
21368WAT     H164346   8.016   0.158   5.420
21368WAT     H264347   8.051   0.066   5.290
21369WAT      O64348   3.727   4.735   1.684
21369WAT     H164349   3.799   4.796   1.652
21369WAT     H264350   3.747   4.705   1.777
21370WAT      O64351   3.346   9.236   1.290
21370WAT     H164352   3.277   9.207   1.356
21370WAT     H264353   3.303   9.294   1.221
21371WAT      O64354   9.739   6.888   8.493
21371WAT     H164355   9.677   6.953   8.447
21371WAT     H264356   9.765   6.925   8.582
21372WAT      O64357   1.343   3.707   6.428
21372WAT     H164358   1.365   3.793   6.474
21372WAT     H264359   1.392   3.703   6.340
21373WAT      O64360   0.838   4.980   7.218
21373WAT     H164361   0.760   4.982   7.155
21373WAT     H264362   0.904   5.051   7.193
21374WAT      O64363   6.641   8.393   0.288
21374WAT     H164364   6.594   8.369   0.203
21374WAT     H264365   6.724   8.443   0.267
21375WAT      O64366   3.355   5.865   6.358
21375WAT     H164367   3.452   5.846   6.373
21375WAT     H264368   3.340   5.964   6.356
21376WAT      O64369   0.517   0.032   1.609
21376WAT     H164370   0.545   0.092   1.684
21376WAT     H264371   0.568   0.055   1.526
21377WAT      O64372   9.419   8.933   7.327
21377WAT     H164373   9.341   8.870   7.319
21377WAT     H264374   9.388   9.027   7.311
21378WAT      O64375   6.746   9.341   4.306
21378WAT     H164376   6.838   9.378   4.299
21378WAT     H264377   6.708   9.362   4.396
21379WAT      O64378   8.034   9.605   3.792
21379WAT     H164379   7.990   9.528   3.840
21379WAT     H264380   8.132   9.604   3.810
21380WAT      O64381   8.587   5.573   1.522
21380WAT     H164382   8.669   5.515   1.519
21380WAT     H264383   8.508   5.517   1.547
21381WAT      O64384   0.836   6.139   7.489
21381WAT     H164385   0.793   6.082   7.419
21381WAT     H264386   0.935   6.122   7.488
21382WAT      O64387   1.364   1.848   3.204
21382WAT     H164388   1.378   1.863   3.302
21382WAT     H264389   1.354   1.935   3.157
21383WAT      O64390   5.136   1.907   3.280
21383WAT     H164391   5.046   1.925   3.319
21383WAT     H264392   5.195   1.986   3.295
21384WAT      O64393   9.196   2.512   0.198
21384WAT     H164394   9.106   2.472   0.184
21384WAT     H264395   9.262   2.439   0.219
21385WAT      O64396   4.333   8.386   1.762
21385WAT     H164397   4.320   8.373   1.860
21385WAT     H264398   4.248   8.362   1.714
21386WAT      O64399   3.658   8.409   9.146
21386WAT     H164400   3.618   8.484   9.198
21386WAT     H264401   3.701   8.344   9.208
21387WAT      O64402   3.024   7.252   8.875
21387WAT     H164403   2.966   7.309   8.933
21387WAT     H264404   2.970   7.176   8.839
21388WAT      O64405   7.709   5.823   8.508
21388WAT     H164406   7.743   5.755   8.442
21388WAT     H264407   7.709   5.913   8.466
21389WAT      O64408   5.062   3.567   4.114
21389WAT     H164409   5.151   3.595   4.078
21389WAT     H264410   5.030   3.633   4.181
21390WAT      O64411   6.901   2.097   8.138
21390WAT     H164412   6.943   2.047   8.214
21390WAT     H264413   6.843   2.170   8.174
21391WAT      O64414   4.904   3.276   8.032
21391WAT     H164415   4.948   3.273   8.121
21391WAT     H264416   4.901   3.371   7.999
21392WAT      O64417   1.000   4.741   0.293
21392WAT     H164418   0.988   4.672   0.365
21392WAT     H264419   1.047   4.821   0.331
21393WAT      O64420   7.916   8.818   8.555
21393WAT     H164421   7.889   8.889   8.490
21393WAT     H264422   7.959   8.861   8.635
21394WAT      O64423   2.760   3.781   4.812
21394WAT     H164424   2.755   3.683   4.833
21394WAT     H264425   2.830   3.796   4.742
21395WAT      O64426   4.702   8.943   4.924
21395WAT     H164427   4.634   8.994   4.976
21395WAT     H264428   4.745   8.875   4.983
21396WAT      O64429   1.554   8.293   0.964
21396WAT     H164430   1.609   8.368   1.003
21396WAT     H264431   1.570   8.289   0.866
21397WAT      O64432   6.819   8.353   3.102
21397WAT     H164433   6.913   8.388   3.108
21397WAT     H264434   6.812   8.266   3.150
21398WAT      O64435   3.382   3.905   5.809
21398WAT     H164436   3.336   3.847   5.875
21398WAT     H264437   3.396   3.854   5.723
21399WAT      O64438   5.566   4.484   3.425
21399WAT     H164439   5.563   4.508   3.522
21399WAT     H264440   5.650   4.432   3.406
21400WAT      O64441   3.237   7.919   7.340
21400WAT     H164442   3.179   7.897   7.262
21400WAT     H264443   3.267   8.014   7.334
21401WAT      O64444   2.099   6.389   1.044
21401WAT     H164445   2.184   6.436   1.066
21401WAT     H264446   2.025   6.455   1.036
21402WAT      O64447   2.067   6.959   8.082
21402WAT     H164448   1.981   6.990   8.120
21402WAT     H264449   2.118   6.907   8.151
21403WAT      O64450   4.400   6.601   4.674
21403WAT     H164451   4.481   6.622   4.619
21403WAT     H264452   4.418   6.624   4.770
21404WAT      O64453   7.125   6.719   2.549
21404WAT     H164454   7.171   6.718   2.638
21404WAT     H264455   7.050   6.785   2.551
21405WAT      O64456   4.846   9.575   0.898
21405WAT     H164457   4.758   9.593   0.942
21405WAT     H264458   4.849   9.623   0.810
21406WAT      O64459   8.562   0.066   8.510
21406WAT     H164460   8.555  -0.006   8.441
21406WAT     H264461   8.472   0.080   8.553
21407WAT      O64462   9.613   2.087   7.467
21407WAT     H164463   9.639   2.159   7.531
21407WAT     H264464   9.523   2.107   7.428
21408WAT      O64465   3.912   3.684   9.788
21408WAT     H164466   3.962   3.634   9.717
21408WAT     H264467   3.973   3.704   9.865
21409WAT      O64468   0.674   1.457   3.812
21409WAT     H164469   0.637   1.538   3.858
21409WAT     H264470   0.760   1.481   3.766
21410WAT      O64471   5.042   3.216   1.908
21410WAT     H164472   5.132   3.205   1.951
21410WAT     H264473   5.054   3.215   1.808
21411WAT      O64474   6.006   4.945   1.076
21411WAT     H164475   6.017   5.026   1.019
21411WAT     H264476   5.909   4.922   1.082
21412WAT      O64477   5.577   1.019   7.035
21412WAT     H164478   5.585   0.920   7.030
21412WAT     H264479   5.483   1.046   7.015
21413WAT      O64480   5.306   9.035   9.327
21413WAT     H164481   5.275   9.128   9.343
21413WAT     H264482   5.227   8.977   9.308
21414WAT      O64483   7.779   6.455   0.843
21414WAT     H164484   7.798   6.540   0.795
21414WAT     H264485   7.760   6.474   0.939
21415WAT      O64486   5.465   9.129   6.056
21415WAT     H164487   5.549   9.170   6.020
21415WAT     H264488   5.435   9.179   6.137
21416WAT      O64489   1.893   9.455   8.825
21416WAT     H164490   1.931   9.533   8.775
21416WAT     H264491   1.949   9.374   8.808
21417WAT      O64492   1.899   4.605   8.393
21417WAT     H164493   1.856   4.606   8.484
21417WAT     H264494   1.921   4.699   8.366
21418WAT      O64495   6.087   1.713   6.177
21418WAT     H164496   6.163   1.659   6.141
21418WAT     H264497   6.116   1.807   6.191
21419WAT      O64498   8.223   3.974   8.772
21419WAT     H164499   8.225   3.947   8.676
21419WAT     H264500   8.134   4.016   8.792
21420WAT      O64501   3.886   5.373   4.882
21420WAT     H164502   3.881   5.470   4.905
21420WAT     H264503   3.800   5.328   4.907
21421WAT      O64504   5.607   5.749   5.402
21421WAT     H164505   5.618   5.685   5.477
21421WAT     H264506   5.548   5.825   5.431
21422WAT      O64507   7.318   4.598   8.941
21422WAT     H164508   7.284   4.522   8.997
21422WAT     H264509   7.401   4.635   8.982
21423WAT      O64510   7.100   0.008   0.371
21423WAT     H164511   7.195  -0.019   0.380
21423WAT     H264512   7.041  -0.071   0.389
21424WAT      O64513   6.742   2.634   1.396
21424WAT     H164514   6.800   2.568   1.446
21424WAT     H264515   6.732   2.717   1.451
21425WAT      O64516   6.212   0.074   9.655
21425WAT     H164517   6.133   0.098   9.712
21425WAT     H264518   6.291   0.055   9.714
21426WAT      O64519   2.527   2.059   3.827
21426WAT     H164520   2.437   2.083   3.789
21426WAT     H264521   2.546   1.962   3.807
21427WAT      O64522   2.208   0.301   1.414
21427WAT     H164523   2.199   0.202   1.419
21427WAT     H264524   2.206   0.330   1.318
21428WAT      O64525   1.273   1.310   3.335
21428WAT     H164526   1.352   1.264   3.295
21428WAT     H264527   1.232   1.371   3.267
21429WAT      O64528   0.837   5.911   8.230
21429WAT     H164529   0.858   5.822   8.271
21429WAT     H264530   0.869   5.913   8.135
21430WAT      O64531   6.989   1.220   9.378
21430WAT     H164532   7.026   1.133   9.409
21430WAT     H264533   7.005   1.290   9.448
21431WAT      O64534   2.882   7.578   6.932
21431WAT     H164535   2.917   7.500   6.984
21431WAT     H264536   2.796   7.609   6.973
21432WAT      O64537   5.170   6.264   7.358
21432WAT     H164538   5.177   6.289   7.454
21432WAT     H264539   5.201   6.170   7.345
21433WAT      O64540   9.631   6.514   8.445
21433WAT     H164541   9.715   6.553   8.481
21433WAT     H264542   9.597   6.570   8.370
21434WAT      O64543   4.725   4.391   7.624
21434WAT     H164544   4.639   4.426   7.660
21434WAT     H264545   4.801   4.423   7.682
21435WAT      O64546   0.391   4.544   1.488
21435WAT     H164547   0.341   4.584   1.411
21435WAT     H264548   0.389   4.608   1.565
21436WAT      O64549   2.107   4.949   4.462
21436WAT     H164550   2.166   5.028   4.477
21436WAT     H264551   2.126   4.910   4.372
21437WAT      O64552   4.148   4.159   9.001
21437WAT     H164553   4.083   4.198   9.066
21437WAT     H264554   4.205   4.232   8.964
21438WAT      O64555   3.173   8.674   5.021
21438WAT     H164556   3.253   8.730   5.001
21438WAT     H264557   3.156   8.674   5.119
21439WAT      O64558   1.274   4.429   4.516
21439WAT     H164559   1.237   4.478   4.596
21439WAT     H264560   1.206   4.363   4.484
21440WAT      O64561   3.445   9.752   4.881
21440WAT     H164562   3.395   9.793   4.805
21440WAT     H264563   3.539   9.784   4.880
21441WAT      O64564   0.711   0.307   8.128
21441WAT     H164565   0.759   0.231   8.085
21441WAT     H264566   0.742   0.319   8.222
21442WAT      O64567   2.180   2.455   9.875
21442WAT     H164568   2.268   2.501   9.877
21442WAT     H264569   2.108   2.521   9.852
21443WAT      O64570   7.683   3.806   0.976
21443WAT     H164571   7.660   3.824   0.880
21443WAT     H264572   7.598   3.791   1.027
21444WAT      O64573   6.620   9.283   1.411
21444WAT     H164574   6.586   9.236   1.330
21444WAT     H264575   6.656   9.373   1.386
21445WAT      O64576   7.663   1.506   3.206
21445WAT     H164577   7.745   1.457   3.237
21445WAT     H264578   7.669   1.520   3.107
21446WAT      O64579   6.263   8.442   7.249
21446WAT     H164580   6.303   8.391   7.326
21446WAT     H264581   6.299   8.405   7.163
21447WAT      O64582   4.619   0.772   8.002
21447WAT     H164583   4.545   0.797   7.940
21447WAT     H264584   4.686   0.847   8.006
21448WAT      O64585   5.633   1.927   7.916
21448WAT     H164586   5.692   1.859   7.960
21448WAT     H264587   5.688   1.984   7.855
21449WAT      O64588   6.236   0.468   1.414
21449WAT     H164589   6.181   0.482   1.332
21449WAT     H264590   6.262   0.557   1.453
21450WAT      O64591   7.340   9.604   6.590
21450WAT     H164592   7.359   9.696   6.555
21450WAT     H264593   7.245   9.600   6.621
21451WAT      O64594   8.816   5.054   8.715
21451WAT     H164595   8.769   5.058   8.804
21451WAT     H264596   8.759   5.096   8.645
21452WAT      O64597   4.059   7.395   9.488
21452WAT     H164598   4.011   7.473   9.528
21452WAT     H264599   3.996   7.343   9.431
21453WAT      O64600   5.840   6.800   2.078
21453WAT     H164601   5.871   6.775   2.170
21453WAT     H264602   5.918   6.833   2.025
21454WAT      O64603   4.239   7.818   9.700
21454WAT     H164604   4.246   7.723   9.729
21454WAT     H264605   4.171   7.826   9.627
21455WAT      O64606   0.225   2.676   7.699
21455WAT     H164607   0.306   2.693   7.756
21455WAT     H264608   0.185   2.763   7.671
21456WAT      O64609   5.710   5.740   0.115
21456WAT     H164610   5.628   5.688   0.090
21456WAT     H264611   5.783   5.722   0.050
21457WAT      O64612   2.016   2.750   6.093
21457WAT     H164613   1.925   2.715   6.115
21457WAT     H264614   2.012   2.849   6.081
21458WAT      O64615   0.147   9.554   1.231
21458WAT     H164616   0.102   9.628   1.182
21458WAT     H264617   0.158   9.578   1.327
21459WAT      O64618   1.689   2.375   3.803
21459WAT     H164619   1.746   2.433   3.745
21459WAT     H264620   1.698   2.279   3.774
21460WAT      O64621   4.297   0.051   1.035
21460WAT     H164622   4.342   0.113   1.099
21460WAT     H264623   4.201   0.078   1.024
21461WAT      O64624   4.040   8.992   8.243
21461WAT     H164625   4.075   8.990   8.336
21461WAT     H264626   3.980   8.914   8.227
21462WAT      O64627   3.391   3.391   8.901
21462WAT     H164628   3.456   3.459   8.866
21462WAT     H264629   3.438   3.304   8.914
21463WAT      O64630   2.392   5.649   4.741
21463WAT     H164631   2.346   5.685   4.822
21463WAT     H264632   2.464   5.585   4.768
21464WAT      O64633   4.632   7.466   9.162
21464WAT     H164634   4.591   7.481   9.072
21464WAT     H264635   4.572   7.410   9.218
21465WAT      O64636   9.373   6.399   1.255
21465WAT     H164637   9.388   6.303   1.232
21465WAT     H264638   9.279   6.411   1.287
21466WAT      O64639   3.187   3.747   3.073
21466WAT     H164640   3.153   3.748   3.167
21466WAT     H264641   3.235   3.833   3.055
21467WAT      O64642   7.827   4.844   2.381
21467WAT     H164643   7.818   4.863   2.283
21467WAT     H264644   7.746   4.878   2.429
21468WAT      O64645   6.696   4.208   1.023
21468WAT     H164646   6.685   4.213   1.122
21468WAT     H264647   6.609   4.183   0.981
21469WAT      O64648   6.559   3.123   7.100
21469WAT     H164649   6.587   3.206   7.050
21469WAT     H264650   6.606   3.044   7.062
21470WAT      O64651   5.867   3.382   7.971
21470WAT     H164652   5.958   3.379   7.929
21470WAT     H264653   5.874   3.360   8.069
21471WAT      O64654   0.587   5.220   5.583
21471WAT     H164655   0.647   5.295   5.555
21471WAT     H264656   0.642   5.140   5.606
21472WAT      O64657   1.472   6.452   0.167
21472WAT     H164658   1.511   6.406   0.247
21472WAT     H264659   1.486   6.550   0.175
21473WAT      O64660   7.645   8.274   8.776
21473WAT     H164661   7.657   8.192   8.719
21473WAT     H264662   7.725   8.285   8.834
21474WAT      O64663   6.456   8.145   7.704
21474WAT     H164664   6.448   8.243   7.685
21474WAT     H264665   6.408   8.093   7.634
21475WAT      O64666   1.923   0.164   4.630
21475WAT     H164667   2.001   0.220   4.659
21475WAT     H264668   1.853   0.164   4.702
21476WAT      O64669   0.417   9.258   0.671
21476WAT     H164670   0.479   9.279   0.595
21476WAT     H264671   0.466   9.208   0.741
21477WAT      O64672   3.325   4.458   9.839
21477WAT     H164673   3.300   4.364   9.863
21477WAT     H264674   3.245   4.505   9.802
21478WAT      O64675   3.316   8.153   5.796
21478WAT     H164676   3.310   8.127   5.699
21478WAT     H264677   3.404   8.124   5.833
21479WAT      O64678   9.846   9.516   9.185
21479WAT     H164679   9.913   9.510   9.111
21479WAT     H264680   9.888   9.554   9.267
21480WAT      O64681   0.111   1.124   3.017
21480WAT     H164682   0.019   1.085   3.013
21480WAT     H264683   0.175   1.055   3.050
21481WAT      O64684   2.316   4.943   9.777
21481WAT     H164685   2.318   4.891   9.691
21481WAT     H264686   2.409   4.970   9.801
21482WAT      O64687   1.940   2.889   2.634
21482WAT     H164688   1.873   2.859   2.566
21482WAT     H264689   1.925   2.838   2.720
21483WAT      O64690   1.064   6.557   2.046
21483WAT     H164691   1.137   6.490   2.054
21483WAT     H264692   1.016   6.566   2.133
21484WAT      O64693   2.314   9.475   4.250
21484WAT     H164694   2.332   9.553   4.190
21484WAT     H264695   2.228   9.490   4.299
21485WAT      O64696   4.492   7.936   8.438
21485WAT     H164697   4.425   7.862   8.438
21485WAT     H264698   4.454   8.016   8.484
21486WAT      O64699   5.423   1.644   2.158
21486WAT     H164700   5.495   1.585   2.119
21486WAT     H264701   5.419   1.730   2.107
21487WAT      O64702   9.062   2.202   9.880
21487WAT     H164703   9.083   2.106   9.863
21487WAT     H264704   9.144   2.257   9.868
21488WAT      O64705   1.868   8.389   6.799
21488WAT     H164706   1.772   8.361   6.809
21488WAT     H264707   1.872   8.489   6.792
21489WAT      O64708   9.770   4.836   0.541
21489WAT     H164709   9.707   4.900   0.497
21489WAT     H264710   9.756   4.744   0.505
21490WAT      O64711   9.747   8.112   3.801
21490WAT     H164712   9.706   8.025   3.829
21490WAT     H264713   9.772   8.164   3.882
21491WAT      O64714   8.837   9.567   8.706
21491WAT     H164715   8.828   9.605   8.614
21491WAT     H264716   8.930   9.533   8.719
21492WAT      O64717   1.973   9.790   4.840
21492WAT     H164718   1.932   9.752   4.757
21492WAT     H264719   1.933   9.879   4.860
21493WAT      O64720   1.306   4.804   7.834
21493WAT     H164721   1.284   4.873   7.902
21493WAT     H264722   1.245   4.725   7.845
21494WAT      O64723   5.105   8.411   8.506
21494WAT     H164724   5.053   8.495   8.524
21494WAT     H264725   5.202   8.429   8.519
21495WAT      O64726   7.169   0.195   5.201
21495WAT     H164727   7.177   0.292   5.178
21495WAT     H264728   7.124   0.146   5.127
21496WAT      O64729   6.361   7.945   4.742
21496WAT     H164730   6.452   7.977   4.717
21496WAT     H264731   6.369   7.858   4.790
21497WAT      O64732   5.609   2.816   8.698
21497WAT     H164733   5.546   2.829   8.775
21497WAT     H264734   5.671   2.894   8.692
21498WAT      O64735   7.368   4.214   8.672
21498WAT     H164736   7.324   4.176   8.591
21498WAT     H264737   7.405   4.139   8.728
21499WAT      O64738   6.995   0.748   2.674
21499WAT     H164739   6.954   0.661   2.648
21499WAT     H264740   6.968   0.819   2.609
21500WAT      O64741   8.772   7.670   5.045
21500WAT     H164742   8.774   7.622   4.957
21500WAT     H264743   8.784   7.768   5.030
21501WAT      O64744   0.316   3.769   0.406
21501WAT     H164745   0.217   3.764   0.391
21501WAT     H264746   0.350   3.857   0.374
21502WAT      O64747   0.504   0.316   6.423
21502WAT     H164748   0.492   0.345   6.518
21502WAT     H264749   0.505   0.216   6.419
21503WAT      O64750   6.904   9.379   8.431
21503WAT     H164751   7.002   9.389   8.412
21503WAT     H264752   6.887   9.291   8.475
21504WAT      O64753   3.367   6.135   5.205
21504WAT     H164754   3.395   6.139   5.301
21504WAT     H264755   3.340   6.042   5.182
21505WAT      O64756   8.108   8.155   2.328
21505WAT     H164757   8.041   8.197   2.267
21505WAT     H264758   8.126   8.061   2.299
21506WAT      O64759   5.376   7.827   5.640
21506WAT     H164760   5.374   7.840   5.540
21506WAT     H264761   5.325   7.744   5.663
21507WAT      O64762   0.640   1.377   8.905
21507WAT     H164763   0.559   1.318   8.909
21507WAT     H264764   0.655   1.407   8.811
21508WAT      O64765   7.568   9.740   3.896
21508WAT     H164766   7.578   9.840   3.892
21508WAT     H264767   7.605   9.707   3.983
21509WAT      O64768   6.357   3.362   9.499
21509WAT     H164769   6.345   3.335   9.594
21509WAT     H264770   6.360   3.461   9.492
21510WAT      O64771   7.914   1.567   6.350
21510WAT     H164772   7.921   1.505   6.428
21510WAT     H264773   8.005   1.585   6.312
21511WAT      O64774   1.956   4.370   6.401
21511WAT     H164775   1.976   4.272   6.398
21511WAT     H264776   1.858   4.384   6.388
21512WAT      O64777   1.218   2.802   2.403
21512WAT     H164778   1.237   2.711   2.440
21512WAT     H264779   1.132   2.836   2.441
21513WAT      O64780   2.407   4.049   8.238
21513WAT     H164781   2.500   4.019   8.217
21513WAT     H264782   2.411   4.134   8.292
21514WAT      O64783   8.521   5.284   1.670
21514WAT     H164784   8.438   5.293   1.615
21514WAT     H264785   8.596   5.251   1.612
21515WAT      O64786   6.606   3.019   0.999
21515WAT     H164787   6.509   3.007   1.019
21515WAT     H264788   6.645   2.931   0.972
21516WAT      O64789   2.816   7.227   4.149
21516WAT     H164790   2.801   7.292   4.223
21516WAT     H264791   2.856   7.275   4.070
21517WAT      O64792   6.262   6.075   1.372
21517WAT     H164793   6.323   6.152   1.356
21517WAT     H264794   6.257   6.057   1.471
21518WAT      O64795   7.622   1.018   1.114
21518WAT     H164796   7.696   0.984   1.056
21518WAT     H264797   7.548   0.952   1.116
21519WAT      O64798   8.668   3.129   6.731
21519WAT     H164799   8.615   3.045   6.720
21519WAT     H264800   8.610   3.201   6.770
21520WAT      O64801   6.549   5.125   8.841
21520WAT     H164802   6.515   5.155   8.930
21520WAT     H264803   6.616   5.051   8.853
21521WAT      O64804   1.748   3.561   3.960
21521WAT     H164805   1.796   3.634   4.009
21521WAT     H264806   1.810   3.485   3.944
21522WAT      O64807   1.832   8.524   1.347
21522WAT     H164808   1.911   8.471   1.314
21522WAT     H264809   1.794   8.480   1.428
21523WAT      O64810   6.473   1.488   1.689
21523WAT     H164811   6.410   1.564   1.668
21523WAT     H264812   6.498   1.441   1.604
21524WAT      O64813   4.239   6.337   2.087
21524WAT     H164814   4.174   6.352   2.161
21524WAT     H264815   4.280   6.247   2.097
21525WAT      O64816   9.354   3.568   8.083
21525WAT     H164817   9.320   3.634   8.016
21525WAT     H264818   9.299   3.572   8.166
21526WAT      O64819   6.475   5.302   9.282
21526WAT     H164820   6.549   5.369   9.295
21526WAT     H264821   6.510   5.210   9.299
21527WAT      O64822   9.318   5.508   2.750
21527WAT     H164823   9.308   5.418   2.793
21527WAT     H264824   9.354   5.497   2.658
21528WAT      O64825   5.407   2.850   8.915
21528WAT     H164826   5.397   2.772   8.977
21528WAT     H264827   5.433   2.931   8.968
21529WAT      O64828   6.872   9.547   6.007
21529WAT     H164829   6.774   9.544   5.986
21529WAT     H264830   6.925   9.520   5.927
21530WAT      O64831   5.988   1.958   8.469
21530WAT     H164832   5.976   1.860   8.482
21530WAT     H264833   6.013   2.001   8.556
21531WAT      O64834   7.082   1.841   7.961
21531WAT     H164835   7.137   1.892   8.028
21531WAT     H264836   6.985   1.859   7.978
21532WAT      O64837   1.533   2.812   7.085
21532WAT     H164838   1.467   2.885   7.066
21532WAT     H264839   1.499   2.726   7.047
21533WAT      O64840   4.240   1.082   2.916
21533WAT     H164841   4.277   1.029   2.840
21533WAT     H264842   4.148   1.114   2.892
21534WAT      O64843   5.460   4.302   5.214
21534WAT     H164844   5.514   4.328   5.134
21534WAT     H264845   5.518   4.302   5.295
21535WAT      O64846   5.602   9.223   8.984
21535WAT     H164847   5.544   9.301   9.008
21535WAT     H264848   5.610   9.162   9.063
21536WAT      O64849   8.221   0.347   6.803
21536WAT     H164850   8.218   0.351   6.703
21536WAT     H264851   8.226   0.252   6.832
21537WAT      O64852   9.143   1.811   8.515
21537WAT     H164853   9.120   1.896   8.563
21537WAT     H264854   9.063   1.776   8.467
21538WAT      O64855   5.726   6.131   9.382
21538WAT     H164856   5.671   6.068   9.437
21538WAT     H264857   5.738   6.093   9.290
21539WAT      O64858   0.226   0.775   9.800
21539WAT     H164859   0.273   0.835   9.865
21539WAT     H264860   0.228   0.817   9.709
21540WAT      O64861   8.127   6.992   5.541
21540WAT     H164862   8.119   6.979   5.442
21540WAT     H264863   8.096   6.910   5.589
21541WAT      O64864   3.741   7.678   3.752
21541WAT     H164865   3.803   7.757   3.754
21541WAT     H264866   3.776   7.610   3.687
21542WAT      O64867   2.725   3.082   4.623
21542WAT     H164868   2.822   3.089   4.648
21542WAT     H264869   2.707   3.140   4.544
21543WAT      O64870   8.253   4.766   6.216
21543WAT     H164871   8.234   4.683   6.269
21543WAT     H264872   8.318   4.743   6.142
21544WAT      O64873   7.731   6.894   8.556
21544WAT     H164874   7.724   6.848   8.467
21544WAT     H264875   7.778   6.834   8.620
21545WAT      O64876   6.718   1.626   8.232
21545WAT     H164877   6.807   1.599   8.196
21545WAT     H264878   6.657   1.547   8.234
21546WAT      O64879   4.046   2.805   2.853
21546WAT     H164880   4.058   2.714   2.892
21546WAT     H264881   4.135   2.845   2.831
21547WAT      O64882   1.247   7.184   5.275
21547WAT     H164883   1.240   7.084   5.281
21547WAT     H264884   1.182   7.226   5.337
21548WAT      O64885   3.416   0.002   5.144
21548WAT     H164886   3.477   0.076   5.173
21548WAT     H264887   3.417  -0.006   5.045
21549WAT      O64888   9.240   0.630   0.939
21549WAT     H164889   9.273   0.538   0.918
21549WAT     H264890   9.178   0.661   0.867
21550WAT      O64891   1.076   9.617   5.096
21550WAT     H164892   1.060   9.705   5.142
21550WAT     H264893   1.051   9.625   5.000
21551WAT      O64894   8.656   9.591   4.951
21551WAT     H164895   8.651   9.691   4.946
21551WAT     H264896   8.683   9.564   5.044
21552WAT      O64897   6.189   6.661   1.512
21552WAT     H164898   6.108   6.623   1.467
21552WAT     H264899   6.187   6.760   1.508
21553WAT      O64900   8.085   9.196   5.817
21553WAT     H164901   8.000   9.210   5.767
21553WAT     H264902   8.066   9.152   5.905
21554WAT      O64903   3.741   9.465   1.577
21554WAT     H164904   3.670   9.436   1.512
21554WAT     H264905   3.781   9.551   1.545
21555WAT      O64906   4.993   8.708   7.177
21555WAT     H164907   5.016   8.718   7.081
21555WAT     H264908   4.910   8.760   7.197
21556WAT      O64909   7.236   3.754   1.754
21556WAT     H164910   7.267   3.794   1.668
21556WAT     H264911   7.201   3.827   1.813
21557WAT      O64912   8.550   7.965   4.888
21557WAT     H164913   8.494   8.046   4.872
21557WAT     H264914   8.547   7.941   4.985
21558WAT      O64915   4.920   5.323   1.849
21558WAT     H164916   4.845   5.257   1.843
21558WAT     H264917   4.988   5.303   1.778
21559WAT      O64918   8.221   5.674   7.967
21559WAT     H164919   8.224   5.751   7.903
21559WAT     H264920   8.314   5.651   7.996
21560WAT      O64921   4.656   9.347   2.423
21560WAT     H164922   4.610   9.370   2.509
21560WAT     H264923   4.748   9.313   2.442
21561WAT      O64924   7.248   3.780   7.515
21561WAT     H164925   7.342   3.765   7.484
21561WAT     H264926   7.198   3.694   7.511
21562WAT      O64927   1.564   8.293   2.722
21562WAT     H164928   1.556   8.256   2.629
21562WAT     H264929   1.477   8.335   2.748
21563WAT      O64930   6.880   0.218   9.307
21563WAT     H164931   6.824   0.135   9.316
21563WAT     H264932   6.822   0.293   9.273
21564WAT      O64933   2.941   0.077   3.370
21564WAT     H164934   2.845   0.056   3.387
21564WAT     H264935   2.984  -0.001   3.324
21565WAT      O64936   0.760   7.342   1.635
21565WAT     H164937   0.719   7.425   1.673
21565WAT     H264938   0.688   7.281   1.601
21566WAT      O64939   4.378   5.791   4.622
21566WAT     H164940   4.408   5.805   4.717
21566WAT     H264941   4.426   5.712   4.584
21567WAT      O64942   4.299   6.690   8.857
21567WAT     H164943   4.215   6.690   8.803
21567WAT     H264944   4.330   6.596   8.870
21568WAT      O64945   5.432   7.283   5.088
21568WAT     H164946   5.527   7.296   5.115
21568WAT     H264947   5.410   7.343   5.011
21569WAT      O64948   7.517   0.419   9.308
21569WAT     H164949   7.468   0.489   9.360
21569WAT     H264950   7.457   0.383   9.237
21570WAT      O64951   7.457   4.292   4.801
21570WAT     H164952   7.556   4.292   4.785
21570WAT     H264953   7.434   4.219   4.865
21571WAT      O64954   9.455   0.884   9.253
21571WAT     H164955   9.466   0.793   9.214
21571WAT     H264956   9.382   0.882   9.321
21572WAT      O64957   2.548   5.956   3.416
21572WAT     H164958   2.568   6.045   3.375
21572WAT     H264959   2.567   5.883   3.350
21573WAT      O64960   2.159   6.071   4.297
21573WAT     H164961   2.136   6.168   4.285
21573WAT     H264962   2.247   6.052   4.254
21574WAT      O64963   3.516   5.345   5.844
21574WAT     H164964   3.475   5.380   5.928
21574WAT     H264965   3.575   5.414   5.803
21575WAT      O64966   9.260   1.153   5.459
21575WAT     H164967   9.169   1.112   5.456
21575WAT     H264968   9.258   1.242   5.413
21576WAT      O64969   3.043   2.188   7.832
21576WAT     H164970   3.076   2.106   7.878
21576WAT     H264971   3.101   2.266   7.857
21577WAT      O64972   9.085   7.273   5.416
21577WAT     H164973   9.043   7.191   5.376
21577WAT     H264974   9.173   7.248   5.457
21578WAT      O64975   6.802   9.222   5.073
21578WAT     H164976   6.743   9.295   5.041
21578WAT     H264977   6.815   9.230   5.172
21579WAT      O64978   8.987   7.185   6.576
21579WAT     H164979   9.029   7.156   6.490
21579WAT     H264980   9.051   7.244   6.626
21580WAT      O64981   1.863   3.950   1.135
21580WAT     H164982   1.776   3.918   1.173
21580WAT     H264983   1.849   4.039   1.092
21581WAT      O64984   0.099   5.379   4.683
21581WAT     H164985   0.189   5.402   4.719
21581WAT     H264986   0.037   5.361   4.759
21582WAT      O64987   0.081   4.939   4.071
21582WAT     H164988   0.126   5.014   4.022
21582WAT     H264989   0.070   4.965   4.167
21583WAT      O64990   7.287   3.886   0.404
21583WAT     H164991   7.271   3.897   0.306
21583WAT     H264992   7.346   3.806   0.420
21584WAT      O64993   5.235   0.048   3.048
21584WAT     H164994   5.214  -0.045   3.078
21584WAT     H264995   5.255   0.048   2.950
21585WAT      O64996   7.929   7.061   7.324
21585WAT     H164997   7.954   7.057   7.421
21585WAT     H264998   7.947   6.972   7.282
21586WAT      O64999   1.761   0.087   8.191
21586WAT     H165000   1.846   0.120   8.151
21586WAT     H265001   1.738  -0.003   8.153
21587WAT      O65002   0.433   0.243   8.427
21587WAT     H165003   0.441   0.341   8.445
21587WAT     H265004   0.430   0.227   8.328
21588WAT      O65005   2.660   6.810   2.096
21588WAT     H165006   2.676   6.783   2.001
21588WAT     H265007   2.706   6.746   2.157
21589WAT      O65008   3.536   8.861   1.277
21589WAT     H165009   3.569   8.849   1.370
21589WAT     H265010   3.608   8.903   1.221
21590WAT      O65011   8.316   0.191   8.268
21590WAT     H165012   8.302   0.205   8.366
21590WAT     H265013   8.410   0.212   8.244
21591WAT      O65014   5.856   9.293   5.790
21591WAT     H165015   5.896   9.383   5.810
21591WAT     H265016   5.875   9.269   5.694
21592WAT      O65017   8.975   4.587   1.229
21592WAT     H165018   8.991   4.635   1.144
21592WAT     H265019   9.036   4.622   1.300
21593WAT      O65020   3.763   3.018   8.791
21593WAT     H165021   3.744   3.003   8.694
21593WAT     H265022   3.773   2.930   8.837
21594WAT      O65023   2.034   0.246   8.349
21594WAT     H165024   2.081   0.226   8.436
21594WAT     H265025   1.962   0.313   8.365
21595WAT      O65026   6.446   1.486   6.311
21595WAT     H165027   6.453   1.387   6.305
21595WAT     H265028   6.417   1.523   6.223
21596WAT      O65029   6.518   3.835   3.956
21596WAT     H165030   6.507   3.933   3.972
21596WAT     H265031   6.474   3.784   4.030
21597WAT      O65032   9.421   2.750   7.589
21597WAT     H165033   9.454   2.821   7.526
21597WAT     H265034   9.329   2.721   7.560
21598WAT      O65035   8.810   3.750   8.009
21598WAT     H165036   8.756   3.826   8.045
21598WAT     H265037   8.763   3.709   7.931
21599WAT      O65038   1.367   4.760   0.152
21599WAT     H165039   1.464   4.746   0.130
21599WAT     H265040   1.357   4.771   0.251
21600WAT      O65041   8.087   7.180   2.840
21600WAT     H165042   8.006   7.141   2.882
21600WAT     H265043   8.109   7.129   2.757
21601WAT      O65044   7.709   7.584   2.921
21601WAT     H165045   7.784   7.519   2.907
21601WAT     H265046   7.622   7.534   2.927
21602WAT      O65047   9.350   8.610   2.578
21602WAT     H165048   9.341   8.511   2.571
21602WAT     H265049   9.425   8.633   2.640
21603WAT      O65050   2.494   7.419   5.115
21603WAT     H165051   2.591   7.425   5.089
21603WAT     H265052   2.450   7.507   5.102
21604WAT      O65053   3.037   3.281   3.062
21604WAT     H165054   2.948   3.252   3.099
21604WAT     H265055   3.086   3.333   3.131
21605WAT      O65056   1.195   8.356   7.432
21605WAT     H165057   1.192   8.452   7.405
21605WAT     H265058   1.137   8.302   7.371
21606WAT      O65059   6.977   5.781   7.592
21606WAT     H165060   7.037   5.861   7.591
21606WAT     H265061   7.005   5.718   7.665
21607WAT      O65062   8.583   6.804   3.352
21607WAT     H165063   8.665   6.768   3.307
21607WAT     H265064   8.528   6.727   3.387
21608WAT      O65065   5.847   5.090   1.541
21608WAT     H165066   5.898   5.006   1.526
21608WAT     H265067   5.894   5.166   1.496
21609WAT      O65068   8.602   2.047   9.039
21609WAT     H165069   8.515   2.002   9.019
21609WAT     H265070   8.645   2.003   9.118
21610WAT      O65071   4.065   5.321   6.740
21610WAT     H165072   4.132   5.365   6.799
21610WAT     H265073   4.060   5.223   6.763
21611WAT      O65074   2.573   0.390   1.353
21611WAT     H165075   2.563   0.297   1.318
21611WAT     H265076   2.493   0.415   1.407
21612WAT      O65077   3.482   8.992   8.724
21612WAT     H165078   3.399   8.941   8.702
21612WAT     H265079   3.471   9.088   8.697
21613WAT      O65080   0.400   9.546   9.114
21613WAT     H165081   0.472   9.549   9.045
21613WAT     H265082   0.426   9.482   9.187
21614WAT      O65083   1.851   1.592   6.656
21614WAT     H165084   1.929   1.631   6.606
21614WAT     H265085   1.847   1.630   6.748
21615WAT      O65086   5.965   9.709   4.126
21615WAT     H165087   5.936   9.634   4.186
21615WAT     H265088   5.887   9.739   4.070
21616WAT      O65089   7.018   4.326   8.180
21616WAT     H165090   7.013   4.329   8.080
21616WAT     H265091   6.929   4.348   8.219
21617WAT      O65092   9.287   0.162   6.028
21617WAT     H165093   9.262   0.065   6.027
21617WAT     H265094   9.228   0.211   6.092
21618WAT      O65095   5.685   9.109   3.425
21618WAT     H165096   5.587   9.128   3.413
21618WAT     H265097   5.721   9.163   3.500
21619WAT      O65098   4.434   7.405   6.819
21619WAT     H165099   4.533   7.403   6.802
21619WAT     H265100   4.411   7.488   6.870
21620WAT      O65101   6.358   9.699   5.351
21620WAT     H165102   6.303   9.616   5.353
21620WAT     H265103   6.455   9.675   5.352
21621WAT      O65104   4.770   2.764   6.473
21621WAT     H165105   4.684   2.795   6.432
21621WAT     H265106   4.770   2.786   6.571
21622WAT      O65107   0.988   2.429   3.609
21622WAT     H165108   1.079   2.470   3.603
21622WAT     H265109   0.926   2.493   3.654
21623WAT      O65110   0.382   7.852   8.228
21623WAT     H165111   0.339   7.936   8.197
21623WAT     H265112   0.324   7.774   8.205
21624WAT      O65113   9.774   7.483   5.418
21624WAT     H165114   9.794   7.573   5.457
21624WAT     H265115   9.707   7.436   5.476
21625WAT      O65116   0.979   1.131   2.881
21625WAT     H165117   1.008   1.055   2.824
21625WAT     H265118   1.012   1.217   2.841
21626WAT      O65119   6.094   1.342   3.513
21626WAT     H165120   6.110   1.440   3.505
21626WAT     H265121   6.140   1.308   3.596
21627WAT      O65122   9.500   8.676   2.347
21627WAT     H165123   9.565   8.603   2.371
21627WAT     H265124   9.437   8.691   2.423
21628WAT      O65125   5.454   1.789   6.242
21628WAT     H165126   5.362   1.796   6.204
21628WAT     H265127   5.471   1.696   6.273
21629WAT      O65128   6.818   0.017   8.575
21629WAT     H165129   6.786  -0.019   8.487
21629WAT     H265130   6.741   0.024   8.638
21630WAT      O65131   2.804   4.124   1.778
21630WAT     H165132   2.898   4.090   1.778
21630WAT     H265133   2.741   4.050   1.802
21631WAT      O65134   8.598   6.075   8.737
21631WAT     H165135   8.590   6.141   8.811
21631WAT     H265136   8.519   6.082   8.676
21632WAT      O65137   1.061   5.285   2.048
21632WAT     H165138   0.974   5.239   2.028
21632WAT     H265139   1.132   5.217   2.063
21633WAT      O65140   2.839   5.687   0.328
21633WAT     H165141   2.826   5.700   0.230
21633WAT     H265142   2.786   5.608   0.359
21634WAT      O65143   5.818   5.648   1.182
21634WAT     H165144   5.847   5.664   1.087
21634WAT     H265145   5.719   5.639   1.185
21635WAT      O65146   0.575   0.677   4.939
21635WAT     H165147   0.609   0.583   4.926
21635WAT     H265148   0.505   0.696   4.870
21636WAT      O65149   8.432   1.328   6.512
21636WAT     H165150   8.486   1.269   6.454
21636WAT     H265151   8.478   1.416   6.524
21637WAT      O65152   2.249   8.457   4.267
21637WAT     H165153   2.169   8.434   4.321
21637WAT     H265154   2.302   8.374   4.247
21638WAT      O65155   2.350   2.487   1.738
21638WAT     H165156   2.424   2.495   1.805
21638WAT     H265157   2.288   2.565   1.747
21639WAT      O65158   5.711   8.232   4.607
21639WAT     H165159   5.769   8.294   4.659
21639WAT     H265160   5.658   8.284   4.540
21640WAT      O65161   5.835   5.189   3.905
21640WAT     H165162   5.918   5.134   3.899
21640WAT     H265163   5.758   5.137   3.867
21641WAT      O65164   7.150   2.358   1.559
21641WAT     H165165   7.245   2.368   1.591
21641WAT     H265166   7.149   2.305   1.474
21642WAT      O65167   2.350   4.971   7.020
21642WAT     H165168   2.367   5.008   7.112
21642WAT     H265169   2.424   4.909   6.995
21643WAT      O65170   6.361   2.692   8.784
21643WAT     H165171   6.308   2.648   8.712
21643WAT     H265172   6.324   2.784   8.801
21644WAT      O65173   0.357   8.764   9.595
21644WAT     H165174   0.377   8.859   9.572
21644WAT     H265175   0.367   8.707   9.513
21645WAT      O65176   8.326   2.798   0.875
21645WAT     H165177   8.302   2.702   0.881
21645WAT     H265178   8.317   2.829   0.780
21646WAT      O65179   3.373   5.636   9.794
21646WAT     H165180   3.273   5.638   9.793
21646WAT     H265181   3.404   5.543   9.816
21647WAT      O65182   7.504   5.083   2.032
21647WAT     H165183   7.511   5.017   2.107
21647WAT     H265184   7.524   5.037   1.945
21648WAT      O65185   1.598   7.792   6.294
21648WAT     H165186   1.609   7.722   6.223
21648WAT     H265187   1.556   7.873   6.254
21649WAT      O65188   9.859   5.056   3.633
21649WAT     H165189   9.878   4.958   3.626
21649WAT     H265190   9.929   5.107   3.583
21650WAT      O65191   0.884   8.905   7.075
21650WAT     H165192   0.819   8.967   7.118
21650WAT     H265193   0.835   8.828   7.033
21651WAT      O65194   0.006   0.183   7.900
21651WAT     H165195   0.039   0.157   7.809
21651WAT     H265196  -0.091   0.207   7.895
21652WAT      O65197   2.265   0.771   0.632
21652WAT     H165198   2.286   0.690   0.688
21652WAT     H265199   2.166   0.786   0.632
21653WAT      O65200   7.832   0.079   1.758
21653WAT     H165201   7.857   0.176   1.757
21653WAT     H265202   7.806   0.053   1.851
21654WAT      O65203   1.524   5.492   3.011
21654WAT     H165204   1.481   5.578   3.040
21654WAT     H265205   1.504   5.475   2.915
21655WAT      O65206   4.704   7.910   5.024
21655WAT     H165207   4.667   7.890   4.933
21655WAT     H265208   4.802   7.889   5.025
21656WAT      O65209   5.024   4.613   2.150
21656WAT     H165210   4.996   4.521   2.179
21656WAT     H265211   5.064   4.661   2.228
21657WAT      O65212   2.514   4.346   5.405
21657WAT     H165213   2.553   4.322   5.494
21657WAT     H265214   2.582   4.329   5.334
21658WAT      O65215   2.971   3.280   9.867
21658WAT     H165216   2.928   3.326   9.789
21658WAT     H265217   2.987   3.345   9.940
21659WAT      O65218   1.654   6.677   6.059
21659WAT     H165219   1.576   6.727   6.097
21659WAT     H265220   1.739   6.723   6.085
21660WAT      O65221   2.402   4.021   4.125
21660WAT     H165222   2.463   4.035   4.048
21660WAT     H265223   2.455   4.022   4.210
21661WAT      O65224   7.747   6.729   5.890
21661WAT     H165225   7.804   6.811   5.875
21661WAT     H265226   7.797   6.648   5.862
21662WAT      O65227   2.871   7.437   1.691
21662WAT     H165228   2.905   7.444   1.785
21662WAT     H265229   2.780   7.396   1.691
21663WAT      O65230   9.425   1.531   0.870
21663WAT     H165231   9.469   1.540   0.780
21663WAT     H265232   9.438   1.616   0.922
21664WAT      O65233   1.450   3.147   5.972
21664WAT     H165234   1.490   3.079   5.911
21664WAT     H265235   1.519   3.177   6.039
21665WAT      O65236   3.182   8.196   2.071
21665WAT     H165237   3.102   8.140   2.046
21665WAT     H265238   3.235   8.217   1.989
21666WAT      O65239   9.721   7.914   1.417
21666WAT     H165240   9.778   7.872   1.346
21666WAT     H265241   9.675   7.994   1.379
21667WAT      O65242   0.664   9.667   2.022
21667WAT     H165243   0.716   9.664   2.108
21667WAT     H265244   0.704   9.601   1.958
21668WAT      O65245   4.800   0.982   8.028
21668WAT     H165246   4.724   1.048   8.021
21668WAT     H265247   4.871   1.007   7.963
21669WAT      O65248   1.398   5.621   5.061
21669WAT     H165249   1.394   5.690   4.988
21669WAT     H265250   1.335   5.647   5.134
21670WAT      O65251   3.994   4.282   3.544
21670WAT     H165252   3.961   4.334   3.623
21670WAT     H265253   3.989   4.338   3.462
21671WAT      O65254   9.156   4.200   5.659
21671WAT     H165255   9.082   4.236   5.716
21671WAT     H265256   9.150   4.240   5.567
21672WAT      O65257   4.828   8.921   0.674
21672WAT     H165258   4.896   8.857   0.638
21672WAT     H265259   4.748   8.870   0.706
21673WAT      O65260   6.803   4.304   5.712
21673WAT     H165261   6.846   4.244   5.644
21673WAT     H265262   6.784   4.393   5.671
21674WAT      O65263   2.672   8.242   0.475
21674WAT     H165264   2.760   8.199   0.497
21674WAT     H265265   2.603   8.215   0.542
21675WAT      O65266   9.720   2.241   9.857
21675WAT     H165267   9.635   2.217   9.902
21675WAT     H265268   9.797   2.196   9.903
21676WAT      O65269   1.047   4.034   8.070
21676WAT     H165270   1.075   3.939   8.084
21676WAT     H265271   0.950   4.038   8.046
21677WAT      O65272   7.830   7.745   3.123
21677WAT     H165273   7.774   7.701   3.053
21677WAT     H265274   7.926   7.736   3.099
21678WAT      O65275   7.146   6.400   0.004
21678WAT     H165276   7.154   6.305  -0.027
21678WAT     H265277   7.234   6.446  -0.004
21679WAT      O65278   0.360   6.000   8.406
21679WAT     H165279   0.299   6.078   8.390
21679WAT     H265280   0.305   5.918   8.426
21680WAT      O65281   0.879   0.927   3.419
21680WAT     H165282   0.971   0.961   3.441
21680WAT     H265283   0.866   0.838   3.464
21681WAT      O65284   9.486   8.414   0.673
21681WAT     H165285   9.395   8.391   0.707
21681WAT     H265286   9.518   8.498   0.718
21682WAT      O65287   2.776   6.776   6.206
21682WAT     H165288   2.706   6.707   6.193
21682WAT     H265289   2.763   6.851   6.141
21683WAT      O65290   1.649   0.906   7.704
21683WAT     H165291   1.566   0.942   7.747
21683WAT     H265292   1.680   0.970   7.633
21684WAT      O65293   1.252   0.712   4.889
21684WAT     H165294   1.229   0.614   4.885
21684WAT     H265295   1.169   0.764   4.907
21685WAT      O65296   6.185   0.094   2.759
21685WAT     H165297   6.114   0.037   2.716
21685WAT     H265298   6.167   0.100   2.857
21686WAT      O65299   5.204   1.569   8.134
21686WAT     H165300   5.270   1.498   8.161
21686WAT     H265301   5.218   1.592   8.038
21687WAT      O65302   3.339   9.185   5.346
21687WAT     H165303   3.437   9.167   5.358
21687WAT     H265304   3.319   9.278   5.376
21688WAT      O65305   1.886   6.771   3.566
21688WAT     H165306   1.980   6.739   3.579
21688WAT     H265307   1.838   6.768   3.654
21689WAT      O65308   3.819   9.015   3.324
21689WAT     H165309   3.884   8.979   3.391
21689WAT     H265310   3.813   9.114   3.334
21690WAT      O65311   0.473   5.940   3.381
21690WAT     H165312   0.429   5.965   3.295
21690WAT     H265313   0.404   5.930   3.453
21691WAT      O65314   9.221   4.166   7.662
21691WAT     H165315   9.217   4.139   7.758
21691WAT     H265316   9.138   4.135   7.615
21692WAT      O65317   5.680   6.444   6.133
21692WAT     H165318   5.763   6.388   6.137
21692WAT     H265319   5.601   6.389   6.160
21693WAT      O65320   8.975   7.826   4.586
21693WAT     H165321   9.003   7.819   4.682
21693WAT     H265322   8.911   7.753   4.564
21694WAT      O65323   7.404   6.012   6.583
21694WAT     H165324   7.367   6.077   6.516
21694WAT     H265325   7.375   6.040   6.675
21695WAT      O65326   4.854   0.541   4.196
21695WAT     H165327   4.793   0.533   4.275
21695WAT     H265328   4.949   0.530   4.226
21696WAT      O65329   0.435   5.650   4.404
21696WAT     H165330   0.417   5.706   4.323
21696WAT     H265331   0.517   5.594   4.388
21697WAT      O65332   6.856   7.704   0.209
21697WAT     H165333   6.825   7.791   0.172
21697WAT     H265334   6.954   7.694   0.195
21698WAT      O65335   8.709   5.243   0.618
21698WAT     H165336   8.663   5.304   0.553
21698WAT     H265337   8.745   5.297   0.694
21699WAT      O65338   1.895   0.132   2.823
21699WAT     H165339   1.925   0.199   2.891
21699WAT     H265340   1.841   0.178   2.753
21700WAT      O65341   2.409   9.361   4.757
21700WAT     H165342   2.440   9.427   4.825
21700WAT     H265343   2.418   9.401   4.666
21701WAT      O65344   6.810   0.783   5.491
21701WAT     H165345   6.906   0.781   5.462
21701WAT     H265346   6.792   0.705   5.550
21702WAT      O65347   5.502   0.283   1.375
21702WAT     H165348   5.593   0.277   1.334
21702WAT     H265349   5.451   0.359   1.332
21703WAT      O65350   2.976   1.522   0.677
21703WAT     H165351   2.914   1.584   0.629
21703WAT     H265352   3.052   1.573   0.716
21704WAT      O65353   1.416   9.764   1.588
21704WAT     H165354   1.485   9.821   1.543
21704WAT     H265355   1.460   9.701   1.652
21705WAT      O65356   2.923   6.900   8.169
21705WAT     H165357   2.890   6.993   8.154
21705WAT     H265358   2.906   6.845   8.087
21706WAT      O65359   7.976   7.813   2.583
21706WAT     H165360   7.973   7.848   2.489
21706WAT     H265361   7.889   7.771   2.606
21707WAT      O65362   3.561   0.711   6.737
21707WAT     H165363   3.531   0.646   6.667
21707WAT     H265364   3.483   0.761   6.773
21708WAT      O65365   1.891   0.117   5.458
21708WAT     H165366   1.869   0.044   5.522
21708WAT     H265367   1.902   0.203   5.508
21709WAT      O65368   6.787   8.789   8.481
21709WAT     H165369   6.823   8.852   8.412
21709WAT     H265370   6.766   8.701   8.437
21710WAT      O65371   6.231   0.844   8.093
21710WAT     H165372   6.176   0.778   8.043
21710WAT     H265373   6.294   0.890   8.031
21711WAT      O65374   7.038   5.831   4.133
21711WAT     H165375   7.013   5.748   4.183
21711WAT     H265376   7.031   5.910   4.193
21712WAT      O65377   4.815   5.953   9.843
21712WAT     H165378   4.886   6.011   9.802
21712WAT     H265379   4.728   5.969   9.795
21713WAT      O65380   4.770   7.969   7.359
21713WAT     H165381   4.853   7.924   7.326
21713WAT     H265382   4.795   8.046   7.418
21714WAT      O65383   2.005   7.940   8.453
21714WAT     H165384   2.054   7.859   8.420
21714WAT     H265385   1.934   7.912   8.518
21715WAT      O65386   7.023   0.620   6.526
21715WAT     H165387   6.939   0.664   6.492
21715WAT     H265388   7.102   0.662   6.481
21716WAT      O65389   4.469   7.991   4.247
21716WAT     H165390   4.445   7.937   4.166
21716WAT     H265391   4.429   7.949   4.328
21717WAT      O65392   7.029   9.356   0.779
21717WAT     H165393   6.984   9.446   0.777
21717WAT     H265394   7.046   9.325   0.685
21718WAT      O65395   2.670   4.062   6.965
21718WAT     H165396   2.705   4.094   7.054
21718WAT     H265397   2.693   4.129   6.895
21719WAT      O65398   2.841   2.781   9.783
21719WAT     H165399   2.862   2.863   9.836
21719WAT     H265400   2.776   2.724   9.833
21720WAT      O65401   2.462   3.112   3.706
21720WAT     H165402   2.443   3.047   3.779
21720WAT     H265403   2.472   3.204   3.746
21721WAT      O65404   7.468   1.853   6.198
21721WAT     H165405   7.461   1.861   6.099
21721WAT     H265406   7.563   1.842   6.224
21722WAT      O65407   2.244   7.189   0.119
21722WAT     H165408   2.152   7.150   0.129
21722WAT     H265409   2.310   7.116   0.103
21723WAT      O65410   1.718   4.121   6.651
21723WAT     H165411   1.660   4.201   6.666
21723WAT     H265412   1.813   4.144   6.674
21724WAT      O65413   1.114   4.959   0.372
21724WAT     H165414   1.163   5.024   0.429
21724WAT     H265415   1.131   4.979   0.275
21725WAT      O65416   6.247   8.791   0.425
21725WAT     H165417   6.323   8.753   0.372
21725WAT     H265418   6.197   8.717   0.470
21726WAT      O65419   0.295   5.594   4.000
21726WAT     H165420   0.389   5.561   3.997
21726WAT     H265421   0.241   5.534   4.059
21727WAT      O65422   4.838   5.786   9.521
21727WAT     H165423   4.926   5.816   9.558
21727WAT     H265424   4.765   5.843   9.559
21728WAT      O65425   7.681   6.696   6.332
21728WAT     H165426   7.634   6.620   6.288
21728WAT     H265427   7.654   6.701   6.428
21729WAT      O65428   4.877   3.415   3.803
21729WAT     H165429   4.911   3.424   3.709
21729WAT     H265430   4.821   3.332   3.810
21730WAT      O65431   2.845   8.157   8.608
21730WAT     H165432   2.903   8.239   8.608
21730WAT     H265433   2.902   8.076   8.619
21731WAT      O65434   4.206   7.891   1.043
21731WAT     H165435   4.112   7.875   1.014
21731WAT     H265436   4.230   7.987   1.029
21732WAT      O65437   0.732   9.516   5.847
21732WAT     H165438   0.711   9.419   5.838
21732WAT     H265439   0.786   9.546   5.769
21733WAT      O65440   2.553   7.443   6.354
21733WAT     H165441   2.476   7.412   6.411
21733WAT     H265442   2.574   7.538   6.377
21734WAT      O65443   2.127   0.664   8.631
21734WAT     H165444   2.052   0.714   8.587
21734WAT     H265445   2.090   0.609   8.705
21735WAT      O65446   2.194   0.623   0.235
21735WAT     H165447   2.275   0.572   0.205
21735WAT     H265448   2.134   0.638   0.156
21736WAT      O65449   4.725   8.296   8.353
21736WAT     H165450   4.691   8.266   8.264
21736WAT     H265451   4.819   8.265   8.366
21737WAT      O65452   4.741   9.134   6.202
21737WAT     H165453   4.818   9.082   6.239
21737WAT     H265454   4.744   9.130   6.102
21738WAT      O65455   2.065   4.928   7.917
21738WAT     H165456   2.000   5.003   7.930
21738WAT     H265457   2.049   4.885   7.828
21739WAT      O65458   1.769   1.002   2.981
21739WAT     H165459   1.740   0.953   2.899
21739WAT     H265460   1.842   1.066   2.957
21740WAT      O65461   0.832   4.023   4.820
21740WAT     H165462   0.843   4.047   4.917
21740WAT     H265463   0.765   3.949   4.811
21741WAT      O65464   6.524   2.878   8.084
21741WAT     H165465   6.473   2.933   8.018
21741WAT     H265466   6.461   2.818   8.133
21742WAT      O65467   7.744   1.479   7.757
21742WAT     H165468   7.782   1.554   7.705
21742WAT     H265469   7.818   1.427   7.801
21743WAT      O65470   3.477   2.234   5.812
21743WAT     H165471   3.483   2.321   5.862
21743WAT     H265472   3.498   2.249   5.716
21744WAT      O65473   4.364   1.664   6.016
21744WAT     H165474   4.301   1.741   6.014
21744WAT     H265475   4.453   1.692   5.982
21745WAT      O65476   1.760   5.958   8.099
21745WAT     H165477   1.689   5.990   8.162
21745WAT     H265478   1.788   5.866   8.125
21746WAT      O65479   7.457   3.693   0.453
21746WAT     H165480   7.446   3.654   0.545
21746WAT     H265481   7.545   3.664   0.416
21747WAT      O65482   5.310   2.972   7.661
21747WAT     H165483   5.261   2.953   7.576
21747WAT     H265484   5.326   2.885   7.709
21748WAT      O65485   3.677   0.905   0.019
21748WAT     H165486   3.756   0.924  -0.039
21748WAT     H265487   3.662   0.807   0.025
21749WAT      O65488   3.589   5.204   1.245
21749WAT     H165489   3.585   5.213   1.146
21749WAT     H265490   3.606   5.294   1.286
21750WAT      O65491   0.434   7.583   6.606
21750WAT     H165492   0.500   7.635   6.659
21750WAT     H265493   0.348   7.576   6.657
21751WAT      O65494   7.960   9.180   8.604
21751WAT     H165495   8.037   9.243   8.609
21751WAT     H265496   7.966   9.127   8.519
21752WAT      O65497   9.293   4.725   0.568
21752WAT     H165498   9.255   4.776   0.491
21752WAT     H265499   9.225   4.661   0.602
21753WAT      O65500   3.882   5.296   2.161
21753WAT     H165501   3.943   5.288   2.082
21753WAT     H265502   3.926   5.255   2.241
21754WAT      O65503   7.086   5.891   8.601
21754WAT     H165504   7.084   5.908   8.699
21754WAT     H265505   7.180   5.878   8.570
21755WAT      O65506   7.102   3.019   4.242
21755WAT     H165507   7.175   3.083   4.219
21755WAT     H265508   7.101   2.943   4.177
21756WAT      O65509   8.536   1.142   0.838
21756WAT     H165510   8.439   1.155   0.858
21756WAT     H265511   8.561   1.199   0.760
21757WAT      O65512   2.996   7.358   4.488
21757WAT     H165513   2.899   7.345   4.465
21757WAT     H265514   3.022   7.296   4.562
21758WAT      O65515   2.489   4.968   5.228
21758WAT     H165516   2.422   5.039   5.247
21758WAT     H265517   2.513   4.921   5.314
21759WAT      O65518   9.372   5.775   7.631
21759WAT     H165519   9.373   5.675   7.626
21759WAT     H265520   9.342   5.804   7.722
21760WAT      O65521   4.867   6.553   0.103
21760WAT     H165522   4.922   6.601   0.034
21760WAT     H265523   4.777   6.598   0.110
21761WAT      O65524   1.179   1.972   4.045
21761WAT     H165525   1.271   1.942   4.071
21761WAT     H265526   1.160   1.944   3.951
21762WAT      O65527   1.467   7.177   0.897
21762WAT     H165528   1.432   7.091   0.933
21762WAT     H265529   1.533   7.217   0.961
21763WAT      O65530   3.430   0.955   1.344
21763WAT     H165531   3.519   1.001   1.337
21763WAT     H265532   3.438   0.878   1.407
21764WAT      O65533   0.785   7.956   1.454
21764WAT     H165534   0.751   8.050   1.454
21764WAT     H265535   0.709   7.894   1.435
21765WAT      O65536   7.463   9.579   4.857
21765WAT     H165537   7.507   9.500   4.899
21765WAT     H265538   7.505   9.597   4.768
21766WAT      O65539   2.994   7.135   6.544
21766WAT     H165540   2.901   7.161   6.570
21766WAT     H265541   3.027   7.197   6.472
21767WAT      O65542   5.806   5.718   4.418
21767WAT     H165543   5.874   5.752   4.483
21767WAT     H265544   5.797   5.619   4.427
21768WAT      O65545   1.055   4.561   8.181
21768WAT     H165546   1.028   4.593   8.272
21768WAT     H265547   1.038   4.463   8.175
21769WAT      O65548   5.247   7.530   1.442
21769WAT     H165549   5.250   7.626   1.412
21769WAT     H265550   5.174   7.482   1.392
21770WAT      O65551   7.120   7.970   9.746
21770WAT     H165552   7.042   7.908   9.759
21770WAT     H265553   7.090   8.064   9.756
21771WAT      O65554   9.846   7.630   0.001
21771WAT     H165555   9.871   7.723   0.028
21771WAT     H265556   9.922   7.586  -0.046
21772WAT      O65557   9.798   4.228   3.726
21772WAT     H165558   9.771   4.297   3.659
21772WAT     H265559   9.731   4.154   3.726
21773WAT      O65560   6.344   3.358   3.797
21773WAT     H165561   6.441   3.373   3.774
21773WAT     H265562   6.328   3.261   3.810
21774WAT      O65563   8.627   6.189   1.781
21774WAT     H165564   8.688   6.268   1.791
21774WAT     H265565   8.549   6.199   1.843
21775WAT      O65566   3.926   8.556   6.283
21775WAT     H165567   3.962   8.528   6.194
21775WAT     H265568   3.826   8.544   6.284
21776WAT      O65569   6.902   0.699   8.104
21776WAT     H165570   6.807   0.668   8.107
21776WAT     H265571   6.911   0.771   8.035
21777WAT      O65572   4.017   1.476   8.033
21777WAT     H165573   4.028   1.519   8.123
21777WAT     H265574   4.107   1.461   7.993
21778WAT      O65575   1.227   6.967   1.490
21778WAT     H165576   1.263   7.037   1.551
21778WAT     H265577   1.133   6.990   1.464
21779WAT      O65578   6.808   8.188   5.172
21779WAT     H165579   6.782   8.241   5.253
21779WAT     H265580   6.844   8.249   5.102
21780WAT      O65581   1.684   9.605   0.220
21780WAT     H165582   1.779   9.633   0.216
21780WAT     H265583   1.668   9.552   0.304
21781WAT      O65584   3.974   9.615   5.489
21781WAT     H165585   3.985   9.711   5.515
21781WAT     H265586   3.938   9.564   5.567
21782WAT      O65587   7.757   5.090   3.547
21782WAT     H165588   7.815   5.011   3.566
21782WAT     H265589   7.661   5.063   3.558
21783WAT      O65590   7.331   1.340   5.477
21783WAT     H165591   7.366   1.268   5.418
21783WAT     H265592   7.268   1.301   5.544
21784WAT      O65593   9.378   1.703   8.634
21784WAT     H165594   9.368   1.746   8.725
21784WAT     H265595   9.298   1.726   8.578
21785WAT      O65596   2.179   8.982   0.385
21785WAT     H165597   2.205   9.031   0.302
21785WAT     H265598   2.215   9.030   0.465
21786WAT      O65599   8.383   6.106   4.078
21786WAT     H165600   8.317   6.151   4.138
21786WAT     H265601   8.364   6.008   4.075
21787WAT      O65602   6.639   7.372   0.725
21787WAT     H165603   6.680   7.331   0.644
21787WAT     H265604   6.642   7.306   0.800
21788WAT      O65605   3.649   9.584   6.887
21788WAT     H165606   3.669   9.516   6.816
21788WAT     H265607   3.717   9.657   6.884
21789WAT      O65608   9.756   3.878   8.907
21789WAT     H165609   9.825   3.842   8.971
21789WAT     H265610   9.733   3.807   8.840
21790WAT      O65611   9.386   3.713   1.600
21790WAT     H165612   9.312   3.774   1.628
21790WAT     H265613   9.465   3.768   1.572
21791WAT      O65614   8.772   6.348   9.572
21791WAT     H165615   8.735   6.423   9.518
21791WAT     H265616   8.755   6.262   9.524
21792WAT      O65617   0.450   8.558   9.077
21792WAT     H165618   0.438   8.468   9.119
21792WAT     H265619   0.367   8.581   9.025
21793WAT      O65620   8.111   9.309   7.990
21793WAT     H165621   8.138   9.311   7.894
21793WAT     H265622   8.015   9.281   7.997
21794WAT      O65623   9.848   1.685   3.983
21794WAT     H165624   9.879   1.596   4.018
21794WAT     H265625   9.832   1.679   3.885
21795WAT      O65626   6.853   4.875   5.095
21795WAT     H165627   6.882   4.894   5.189
21795WAT     H265628   6.863   4.957   5.039
21796WAT      O65629   1.854   4.632   9.520
21796WAT     H165630   1.760   4.634   9.553
21796WAT     H265631   1.896   4.546   9.545
21797WAT      O65632   7.575   1.923   9.093
21797WAT     H165633   7.603   1.910   8.998
21797WAT     H265634   7.523   1.843   9.123
21798WAT      O65635   8.767   2.881   7.988
21798WAT     H165636   8.681   2.929   7.969
21798WAT     H265637   8.748   2.783   7.997
21799WAT      O65638   5.217   2.675   6.811
21799WAT     H165639   5.270   2.590   6.814
21799WAT     H265640   5.137   2.662   6.752
21800WAT      O65641   3.226   1.171   0.089
21800WAT     H165642   3.219   1.098   0.158
21800WAT     H265643   3.310   1.158   0.036
21801WAT      O65644   0.083   3.563   3.192
21801WAT     H165645   0.066   3.603   3.282
21801WAT     H265646   0.028   3.480   3.182
21802WAT      O65647   7.693   2.910   5.466
21802WAT     H165648   7.712   2.940   5.559
21802WAT     H265649   7.745   2.966   5.401
21803WAT      O65650   7.468   2.322   7.379
21803WAT     H165651   7.392   2.273   7.423
21803WAT     H265652   7.432   2.399   7.327
21804WAT      O65653   8.808   4.315   3.520
21804WAT     H165654   8.904   4.324   3.547
21804WAT     H265655   8.756   4.393   3.555
21805WAT      O65656   4.896   6.527   2.865
21805WAT     H165657   4.870   6.593   2.795
21805WAT     H265658   4.899   6.572   2.954
21806WAT      O65659   9.687   6.628   9.829
21806WAT     H165660   9.595   6.665   9.829
21806WAT     H265661   9.743   6.676   9.762
21807WAT      O65662   2.338   2.261   2.074
21807WAT     H165663   2.416   2.200   2.059
21807WAT     H265664   2.358   2.351   2.036
21808WAT      O65665   6.016   2.771   1.679
21808WAT     H165666   6.085   2.792   1.748
21808WAT     H265667   5.983   2.677   1.693
21809WAT      O65668   6.994   1.077   6.724
21809WAT     H165669   6.992   1.036   6.815
21809WAT     H265670   6.906   1.064   6.679
21810WAT      O65671   8.224   0.461   4.650
21810WAT     H165672   8.227   0.361   4.648
21810WAT     H265673   8.140   0.492   4.605
21811WAT      O65674   6.326   8.476   0.282
21811WAT     H165675   6.355   8.393   0.330
21811WAT     H265676   6.235   8.502   0.314
21812WAT      O65677   7.872   4.827   0.298
21812WAT     H165678   7.849   4.759   0.367
21812WAT     H265679   7.940   4.891   0.334
21813WAT      O65680   0.557   3.475   5.281
21813WAT     H165681   0.507   3.562   5.274
21813WAT     H265682   0.511   3.415   5.346
21814WAT      O65683   8.976   7.108   4.510
21814WAT     H165684   8.901   7.171   4.492
21814WAT     H265685   8.941   7.014   4.514
21815WAT      O65686   4.457   4.933   2.308
21815WAT     H165687   4.424   5.020   2.344
21815WAT     H265688   4.393   4.899   2.239
21816WAT      O65689   8.221   5.852   9.557
21816WAT     H165690   8.279   5.804   9.623
21816WAT     H265691   8.149   5.901   9.605
21817WAT      O65692   1.877   1.033   4.750
21817WAT     H165693   1.908   0.948   4.792
21817WAT     H265694   1.869   1.020   4.651
21818WAT      O65695   1.884   4.689   6.661
21818WAT     H165696   1.811   4.724   6.602
21818WAT     H265697   1.861   4.596   6.690
21819WAT      O65698   0.666   4.501   0.427
21819WAT     H165699   0.732   4.446   0.479
21819WAT     H265700   0.636   4.449   0.347
21820WAT      O65701   0.085   5.000   8.182
21820WAT     H165702   0.128   4.912   8.165
21820WAT     H265703   0.075   5.014   8.280
21821WAT      O65704   0.017   8.003   5.931
21821WAT     H165705   0.101   8.056   5.920
21821WAT     H265706  -0.046   8.052   5.991
21822WAT      O65707   1.089   2.609   5.226
21822WAT     H165708   1.139   2.694   5.239
21822WAT     H265709   1.061   2.573   5.315
21823WAT      O65710   6.113   4.857   9.236
21823WAT     H165711   6.066   4.768   9.234
21823WAT     H265712   6.120   4.893   9.143
21824WAT      O65713   0.055   9.662   3.534
21824WAT     H165714   0.115   9.620   3.602
21824WAT     H265715   0.100   9.660   3.445
21825WAT      O65716   2.805   0.514   4.872
21825WAT     H165717   2.707   0.534   4.863
21825WAT     H265718   2.852   0.595   4.906
21826WAT      O65719   0.673   1.477   0.121
21826WAT     H165720   0.621   1.556   0.153
21826WAT     H265721   0.633   1.393   0.156
21827WAT      O65722   0.991   3.954   5.908
21827WAT     H165723   1.021   3.991   5.820
21827WAT     H265724   1.071   3.940   5.966
21828WAT      O65725   2.010   4.581   5.466
21828WAT     H165726   1.936   4.578   5.533
21828WAT     H265727   2.061   4.666   5.476
21829WAT      O65728   2.172   6.168   8.343
21829WAT     H165729   2.182   6.147   8.246
21829WAT     H265730   2.076   6.159   8.370
21830WAT      O65731   3.583   3.158   3.465
21830WAT     H165732   3.591   3.215   3.547
21830WAT     H265733   3.665   3.101   3.455
21831WAT      O65734   4.666   4.165   9.000
21831WAT     H165735   4.665   4.087   9.062
21831WAT     H265736   4.758   4.177   8.963
21832WAT      O65737   4.733   0.682   8.661
21832WAT     H165738   4.688   0.657   8.747
21832WAT     H265739   4.818   0.630   8.652
21833WAT      O65740   0.019   8.102   9.777
21833WAT     H165741   0.113   8.128   9.802
21833WAT     H265742  -0.045   8.162   9.825
21834WAT      O65743   3.676   7.888   6.673
21834WAT     H165744   3.576   7.891   6.674
21834WAT     H265745   3.711   7.922   6.760
21835WAT      O65746   9.258   8.893   0.275
21835WAT     H165747   9.354   8.914   0.295
21835WAT     H265748   9.237   8.920   0.181
21836WAT      O65749   3.331   3.971   8.007
21836WAT     H165750   3.242   3.993   8.046
21836WAT     H265751   3.397   4.043   8.030
21837WAT      O65752   5.371   5.950   6.284
21837WAT     H165753   5.445   6.016   6.301
21837WAT     H265754   5.334   5.918   6.371
21838WAT      O65755   3.672   2.913   1.308
21838WAT     H165756   3.698   2.963   1.390
21838WAT     H265757   3.637   2.976   1.239
21839WAT      O65758   5.701   0.331   6.335
21839WAT     H165759   5.726   0.354   6.241
21839WAT     H265760   5.612   0.287   6.336
21840WAT      O65761   9.252   9.145   4.450
21840WAT     H165762   9.206   9.056   4.451
21840WAT     H265763   9.260   9.178   4.356
21841WAT      O65764   1.788   1.658   7.313
21841WAT     H165765   1.736   1.743   7.328
21841WAT     H265766   1.884   1.674   7.335
21842WAT      O65767   6.285   3.774   8.638
21842WAT     H165768   6.214   3.844   8.640
21842WAT     H265769   6.372   3.815   8.667
21843WAT      O65770   6.803   7.702   8.453
21843WAT     H165771   6.719   7.726   8.404
21843WAT     H265772   6.839   7.782   8.500
21844WAT      O65773   8.479   3.566   0.746
21844WAT     H165774   8.541   3.645   0.747
21844WAT     H265775   8.462   3.538   0.652
21845WAT      O65776   8.180   9.522   5.230
21845WAT     H165777   8.182   9.622   5.233
21845WAT     H265778   8.187   9.485   5.323
21846WAT      O65779   9.446   2.758   1.844
21846WAT     H165780   9.527   2.731   1.791
21846WAT     H265781   9.409   2.843   1.807
21847WAT      O65782   9.102   1.151   4.449
21847WAT     H165783   9.152   1.237   4.447
21847WAT     H265784   9.022   1.160   4.509
21848WAT      O65785   9.494   7.301   1.612
21848WAT     H165786   9.410   7.330   1.566
21848WAT     H265787   9.530   7.220   1.566
21849WAT      O65788   5.227   5.800   0.955
21849WAT     H165789   5.313   5.763   0.990
21849WAT     H265790   5.240   5.832   0.861
21850WAT      O65791   8.708   4.270   8.915
21850WAT     H165792   8.714   4.173   8.892
21850WAT     H265793   8.627   4.286   8.971
21851WAT      O65794   1.842   5.806   4.932
21851WAT     H165795   1.784   5.772   4.858
21851WAT     H265796   1.910   5.869   4.895
21852WAT      O65797   8.537   3.495   3.770
21852WAT     H165798   8.590   3.571   3.732
21852WAT     H265799   8.460   3.475   3.710
21853WAT      O65800   8.880   3.702   6.998
21853WAT     H165801   8.798   3.650   6.978
21853WAT     H265802   8.953   3.640   7.027
21854WAT      O65803   0.303   3.094   5.516
21854WAT     H165804   0.245   3.013   5.502
21854WAT     H265805   0.283   3.134   5.605
21855WAT      O65806   8.093   3.892   3.324
21855WAT     H165807   8.148   3.814   3.356
21855WAT     H265808   8.151   3.953   3.269
21856WAT      O65809   5.717   0.737   2.310
21856WAT     H165810   5.726   0.796   2.230
21856WAT     H265811   5.677   0.650   2.283
21857WAT      O65812   7.734   2.233   5.602
21857WAT     H165813   7.830   2.238   5.629
21857WAT     H265814   7.676   2.269   5.675
21858WAT      O65815   9.117   9.180   8.683
21858WAT     H165816   9.193   9.217   8.632
21858WAT     H265817   9.051   9.138   8.620
21859WAT      O65818   5.446   6.522   5.892
21859WAT     H165819   5.412   6.443   5.943
21859WAT     H265820   5.473   6.594   5.956
21860WAT      O65821   4.763   8.848   8.709
21860WAT     H165822   4.765   8.946   8.688
21860WAT     H265823   4.822   8.830   8.788
21861WAT      O65824   8.006   2.799   6.094
21861WAT     H165825   8.004   2.832   6.188
21861WAT     H265826   7.966   2.867   6.033
21862WAT      O65827   1.967   2.355   2.745
21862WAT     H165828   1.868   2.348   2.730
21862WAT     H265829   2.007   2.412   2.673
21863WAT      O65830   8.538   0.667   0.853
21863WAT     H165831   8.545   0.603   0.930
21863WAT     H265832   8.538   0.761   0.888
21864WAT      O65833   5.258   1.797   5.806
21864WAT     H165834   5.210   1.864   5.750
21864WAT     H265835   5.341   1.839   5.843
21865WAT      O65836   4.352   3.957   7.520
21865WAT     H165837   4.416   3.961   7.597
21865WAT     H265838   4.404   3.961   7.434
21866WAT      O65839   5.109   8.234   3.479
21866WAT     H165840   5.109   8.312   3.542
21866WAT     H265841   5.203   8.199   3.470
21867WAT      O65842   0.800   7.353   0.539
21867WAT     H165843   0.803   7.379   0.636
21867WAT     H265844   0.804   7.254   0.531
21868WAT      O65845   1.071   2.412   8.596
21868WAT     H165846   1.150   2.382   8.649
21868WAT     H265847   0.987   2.378   8.638
21869WAT      O65848   1.014   7.073   6.212
21869WAT     H165849   1.033   7.025   6.297
21869WAT     H265850   0.999   7.005   6.139
21870WAT      O65851   4.731   1.950   6.852
21870WAT     H165852   4.811   1.938   6.794
21870WAT     H265853   4.760   1.969   6.946
21871WAT      O65854   9.503   5.252   8.279
21871WAT     H165855   9.425   5.197   8.251
21871WAT     H265856   9.487   5.288   8.371
21872WAT      O65857   4.877   3.910   9.639
21872WAT     H165858   4.902   3.946   9.549
21872WAT     H265859   4.925   3.824   9.656
21873WAT      O65860   8.964   8.937   5.403
21873WAT     H165861   8.990   8.850   5.444
21873WAT     H265862   8.868   8.957   5.425
21874WAT      O65863   5.396   3.312   3.736
21874WAT     H165864   5.447   3.397   3.720
21874WAT     H265865   5.431   3.266   3.817
21875WAT      O65866   5.889   2.542   4.742
21875WAT     H165867   5.957   2.612   4.760
21875WAT     H265868   5.823   2.576   4.674
21876WAT      O65869   5.105   2.089   9.014
21876WAT     H165870   5.075   2.069   9.107
21876WAT     H265871   5.026   2.087   8.953
21877WAT      O65872   9.521   6.950   1.921
21877WAT     H165873   9.525   6.870   1.981
21877WAT     H265874   9.427   6.966   1.891
21878WAT      O65875   9.666   5.895   5.355
21878WAT     H165876   9.659   5.915   5.258
21878WAT     H265877   9.576   5.867   5.390
21879WAT      O65878   3.538   2.469   4.461
21879WAT     H165879   3.445   2.486   4.494
21879WAT     H265880   3.603   2.476   4.537
21880WAT      O65881   5.913   4.659   1.809
21880WAT     H165882   5.849   4.645   1.734
21880WAT     H265883   5.912   4.580   1.870
21881WAT      O65884   8.333   4.903   3.102
21881WAT     H165885   8.407   4.905   3.170
21881WAT     H265886   8.268   4.976   3.122
21882WAT      O65887   5.682   4.491   9.347
21882WAT     H165888   5.727   4.512   9.434
21882WAT     H265889   5.635   4.403   9.354
21883WAT      O65890   9.354   2.937   0.230
21883WAT     H165891   9.353   3.037   0.221
21883WAT     H265892   9.275   2.898   0.183
21884WAT      O65893   2.883   2.489   9.184
21884WAT     H165894   2.965   2.447   9.147
21884WAT     H265895   2.887   2.489   9.284
21885WAT      O65896   8.458   4.666   1.270
21885WAT     H165897   8.483   4.664   1.173
21885WAT     H265898   8.389   4.597   1.288
21886WAT      O65899   0.490   1.719   1.309
21886WAT     H165900   0.501   1.818   1.317
21886WAT     H265901   0.458   1.682   1.397
21887WAT      O65902   1.864   5.448   5.292
21887WAT     H165903   1.801   5.524   5.306
21887WAT     H265904   1.816   5.374   5.243
21888WAT      O65905   7.108   8.132   8.895
21888WAT     H165906   7.032   8.185   8.931
21888WAT     H265907   7.145   8.177   8.814
21889WAT      O65908   5.038   5.890   6.592
21889WAT     H165909   4.975   5.958   6.554
21889WAT     H265910   4.986   5.816   6.635
21890WAT      O65911   4.007   6.153   2.367
21890WAT     H165912   3.942   6.077   2.368
21890WAT     H265913   4.090   6.126   2.416
21891WAT      O65914   2.865   6.464   8.203
21891WAT     H165915   2.867   6.537   8.272
21891WAT     H265916   2.944   6.405   8.216
21892WAT      O65917   7.402   9.585   1.128
21892WAT     H165918   7.353   9.566   1.214
21892WAT     H265919   7.369   9.671   1.089
21893WAT      O65920   8.905   8.856   2.570
21893WAT     H165921   8.925   8.853   2.668
21893WAT     H265922   8.967   8.921   2.525
21894WAT      O65923   6.326   4.846   1.033
21894WAT     H165924   6.231   4.827   1.057
21894WAT     H265925   6.369   4.762   0.999
21895WAT      O65926   1.011   1.474   8.176
21895WAT     H165927   1.042   1.462   8.082
21895WAT     H265928   0.931   1.534   8.178
21896WAT      O65929   8.797   0.870   7.141
21896WAT     H165930   8.820   0.905   7.051
21896WAT     H265931   8.855   0.914   7.210
21897WAT      O65932   7.076   6.631   9.764
21897WAT     H165933   7.081   6.562   9.836
21897WAT     H265934   7.028   6.712   9.799
21898WAT      O65935   7.516   9.542   0.085
21898WAT     H165936   7.471   9.478   0.147
21898WAT     H265937   7.544   9.494   0.002
21899WAT      O65938   6.703   4.134   0.347
21899WAT     H165939   6.675   4.038   0.354
21899WAT     H265940   6.772   4.144   0.276
21900WAT      O65941   1.325   6.352   4.288
21900WAT     H165942   1.308   6.260   4.252
21900WAT     H265943   1.416   6.356   4.328
21901WAT      O65944   7.821   4.416   1.795
21901WAT     H165945   7.723   4.422   1.815
21901WAT     H265946   7.842   4.324   1.761
21902WAT      O65947   8.073   3.080   8.592
21902WAT     H165948   8.128   3.103   8.511
21902WAT     H265949   8.040   3.164   8.634
21903WAT      O65950   3.921   2.225   6.009
21903WAT     H165951   3.835   2.176   5.997
21903WAT     H265952   3.902   2.321   6.031
21904WAT      O65953   6.470   6.697   8.466
21904WAT     H165954   6.558   6.666   8.428
21904WAT     H265955   6.436   6.628   8.530
21905WAT      O65956   3.445   6.909   4.026
21905WAT     H165957   3.373   6.874   3.965
21905WAT     H265958   3.421   6.888   4.121
21906WAT      O65959   4.642   0.259   9.756
21906WAT     H165960   4.703   0.241   9.678
21906WAT     H265961   4.657   0.190   9.827
21907WAT      O65962   2.584   2.200   1.353
21907WAT     H165963   2.523   2.133   1.396
21907WAT     H265964   2.666   2.211   1.408
21908WAT      O65965   4.502   4.597   2.217
21908WAT     H165966   4.457   4.674   2.173
21908WAT     H265967   4.588   4.577   2.169
21909WAT      O65968   0.836   2.079   0.469
21909WAT     H165969   0.909   2.147   0.466
21909WAT     H265970   0.796   2.077   0.561
21910WAT      O65971   4.987   5.059   3.748
21910WAT     H165972   5.034   5.125   3.807
21910WAT     H265973   5.045   4.979   3.735
21911WAT      O65974   5.931   2.039   6.826
21911WAT     H165975   5.953   1.954   6.872
21911WAT     H265976   5.965   2.117   6.879
21912WAT      O65977   2.766   0.051   7.671
21912WAT     H165978   2.749   0.053   7.769
21912WAT     H265979   2.859   0.083   7.653
21913WAT      O65980   9.222   0.280   7.249
21913WAT     H165981   9.261   0.198   7.293
21913WAT     H265982   9.247   0.281   7.153
21914WAT      O65983   2.571   9.052   1.710
21914WAT     H165984   2.515   9.015   1.784
21914WAT     H265985   2.642   9.111   1.748
21915WAT      O65986   8.574   4.127   8.480
21915WAT     H165987   8.672   4.131   8.500
21915WAT     H265988   8.536   4.219   8.482
21916WAT      O65989   5.890   5.548   2.200
21916WAT     H165990   5.795   5.551   2.233
21916WAT     H265991   5.889   5.542   2.100
21917WAT      O65992   2.175   8.244   2.249
21917WAT     H165993   2.089   8.270   2.294
21917WAT     H265994   2.241   8.215   2.318
21918WAT      O65995   0.263   7.687   1.384
21918WAT     H165996   0.218   7.674   1.472
21918WAT     H265997   0.346   7.742   1.396
21919WAT      O65998   7.872   4.628   6.114
21919WAT     H165999   7.917   4.577   6.040
21919WAT     H266000   7.941   4.657   6.180
21920WAT      O66001   6.603   9.493   5.232
21920WAT     H166002   6.631   9.577   5.278
21920WAT     H266003   6.534   9.514   5.163
21921WAT      O66004   8.981   6.489   5.654
21921WAT     H166005   8.942   6.410   5.607
21921WAT     H266006   8.954   6.573   5.608
21922WAT      O66007   9.495   6.702   2.632
21922WAT     H166008   9.504   6.613   2.587
21922WAT     H266009   9.466   6.688   2.727
21923WAT      O66010   3.975   0.041   8.253
21923WAT     H166011   4.070   0.062   8.227
21923WAT     H266012   3.916   0.117   8.226
21924WAT      O66013   4.266   2.375   8.302
21924WAT     H166014   4.195   2.307   8.319
21924WAT     H266015   4.306   2.403   8.389
21925WAT      O66016   0.774   2.006   6.042
21925WAT     H166017   0.772   1.907   6.029
21925WAT     H266018   0.863   2.041   6.012
21926WAT      O66019   7.277   8.801   1.623
21926WAT     H166020   7.228   8.720   1.592
21926WAT     H266021   7.248   8.824   1.716
21927WAT      O66022   5.977   2.029   0.013
21927WAT     H166023   6.021   2.119   0.010
21927WAT     H266024   5.935   2.010  -0.075
21928WAT      O66025   8.173   4.000   1.651
21928WAT     H166026   8.260   4.034   1.687
21928WAT     H266027   8.109   3.985   1.726
21929WAT      O66028   1.520   7.333   0.636
21929WAT     H166029   1.590   7.261   0.642
21929WAT     H266030   1.434   7.299   0.676
21930WAT      O66031   2.932   0.851   7.046
21930WAT     H166032   2.835   0.828   7.052
21930WAT     H266033   2.942   0.950   7.037
21931WAT      O66034   6.205   8.606   1.172
21931WAT     H166035   6.168   8.574   1.259
21931WAT     H266036   6.130   8.633   1.112
21932WAT      O66037   0.242   4.004   6.601
21932WAT     H166038   0.144   4.025   6.594
21932WAT     H266039   0.255   3.905   6.598
21933WAT      O66040   6.569   6.018   4.527
21933WAT     H166041   6.612   6.056   4.445
21933WAT     H266042   6.470   6.012   4.512
21934WAT      O66043   6.211   2.969   4.187
21934WAT     H166044   6.214   2.992   4.285
21934WAT     H266045   6.305   2.959   4.153
21935WAT      O66046   8.578   7.270   4.811
21935WAT     H166047   8.586   7.244   4.715
21935WAT     H266048   8.528   7.199   4.861
21936WAT      O66049   9.871   8.932   7.590
21936WAT     H166050   9.927   8.959   7.512
21936WAT     H266051   9.930   8.907   7.667
21937WAT      O66052   0.744   6.329   0.225
21937WAT     H166053   0.829   6.376   0.199
21937WAT     H266054   0.767   6.248   0.279
21938WAT      O66055   3.582   1.950   9.800
21938WAT     H166056   3.484   1.964   9.810
21938WAT     H266057   3.621   1.924   9.888
21939WAT      O66058   1.111   3.901   7.322
21939WAT     H166059   1.026   3.904   7.375
21939WAT     H266060   1.149   3.809   7.324
21940WAT      O66061   0.089   7.457   2.045
21940WAT     H166062   0.016   7.474   2.111
21940WAT     H266063   0.130   7.367   2.062
21941WAT      O66064   6.972   4.883   0.464
21941WAT     H166065   6.885   4.834   0.480
21941WAT     H266066   7.029   4.875   0.546
21942WAT      O66067   3.092   2.396   2.483
21942WAT     H166068   3.098   2.424   2.387
21942WAT     H266069   3.176   2.423   2.531
21943WAT      O66070   1.525   7.686   3.457
21943WAT     H166071   1.614   7.706   3.416
21943WAT     H266072   1.534   7.612   3.523
21944WAT      O66073   2.366   1.499   5.401
21944WAT     H166074   2.439   1.479   5.335
21944WAT     H266075   2.332   1.592   5.385
21945WAT      O66076   4.520   2.826   8.722
21945WAT     H166077   4.603   2.777   8.750
21945WAT     H266078   4.539   2.877   8.638
21946WAT      O66079   3.136   2.422   2.209
21946WAT     H166080   3.161   2.335   2.167
21946WAT     H266081   3.099   2.483   2.138
21947WAT      O66082   8.300   1.326   6.148
21947WAT     H166083   8.207   1.294   6.129
21947WAT     H266084   8.361   1.248   6.158
21948WAT      O66085   9.236   6.045   1.954
21948WAT     H166086   9.284   6.014   1.872
21948WAT     H266087   9.280   6.007   2.036
21949WAT      O66088   8.717   0.776   5.465
21949WAT     H166089   8.691   0.861   5.511
21949WAT     H266090   8.805   0.787   5.421
21950WAT      O66091   2.072   3.922   9.790
21950WAT     H166092   2.102   3.827   9.804
21950WAT     H266093   2.151   3.980   9.772
21951WAT      O66094   6.345   6.327   5.122
21951WAT     H166095   6.321   6.398   5.056
21951WAT     H266096   6.278   6.325   5.196
21952WAT      O66097   1.778   2.867   1.779
21952WAT     H166098   1.789   2.812   1.696
21952WAT     H266099   1.857   2.928   1.788
21953WAT      O66100   0.502   1.590   8.538
21953WAT     H166101   0.582   1.592   8.598
21953WAT     H266102   0.504   1.507   8.482
21954WAT      O66103   8.473   4.943   1.593
21954WAT     H166104   8.570   4.966   1.582
21954WAT     H266105   8.462   4.844   1.594
21955WAT      O66106   3.308   6.357   8.967
21955WAT     H166107   3.262   6.393   9.049
21955WAT     H266108   3.407   6.368   8.978
21956WAT      O66109   5.895   2.228   1.879
21956WAT     H166110   5.876   2.150   1.940
21956WAT     H266111   5.984   2.214   1.835
21957WAT      O66112   7.965   8.023   0.126
21957WAT     H166113   7.933   7.931   0.102
21957WAT     H266114   8.005   8.067   0.046
21958WAT      O66115   8.816   2.740   4.294
21958WAT     H166116   8.832   2.790   4.208
21958WAT     H266117   8.798   2.806   4.367
21959WAT      O66118   7.019   6.768   3.150
21959WAT     H166119   6.966   6.735   3.072
21959WAT     H266120   7.007   6.867   3.159
21960WAT      O66121   8.397   8.125   3.340
21960WAT     H166122   8.345   8.136   3.425
21960WAT     H266123   8.357   8.183   3.269
21961WAT      O66124   1.542   3.874   2.253
21961WAT     H166125   1.599   3.794   2.237
21961WAT     H266126   1.572   3.920   2.336
21962WAT      O66127   5.661   0.053   4.389
21962WAT     H166128   5.710   0.098   4.314
21962WAT     H266129   5.641   0.120   4.460
21963WAT      O66130   5.787   1.789   3.560
21963WAT     H166131   5.713   1.844   3.521
21963WAT     H266132   5.748   1.716   3.616
21964WAT      O66133   3.992   6.136   3.092
21964WAT     H166134   4.057   6.206   3.120
21964WAT     H266135   3.919   6.179   3.038
21965WAT      O66136   9.262   8.364   2.617
21965WAT     H166137   9.224   8.271   2.624
21965WAT     H266138   9.339   8.373   2.680
21966WAT      O66139   6.535   3.801   3.681
21966WAT     H166140   6.519   3.812   3.779
21966WAT     H266141   6.529   3.891   3.636
21967WAT      O66142   3.247   2.102   4.928
21967WAT     H166143   3.156   2.119   4.966
21967WAT     H266144   3.281   2.014   4.963
21968WAT      O66145   9.036   5.438   3.567
21968WAT     H166146   9.090   5.497   3.627
21968WAT     H266147   8.939   5.454   3.583
21969WAT      O66148   7.936   7.148   3.785
21969WAT     H166149   7.997   7.108   3.717
21969WAT     H266150   7.881   7.220   3.742
21970WAT      O66151   8.678   5.950   5.218
21970WAT     H166152   8.595   5.998   5.188
21970WAT     H266153   8.680   5.859   5.176
21971WAT      O66154   1.510   7.972   9.145
21971WAT     H166155   1.437   7.924   9.192
21971WAT     H266156   1.556   7.910   9.081
21972WAT      O66157   6.348   6.316   0.337
21972WAT     H166158   6.412   6.250   0.377
21972WAT     H266159   6.379   6.409   0.357
21973WAT      O66160   5.925   1.522   5.763
21973WAT     H166161   5.919   1.547   5.859
21973WAT     H266162   5.842   1.551   5.716
21974WAT      O66163   0.154   4.459   5.385
21974WAT     H166164   0.144   4.422   5.477
21974WAT     H266165   0.157   4.384   5.319
21975WAT      O66166   0.054   3.668   0.363
21975WAT     H166167  -0.013   3.598   0.337
21975WAT     H266168   0.022   3.718   0.443
21976WAT      O66169   2.213   6.749   5.130
21976WAT     H166170   2.173   6.761   5.039
21976WAT     H266171   2.179   6.664   5.170
21977WAT      O66172   9.271   4.344   2.442
21977WAT     H166173   9.178   4.380   2.450
21977WAT     H266174   9.332   4.418   2.413
21978WAT      O66175   8.051   1.607   4.502
21978WAT     H166176   8.037   1.571   4.410
21978WAT     H266177   7.967   1.653   4.532
21979WAT      O66178   2.930   2.424   8.786
21979WAT     H166179   2.862   2.465   8.726
21979WAT     H266180   2.906   2.328   8.804
21980WAT      O66181   6.712   7.119   4.421
21980WAT     H166182   6.794   7.064   4.410
21980WAT     H266183   6.724   7.183   4.497
21981WAT      O66184   5.988   2.185   6.561
21981WAT     H166185   5.980   2.136   6.648
21981WAT     H266186   5.908   2.165   6.504
21982WAT      O66187   9.000   7.692   5.272
21982WAT     H166188   9.067   7.695   5.198
21982WAT     H266189   8.916   7.649   5.239
21983WAT      O66190   5.937   4.594   6.754
21983WAT     H166191   5.958   4.639   6.667
21983WAT     H266192   6.009   4.528   6.775
21984WAT      O66193   2.490   5.315   8.958
21984WAT     H166194   2.554   5.297   8.884
21984WAT     H266195   2.497   5.412   8.985
21985WAT      O66196   9.804   6.238   0.788
21985WAT     H166197   9.726   6.177   0.798
21985WAT     H266198   9.882   6.186   0.752
21986WAT      O66199   5.937   4.457   2.006
21986WAT     H166200   5.954   4.434   2.102
21986WAT     H266201   5.894   4.379   1.960
21987WAT      O66202   3.926   4.557   1.192
21987WAT     H166203   3.942   4.609   1.108
21987WAT     H266204   3.902   4.463   1.168
21988WAT      O66205   8.169   8.564   1.227
21988WAT     H166206   8.182   8.468   1.199
21988WAT     H266207   8.202   8.624   1.154
21989WAT      O66208   4.973   8.873   8.452
21989WAT     H166209   4.880   8.907   8.468
21989WAT     H266210   5.015   8.926   8.378
21990WAT      O66211   8.373   4.936   9.485
21990WAT     H166212   8.432   5.000   9.436
21990WAT     H266213   8.426   4.889   9.555
21991WAT      O66214   3.815   4.027   2.341
21991WAT     H166215   3.722   4.018   2.306
21991WAT     H266216   3.848   4.120   2.325
21992WAT      O66217   4.921   8.528   9.231
21992WAT     H166218   4.985   8.451   9.232
21992WAT     H266219   4.941   8.590   9.307
21993WAT      O66220   5.490   3.139   5.665
21993WAT     H166221   5.425   3.080   5.618
21993WAT     H266222   5.575   3.144   5.612
21994WAT      O66223   2.659   0.647   8.326
21994WAT     H166224   2.620   0.693   8.406
21994WAT     H266225   2.751   0.613   8.348
21995WAT      O66226   9.419   3.378   5.956
21995WAT     H166227   9.472   3.424   5.885
21995WAT     H266228   9.334   3.428   5.973
21996WAT      O66229   4.840   2.182   8.108
21996WAT     H166230   4.850   2.101   8.051
21996WAT     H266231   4.928   2.205   8.149
21997WAT      O66232   1.218   5.809   0.811
21997WAT     H166233   1.250   5.837   0.901
21997WAT     H266234   1.121   5.829   0.802
21998WAT      O66235   4.708   8.711   0.495
21998WAT     H166236   4.628   8.658   0.468
21998WAT     H266237   4.778   8.706   0.424
21999WAT      O66238   2.816   4.398   3.629
21999WAT     H166239   2.897   4.456   3.625
21999WAT     H266240   2.743   4.446   3.677
22000WAT      O66241   7.561   2.034   8.159
22000WAT     H166242   7.569   2.031   8.059
22000WAT     H266243   7.611   2.114   8.193
22001WAT      O66244   7.263   7.465   1.619
22001WAT     H166245   7.193   7.396   1.601
22001WAT     H266246   7.244   7.547   1.565
22002WAT      O66247   4.576   7.416   8.713
22002WAT     H166248   4.503   7.374   8.660
22002WAT     H266249   4.614   7.493   8.663
22003WAT      O66250   8.064   9.594   8.909
22003WAT     H166251   8.125   9.673   8.910
22003WAT     H266252   7.976   9.619   8.949
22004WAT      O66253   6.406   8.528   1.515
22004WAT     H166254   6.489   8.550   1.566
22004WAT     H266255   6.430   8.472   1.435
22005WAT      O66256   5.648   5.432   0.694
22005WAT     H166257   5.609   5.471   0.611
22005WAT     H266258   5.698   5.503   0.744
22006WAT      O66259   2.633   8.063   8.380
22006WAT     H166260   2.577   8.136   8.341
22006WAT     H266261   2.695   8.101   8.448
22007WAT      O66262   6.233   0.277   7.815
22007WAT     H166263   6.170   0.348   7.847
22007WAT     H266264   6.315   0.319   7.777
22008WAT      O66265   2.793   6.474   1.943
22008WAT     H166266   2.770   6.561   1.900
22008WAT     H266267   2.893   6.466   1.949
22009WAT      O66268   5.049   1.618   7.857
22009WAT     H166269   4.983   1.564   7.909
22009WAT     H266270   5.071   1.701   7.907
22010WAT      O66271   2.068   1.419   0.899
22010WAT     H166272   2.134   1.351   0.930
22010WAT     H266273   2.013   1.450   0.976
22011WAT      O66274   9.497   4.730   8.943
22011WAT     H166275   9.478   4.681   8.858
22011WAT     H266276   9.449   4.818   8.942
22012WAT      O66277   3.550   0.271   3.611
22012WAT     H166278   3.486   0.334   3.567
22012WAT     H266279   3.498   0.198   3.656
22013WAT      O66280   3.403   2.665   0.337
22013WAT     H166281   3.339   2.639   0.265
22013WAT     H266282   3.485   2.609   0.330
22014WAT      O66283   9.086   6.413   1.108
22014WAT     H166284   9.038   6.448   1.028
22014WAT     H266285   9.020   6.368   1.169
22015WAT      O66286   3.669   5.670   1.723
22015WAT     H166287   3.579   5.697   1.757
22015WAT     H266288   3.740   5.716   1.776
22016WAT      O66289   3.096   2.103   5.698
22016WAT     H166290   3.170   2.045   5.733
22016WAT     H266291   3.116   2.198   5.721
22017WAT      O66292   8.541   3.537   6.327
22017WAT     H166293   8.583   3.627   6.338
22017WAT     H266294   8.446   3.540   6.358
22018WAT      O66295   3.207   6.076   3.345
22018WAT     H166296   3.239   6.008   3.411
22018WAT     H266297   3.284   6.109   3.291
22019WAT      O66298   3.707   1.208   5.824
22019WAT     H166299   3.623   1.262   5.836
22019WAT     H266300   3.777   1.241   5.887
22020WAT      O66301   9.076   2.963   0.003
22020WAT     H166302   9.080   3.046   0.059
22020WAT     H266303   9.042   2.987  -0.088
22021WAT      O66304   2.144   1.625   8.620
22021WAT     H166305   2.222   1.591   8.672
22021WAT     H266306   2.133   1.723   8.637
22022WAT      O66307   7.044   0.201   1.018
22022WAT     H166308   7.016   0.130   1.083
22022WAT     H266309   7.006   0.180   0.928
22023WAT      O66310   2.129   8.486   3.203
22023WAT     H166311   2.049   8.545   3.213
22023WAT     H266312   2.145   8.439   3.290
22024WAT      O66313   3.458   2.465   9.735
22024WAT     H166314   3.487   2.422   9.820
22024WAT     H266315   3.360   2.450   9.721
22025WAT      O66316   9.872   7.684   7.015
22025WAT     H166317   9.881   7.684   6.916
22025WAT     H266318   9.860   7.778   7.048
22026WAT      O66319   5.217   2.931   6.880
22026WAT     H166320   5.244   2.838   6.856
22026WAT     H266321   5.122   2.932   6.910
22027WAT      O66322   1.586   1.999   6.403
22027WAT     H166323   1.644   1.920   6.421
22027WAT     H266324   1.627   2.081   6.445
22028WAT      O66325   2.825   0.765   3.842
22028WAT     H166326   2.798   0.679   3.799
22028WAT     H266327   2.790   0.842   3.788
22029WAT      O66328   5.344   6.168   2.282
22029WAT     H166329   5.379   6.172   2.189
22029WAT     H266330   5.340   6.072   2.312
22030WAT      O66331   7.768   2.276   4.171
22030WAT     H166332   7.851   2.221   4.184
22030WAT     H266333   7.695   2.239   4.229
22031WAT      O66334   0.635   5.970   1.919
22031WAT     H166335   0.634   5.994   1.822
22031WAT     H266336   0.634   5.870   1.929
22032WAT      O66337   4.020   1.750   9.235
22032WAT     H166338   4.029   1.688   9.157
22032WAT     H266339   4.071   1.834   9.217
22033WAT      O66340   2.955   8.896   6.496
22033WAT     H166341   2.883   8.948   6.451
22033WAT     H266342   2.953   8.913   6.594
22034WAT      O66343   6.128   7.019   8.055
22034WAT     H166344   6.042   6.969   8.052
22034WAT     H266345   6.191   6.983   7.985
22035WAT      O66346   8.915   6.348   3.714
22035WAT     H166347   8.961   6.306   3.792
22035WAT     H266348   8.816   6.330   3.721
22036WAT      O66349   2.444   3.875   7.413
22036WAT     H166350   2.455   3.804   7.344
22036WAT     H266351   2.404   3.835   7.496
22037WAT      O66352   4.034   6.076   7.263
22037WAT     H166353   3.942   6.038   7.261
22037WAT     H266354   4.084   6.039   7.342
22038WAT      O66355   5.754   8.901   0.645
22038WAT     H166356   5.816   8.962   0.693
22038WAT     H266357   5.794   8.810   0.640
22039WAT      O66358   1.018   4.819   9.326
22039WAT     H166359   1.073   4.819   9.409
22039WAT     H266360   1.011   4.912   9.291
22040WAT      O66361   6.504   0.247   8.063
22040WAT     H166362   6.596   0.268   8.032
22040WAT     H266363   6.477   0.311   8.135
22041WAT      O66364   1.501   3.092   2.311
22041WAT     H166365   1.451   3.015   2.273
22041WAT     H266366   1.595   3.092   2.276
22042WAT      O66367   2.565   8.767   5.863
22042WAT     H166368   2.629   8.722   5.802
22042WAT     H266369   2.479   8.716   5.865
22043WAT      O66370   8.335   4.902   2.595
22043WAT     H166371   8.394   4.948   2.529
22043WAT     H266372   8.352   4.939   2.686
22044WAT      O66373   5.223   5.181   8.171
22044WAT     H166374   5.153   5.122   8.213
22044WAT     H266375   5.191   5.276   8.171
22045WAT      O66376   0.812   8.989   7.855
22045WAT     H166377   0.754   8.909   7.872
22045WAT     H266378   0.829   8.998   7.757
22046WAT      O66379   4.300   4.525   2.814
22046WAT     H166380   4.293   4.531   2.714
22046WAT     H266381   4.312   4.429   2.841
22047WAT      O66382   5.233   1.613   7.657
22047WAT     H166383   5.176   1.607   7.739
22047WAT     H266384   5.210   1.696   7.607
22048WAT      O66385   3.484   9.391   0.741
22048WAT     H166386   3.458   9.295   0.752
22048WAT     H266387   3.498   9.411   0.644
22049WAT      O66388   8.968   1.256   2.578
22049WAT     H166389   8.888   1.283   2.525
22049WAT     H266390   8.989   1.327   2.645
22050WAT      O66391   6.211   9.618   6.713
22050WAT     H166392   6.222   9.716   6.698
22050WAT     H266393   6.239   9.568   6.631
22051WAT      O66394   7.322   0.985   0.845
22051WAT     H166395   7.396   0.924   0.874
22051WAT     H266396   7.234   0.948   0.873
22052WAT      O66397   2.360   9.640   2.378
22052WAT     H166398   2.425   9.649   2.303
22052WAT     H266399   2.409   9.615   2.461
22053WAT      O66400   2.021   1.651   7.636
22053WAT     H166401   2.035   1.654   7.537
22053WAT     H266402   2.008   1.744   7.671
22054WAT      O66403   7.902   6.974   5.786
22054WAT     H166404   7.886   7.037   5.711
22054WAT     H266405   7.850   7.004   5.866
22055WAT      O66406   5.234   1.462   8.891
22055WAT     H166407   5.262   1.543   8.944
22055WAT     H266408   5.257   1.379   8.942
22056WAT      O66409   7.332   0.914   4.957
22056WAT     H166410   7.252   0.964   4.923
22056WAT     H266411   7.409   0.930   4.895
22057WAT      O66412   5.819   4.812   7.929
22057WAT     H166413   5.732   4.818   7.881
22057WAT     H266414   5.807   4.839   8.024
22058WAT      O66415   5.542   3.833   9.722
22058WAT     H166416   5.639   3.853   9.705
22058WAT     H266417   5.497   3.915   9.759
22059WAT      O66418   4.315   5.646   6.192
22059WAT     H166419   4.259   5.620   6.113
22059WAT     H266420   4.393   5.700   6.161
22060WAT      O66421   9.682   5.078   8.384
22060WAT     H166422   9.617   5.140   8.340
22060WAT     H266423   9.636   5.029   8.458
22061WAT      O66424   0.964   2.630   2.151
22061WAT     H166425   1.058   2.630   2.117
22061WAT     H266426   0.939   2.722   2.180
22062WAT      O66427   8.725   8.234   7.927
22062WAT     H166428   8.662   8.165   7.963
22062WAT     H266429   8.794   8.254   7.997
22063WAT      O66430   6.713   7.446   0.287
22063WAT     H166431   6.647   7.514   0.320
22063WAT     H266432   6.792   7.493   0.248
22064WAT      O66433   2.572   1.433   0.020
22064WAT     H166434   2.649   1.462   0.078
22064WAT     H266435   2.600   1.437  -0.076
22065WAT      O66436   0.550   3.438   5.018
22065WAT     H166437   0.639   3.446   4.973
22065WAT     H266438   0.557   3.471   5.112
22066WAT      O66439   1.647   8.365   7.707
22066WAT     H166440   1.567   8.320   7.667
22066WAT     H266441   1.698   8.412   7.635
22067WAT      O66442   8.184   8.768   3.047
22067WAT     H166443   8.175   8.828   3.127
22067WAT     H266444   8.235   8.686   3.072
22068WAT      O66445   3.767   2.945   9.458
22068WAT     H166446   3.671   2.916   9.450
22068WAT     H266447   3.821   2.904   9.385
22069WAT      O66448   0.314   1.044   8.270
22069WAT     H166449   0.401   1.046   8.222
22069WAT     H266450   0.329   1.065   8.367
22070WAT      O66451   5.280   9.502   8.158
22070WAT     H166452   5.230   9.447   8.090
22070WAT     H266453   5.375   9.469   8.163
22071WAT      O66454   3.834   1.156   1.396
22071WAT     H166455   3.747   1.166   1.349
22071WAT     H266456   3.878   1.071   1.368
22072WAT      O66457   5.079   4.015   6.344
22072WAT     H166458   4.981   4.001   6.362
22072WAT     H266459   5.121   3.927   6.322
22073WAT      O66460   5.864   3.943   5.553
22073WAT     H166461   5.940   3.915   5.612
22073WAT     H266462   5.787   3.881   5.566
22074WAT      O66463   4.589   9.307   0.243
22074WAT     H166464   4.514   9.294   0.179
22074WAT     H266465   4.571   9.385   0.302
22075WAT      O66466   5.657   0.036   6.672
22075WAT     H166467   5.667   0.130   6.707
22075WAT     H266468   5.600   0.038   6.590
22076WAT      O66469   7.733   2.025   4.969
22076WAT     H166470   7.652   1.971   4.991
22076WAT     H266471   7.705   2.113   4.930
22077WAT      O66472   6.733   4.163   1.752
22077WAT     H166473   6.769   4.243   1.799
22077WAT     H266474   6.646   4.187   1.708
22078WAT      O66475   3.599   0.547   6.000
22078WAT     H166476   3.634   0.604   5.926
22078WAT     H266477   3.565   0.605   6.074
22079WAT      O66478   5.419   5.090   3.424
22079WAT     H166479   5.465   5.105   3.336
22079WAT     H266480   5.446   5.162   3.488
22080WAT      O66481   6.034   7.284   6.166
22080WAT     H166482   6.035   7.224   6.246
22080WAT     H266483   6.017   7.230   6.083
22081WAT      O66484   9.328   0.391   8.692
22081WAT     H166485   9.235   0.380   8.729
22081WAT     H266486   9.391   0.332   8.743
22082WAT      O66487   8.732   0.570   2.138
22082WAT     H166488   8.701   0.512   2.063
22082WAT     H266489   8.679   0.549   2.220
22083WAT      O66490   0.718   5.273   2.293
22083WAT     H166491   0.797   5.232   2.337
22083WAT     H266492   0.733   5.372   2.284
22084WAT      O66493   9.054   6.894   4.095
22084WAT     H166494   9.069   6.851   4.006
22084WAT     H266495   9.142   6.928   4.130
22085WAT      O66496   1.765   6.820   0.449
22085WAT     H166497   1.862   6.804   0.469
22085WAT     H266498   1.727   6.740   0.402
22086WAT      O66499   3.220   2.687   5.483
22086WAT     H166500   3.191   2.779   5.509
22086WAT     H266501   3.187   2.666   5.391
22087WAT      O66502   9.142   4.650   5.205
22087WAT     H166503   9.124   4.557   5.172
22087WAT     H266504   9.056   4.693   5.233
22088WAT      O66505   2.584   0.326   7.352
22088WAT     H166506   2.611   0.230   7.357
22088WAT     H266507   2.665   0.384   7.346
22089WAT      O66508   8.263   2.965   3.942
22089WAT     H166509   8.207   2.909   3.881
22089WAT     H266510   8.335   3.011   3.889
22090WAT      O66511   1.857   9.080   4.353
22090WAT     H166512   1.905   9.033   4.278
22090WAT     H266513   1.882   9.038   4.440
22091WAT      O66514   8.864   8.247   1.459
22091WAT     H166515   8.806   8.272   1.382
22091WAT     H266516   8.820   8.276   1.544
22092WAT      O66517   1.195   0.673   2.303
22092WAT     H166518   1.221   0.765   2.331
22092WAT     H266519   1.215   0.608   2.376
22093WAT      O66520   8.613   8.263   3.019
22093WAT     H166521   8.642   8.274   3.114
22093WAT     H266522   8.567   8.347   2.989
22094WAT      O66523   9.800   2.741   5.892
22094WAT     H166524   9.745   2.807   5.943
22094WAT     H266525   9.783   2.753   5.794
22095WAT      O66526   1.604   4.016   0.090
22095WAT     H166527   1.555   4.098   0.061
22095WAT     H266528   1.703   4.033   0.087
22096WAT      O66529   9.521   8.447   3.065
22096WAT     H166530   9.579   8.528   3.056
22096WAT     H266531   9.550   8.379   2.998
22097WAT      O66532   7.637   3.637   9.154
22097WAT     H166533   7.599   3.664   9.242
22097WAT     H266534   7.670   3.718   9.106
22098WAT      O66535   8.037   6.116   3.624
22098WAT     H166536   7.939   6.137   3.615
22098WAT     H266537   8.070   6.080   3.537
22099WAT      O66538   1.602   1.450   7.927
22099WAT     H166539   1.508   1.472   7.902
22099WAT     H266540   1.665   1.506   7.873
22100WAT      O66541   8.783   4.618   5.410
22100WAT     H166542   8.813   4.686   5.344
22100WAT     H266543   8.702   4.570   5.376
22101WAT      O66544   3.546   7.129   1.854
22101WAT     H166545   3.524   7.215   1.808
22101WAT     H266546   3.646   7.121   1.862
22102WAT      O66547   2.817   0.038   2.074
22102WAT     H166548   2.906   0.058   2.115
22102WAT     H266549   2.787  -0.054   2.100
22103WAT      O66550   1.074   6.489   1.134
22103WAT     H166551   0.998   6.438   1.175
22103WAT     H266552   1.064   6.586   1.153
22104WAT      O66553   4.430   5.511   7.694
22104WAT     H166554   4.520   5.537   7.729
22104WAT     H266555   4.360   5.565   7.741
22105WAT      O66556   8.505   2.234   1.190
22105WAT     H166557   8.406   2.219   1.194
22105WAT     H266558   8.538   2.262   1.280
22106WAT      O66559   0.113   6.351   5.196
22106WAT     H166560   0.102   6.383   5.102
22106WAT     H266561   0.191   6.397   5.239
22107WAT      O66562   0.676   4.452   5.340
22107WAT     H166563   0.583   4.415   5.331
22107WAT     H266564   0.682   4.539   5.292
22108WAT      O66565   3.606   5.237   8.973
22108WAT     H166566   3.574   5.143   8.988
22108WAT     H266567   3.592   5.262   8.877
22109WAT      O66568   5.343   7.399   6.001
22109WAT     H166569   5.281   7.413   5.924
22109WAT     H266570   5.302   7.435   6.084
22110WAT      O66571   5.669   7.604   7.915
22110WAT     H166572   5.687   7.518   7.962
22110WAT     H266573   5.579   7.639   7.942
22111WAT      O66574   5.424   7.936   4.484
22111WAT     H166575   5.444   7.960   4.579
22111WAT     H266576   5.507   7.946   4.429
22112WAT      O66577   0.136   7.004   0.913
22112WAT     H166578   0.203   7.035   0.980
22112WAT     H266579   0.171   7.020   0.820
22113WAT      O66580   9.256   0.008   5.229
22113WAT     H166581   9.315  -0.021   5.304
22113WAT     H266582   9.256   0.108   5.222
22114WAT      O66583   9.034   5.620   8.570
22114WAT     H166584   9.003   5.544   8.627
22114WAT     H266585   9.134   5.622   8.569
22115WAT      O66586   3.280   3.277   5.599
22115WAT     H166587   3.284   3.183   5.565
22115WAT     H266588   3.317   3.281   5.691
22116WAT      O66589   2.295   2.760   6.487
22116WAT     H166590   2.216   2.792   6.434
22116WAT     H266591   2.315   2.825   6.559
22117WAT      O66592   2.676   6.941   5.182
22117WAT     H166593   2.767   6.976   5.204
22117WAT     H266594   2.635   6.902   5.265
22118WAT      O66595   3.974   1.141   3.654
22118WAT     H166596   3.973   1.186   3.743
22118WAT     H266597   3.918   1.059   3.658
22119WAT      O66598   1.749   6.585   1.181
22119WAT     H166599   1.663   6.538   1.163
22119WAT     H266600   1.795   6.607   1.095
22120WAT      O66601   0.565   2.408   2.794
22120WAT     H166602   0.555   2.384   2.697
22120WAT     H266603   0.631   2.483   2.803
22121WAT      O66604   6.154   8.653   9.091
22121WAT     H166605   6.201   8.661   9.179
22121WAT     H266606   6.153   8.558   9.062
22122WAT      O66607   8.309   3.052   4.828
22122WAT     H166608   8.353   3.031   4.740
22122WAT     H266609   8.265   2.969   4.863
22123WAT      O66610   4.879   1.100   5.436
22123WAT     H166611   4.799   1.138   5.482
22123WAT     H266612   4.866   1.002   5.421
22124WAT      O66613   7.450   0.236   7.576
22124WAT     H166614   7.450   0.139   7.602
22124WAT     H266615   7.415   0.245   7.482
22125WAT      O66616   5.239   5.697   3.400
22125WAT     H166617   5.308   5.715   3.470
22125WAT     H266618   5.239   5.599   3.378
22126WAT      O66619   8.023   8.905   7.915
22126WAT     H166620   8.090   8.919   7.843
22126WAT     H266621   7.933   8.886   7.875
22127WAT      O66622   7.107   4.770   7.764
22127WAT     H166623   7.010   4.761   7.742
22127WAT     H266624   7.144   4.679   7.785
22128WAT      O66625   4.593   3.105   4.253
22128WAT     H166626   4.574   3.192   4.206
22128WAT     H266627   4.506   3.058   4.270
22129WAT      O66628   0.624   8.482   0.026
22129WAT     H166629   0.541   8.533   0.003
22129WAT     H266630   0.632   8.402  -0.034
22130WAT      O66631   7.632   4.003   4.722
22130WAT     H166632   7.659   4.095   4.751
22130WAT     H266633   7.533   3.995   4.726
22131WAT      O66634   3.105   8.136   9.577
22131WAT     H166635   3.010   8.130   9.608
22131WAT     H266636   3.108   8.186   9.490
22132WAT      O66637   2.981   0.782   3.510
22132WAT     H166638   3.079   0.787   3.527
22132WAT     H266639   2.938   0.728   3.582
22133WAT      O66640   3.233   8.195   4.155
22133WAT     H166641   3.199   8.288   4.145
22133WAT     H266642   3.283   8.186   4.241
22134WAT      O66643   2.020   7.444   7.813
22134WAT     H166644   1.964   7.362   7.796
22134WAT     H266645   2.030   7.457   7.912
22135WAT      O66646   2.204   5.819   8.498
22135WAT     H166647   2.135   5.828   8.570
22135WAT     H266648   2.233   5.911   8.468
22136WAT      O66649   3.124   2.034   2.862
22136WAT     H166650   3.115   2.131   2.886
22136WAT     H266651   3.043   2.005   2.811
22137WAT      O66652   5.420   8.646   7.172
22137WAT     H166653   5.414   8.721   7.107
22137WAT     H266654   5.400   8.560   7.126
22138WAT      O66655   4.140   8.283   2.832
22138WAT     H166656   4.239   8.267   2.838
22138WAT     H266657   4.098   8.255   2.918
22139WAT      O66658   3.971   9.669   8.410
22139WAT     H166659   3.881   9.626   8.411
22139WAT     H266660   3.969   9.749   8.351
22140WAT      O66661   2.616   5.791   5.227
22140WAT     H166662   2.534   5.817   5.277
22140WAT     H266663   2.629   5.692   5.233
22141WAT      O66664   4.169   2.682   4.743
22141WAT     H166665   4.262   2.698   4.775
22141WAT     H266666   4.122   2.769   4.730
22142WAT      O66667   6.093   2.476   7.619
22142WAT     H166668   6.028   2.484   7.695
22142WAT     H266669   6.055   2.414   7.550
22143WAT      O66670   1.504   6.137   9.546
22143WAT     H166671   1.505   6.126   9.645
22143WAT     H266672   1.492   6.048   9.502
22144WAT      O66673   0.124   7.822   9.273
22144WAT     H166674   0.052   7.769   9.317
22144WAT     H266675   0.124   7.915   9.310
22145WAT      O66676   5.438   4.857   2.328
22145WAT     H166677   5.468   4.952   2.334
22145WAT     H266678   5.453   4.822   2.236
22146WAT      O66679   6.908   2.324   0.647
22146WAT     H166680   6.884   2.401   0.706
22146WAT     H266681   6.878   2.343   0.554
22147WAT      O66682   7.643   9.189   2.764
22147WAT     H166683   7.601   9.099   2.777
22147WAT     H266684   7.692   9.190   2.677
22148WAT      O66685   6.804   4.630   7.532
22148WAT     H166686   6.896   4.605   7.501
22148WAT     H266687   6.750   4.547   7.545
22149WAT      O66688   1.267   8.133   2.961
22149WAT     H166689   1.261   8.180   2.873
22149WAT     H266690   1.184   8.152   3.014
22150WAT      O66691   3.681   6.327   7.553
22150WAT     H166692   3.752   6.267   7.591
22150WAT     H266693   3.717   6.376   7.474
22151WAT      O66694   9.069   9.500   4.301
22151WAT     H166695   9.052   9.592   4.337
22151WAT     H266696   9.031   9.493   4.209
22152WAT      O66697   3.054   7.669   0.058
22152WAT     H166698   3.136   7.612   0.049
22152WAT     H266699   3.006   7.672  -0.030
22153WAT      O66700   4.780   2.244   7.140
22153WAT     H166701   4.767   2.244   7.240
22153WAT     H266702   4.692   2.233   7.095
22154WAT      O66703   7.606   1.818   8.450
22154WAT     H166704   7.562   1.794   8.363
22154WAT     H266705   7.638   1.735   8.495
22155WAT      O66706   4.388   8.623   1.258
22155WAT     H166707   4.327   8.582   1.190
22155WAT     H266708   4.360   8.595   1.350
22156WAT      O66709   8.539   0.119   1.418
22156WAT     H166710   8.479   0.063   1.475
22156WAT     H266711   8.563   0.203   1.466
22157WAT      O66712   1.972   5.106   0.347
22157WAT     H166713   1.971   5.151   0.257
22157WAT     H266714   1.942   5.012   0.338
22158WAT      O66715   6.686   3.710   7.822
22158WAT     H166716   6.599   3.737   7.864
22158WAT     H266717   6.753   3.691   7.894
22159WAT      O66718   4.863   3.419   0.916
22159WAT     H166719   4.935   3.403   0.983
22159WAT     H266720   4.893   3.490   0.851
22160WAT      O66721   3.719   7.974   0.907
22160WAT     H166722   3.667   8.004   0.827
22160WAT     H266723   3.710   8.042   0.980
22161WAT      O66724   0.604   9.154   6.139
22161WAT     H166725   0.560   9.198   6.217
22161WAT     H266726   0.702   9.146   6.156
22162WAT      O66727   0.608   8.272   2.757
22162WAT     H166728   0.516   8.291   2.793
22162WAT     H266729   0.664   8.354   2.765
22163WAT      O66730   6.289   7.946   4.003
22163WAT     H166731   6.358   7.879   4.031
22163WAT     H266732   6.219   7.954   4.074
22164WAT      O66733   3.300   5.335   7.028
22164WAT     H166734   3.317   5.361   7.123
22164WAT     H266735   3.232   5.397   6.989
22165WAT      O66736   7.492   7.259   2.843
22165WAT     H166737   7.563   7.201   2.805
22165WAT     H266738   7.505   7.269   2.941
22166WAT      O66739   9.218   2.487   5.477
22166WAT     H166740   9.147   2.425   5.510
22166WAT     H266741   9.269   2.523   5.555
22167WAT      O66742   7.307   0.160   1.444
22167WAT     H166743   7.373   0.153   1.370
22167WAT     H266744   7.349   0.205   1.523
22168WAT      O66745   1.927   2.867   0.648
22168WAT     H166746   1.994   2.795   0.629
22168WAT     H266747   1.956   2.952   0.603
22169WAT      O66748   7.496   7.008   8.967
22169WAT     H166749   7.416   7.016   8.908
22169WAT     H266750   7.506   6.913   8.996
22170WAT      O66751   5.705   0.035   1.890
22170WAT     H166752   5.739   0.070   1.803
22170WAT     H266753   5.681  -0.062   1.880
22171WAT      O66754   0.384   3.420   4.779
22171WAT     H166755   0.414   3.387   4.689
22171WAT     H266756   0.459   3.415   4.844
22172WAT      O66757   9.592   1.763   6.187
22172WAT     H166758   9.533   1.686   6.210
22172WAT     H266759   9.633   1.747   6.096
22173WAT      O66760   8.190   9.215   8.261
22173WAT     H166761   8.121   9.142   8.253
22173WAT     H266762   8.216   9.246   8.170
22174WAT      O66763   3.517   9.452   9.484
22174WAT     H166764   3.520   9.407   9.573
22174WAT     H266765   3.589   9.417   9.425
22175WAT      O66766   5.497   2.470   6.593
22175WAT     H166767   5.422   2.457   6.658
22175WAT     H266768   5.463   2.522   6.514
22176WAT      O66769   1.485   3.260   0.329
22176WAT     H166770   1.421   3.243   0.255
22176WAT     H266771   1.525   3.351   0.318
22177WAT      O66772   7.847   5.324   7.785
22177WAT     H166773   7.770   5.333   7.848
22177WAT     H266774   7.813   5.296   7.695
22178WAT      O66775   9.854   7.636   8.467
22178WAT     H166776   9.764   7.612   8.431
22178WAT     H266777   9.891   7.714   8.417
22179WAT      O66778   0.312   2.520   1.360
22179WAT     H166779   0.263   2.585   1.301
22179WAT     H266780   0.338   2.566   1.445
22180WAT      O66781   2.312   1.220   1.465
22180WAT     H166782   2.332   1.308   1.423
22180WAT     H266783   2.253   1.233   1.544
22181WAT      O66784   8.738   6.991   3.790
22181WAT     H166785   8.656   6.936   3.805
22181WAT     H266786   8.779   6.967   3.702
22182WAT      O66787   9.015   9.202   4.036
22182WAT     H166788   8.993   9.114   4.079
22182WAT     H266789   9.012   9.192   3.937
22183WAT      O66790   5.804   9.734   0.214
22183WAT     H166791   5.825   9.829   0.191
22183WAT     H266792   5.711   9.728   0.249
22184WAT      O66793   2.251   1.766   9.508
22184WAT     H166794   2.303   1.714   9.576
22184WAT     H266795   2.302   1.770   9.422
22185WAT      O66796   5.721   1.671   8.320
22185WAT     H166797   5.631   1.708   8.298
22185WAT     H266798   5.745   1.598   8.256
22186WAT      O66799   5.551   3.162   3.893
22186WAT     H166800   5.599   3.089   3.845
22186WAT     H266801   5.503   3.123   3.972
22187WAT      O66802   7.492   0.849   2.679
22187WAT     H166803   7.553   0.919   2.717
22187WAT     H266804   7.409   0.892   2.644
22188WAT      O66805   0.178   5.264   3.736
22188WAT     H166806   0.097   5.303   3.693
22188WAT     H266807   0.180   5.165   3.719
22189WAT      O66808   1.779   0.647   7.670
22189WAT     H166809   1.725   0.564   7.683
22189WAT     H266810   1.722   0.727   7.690
22190WAT      O66811   4.992   7.357   6.101
22190WAT     H166812   4.999   7.261   6.075
22190WAT     H266813   4.999   7.365   6.200
22191WAT      O66814   4.305   6.057   6.687
22191WAT     H166815   4.212   6.021   6.679
22191WAT     H266816   4.318   6.132   6.622
22192WAT      O66817   9.025   0.881   6.835
22192WAT     H166818   9.110   0.836   6.808
22192WAT     H266819   9.044   0.953   6.902
22193WAT      O66820   7.816   0.091   4.336
22193WAT     H166821   7.737   0.132   4.382
22193WAT     H266822   7.894   0.090   4.399
22194WAT      O66823   2.048   1.408   0.633
22194WAT     H166824   2.059   1.401   0.732
22194WAT     H266825   2.134   1.440   0.592
22195WAT      O66826   8.247   4.413   4.353
22195WAT     H166827   8.162   4.441   4.398
22195WAT     H266828   8.244   4.314   4.336
22196WAT      O66829   4.570   8.531   3.415
22196WAT     H166830   4.655   8.480   3.406
22196WAT     H266831   4.526   8.539   3.326
22197WAT      O66832   3.574   9.202   3.037
22197WAT     H166833   3.491   9.252   3.010
22197WAT     H266834   3.617   9.163   2.956
22198WAT      O66835   2.857   7.693   3.393
22198WAT     H166836   2.803   7.728   3.317
22198WAT     H266837   2.800   7.634   3.451
22199WAT      O66838   3.200   5.617   6.183
22199WAT     H166839   3.233   5.705   6.218
22199WAT     H266840   3.100   5.619   6.177
22200WAT      O66841   8.784   2.675   5.323
22200WAT     H166842   8.759   2.723   5.239
22200WAT     H266843   8.701   2.647   5.371
22201WAT      O66844   3.455   8.254   0.515
22201WAT     H166845   3.366   8.214   0.493
22201WAT     H266846   3.503   8.193   0.578
22202WAT      O66847   9.506   8.998   0.430
22202WAT     H166848   9.506   8.919   0.491
22202WAT     H266849   9.591   9.000   0.377
22203WAT      O66850   6.238   3.997   0.955
22203WAT     H166851   6.196   3.987   1.045
22203WAT     H266852   6.183   3.949   0.887
22204WAT      O66853   7.711   8.527   4.283
22204WAT     H166854   7.744   8.590   4.354
22204WAT     H266855   7.783   8.460   4.263
22205WAT      O66856   1.337   8.437   7.102
22205WAT     H166857   1.429   8.408   7.131
22205WAT     H266858   1.320   8.530   7.134
22206WAT      O66859   7.492   3.439   5.420
22206WAT     H166860   7.521   3.498   5.496
22206WAT     H266861   7.534   3.472   5.335
22207WAT      O66862   9.609   7.693   3.252
22207WAT     H166863   9.553   7.707   3.333
22207WAT     H266864   9.551   7.670   3.174
22208WAT      O66865   3.565   6.518   5.430
22208WAT     H166866   3.505   6.477   5.499
22208WAT     H266867   3.660   6.493   5.449
22209WAT      O66868   2.504   2.980   3.190
22209WAT     H166869   2.466   3.046   3.255
22209WAT     H266870   2.508   3.022   3.099
22210WAT      O66871   8.423   2.949   1.909
22210WAT     H166872   8.328   2.933   1.885
22210WAT     H266873   8.449   3.042   1.881
22211WAT      O66874   6.248   0.109   1.754
22211WAT     H166875   6.188   0.146   1.683
22211WAT     H266876   6.266   0.012   1.735
22212WAT      O66877   3.819   6.412   5.392
22212WAT     H166878   3.801   6.446   5.300
22212WAT     H266879   3.785   6.319   5.401
22213WAT      O66880   3.627   5.651   0.762
22213WAT     H166881   3.722   5.659   0.793
22213WAT     H266882   3.577   5.735   0.786
22214WAT      O66883   9.539   6.815   4.945
22214WAT     H166884   9.603   6.785   4.875
22214WAT     H266885   9.517   6.739   5.006
22215WAT      O66886   2.907   6.291   6.271
22215WAT     H166887   2.942   6.202   6.299
22215WAT     H266888   2.938   6.361   6.335
22216WAT      O66889   2.579   0.370   3.588
22216WAT     H166890   2.545   0.461   3.610
22216WAT     H266891   2.549   0.345   3.495
22217WAT      O66892   0.219   0.498   5.565
22217WAT     H166893   0.257   0.437   5.634
22217WAT     H266894   0.129   0.466   5.538
22218WAT      O66895   0.297   8.206   9.742
22218WAT     H166896   0.370   8.167   9.799
22218WAT     H266897   0.266   8.292   9.782
22219WAT      O66898   4.804   8.781   1.109
22219WAT     H166899   4.845   8.709   1.054
22219WAT     H266900   4.708   8.793   1.082
22220WAT      O66901   7.579   0.350   2.821
22220WAT     H166902   7.585   0.408   2.740
22220WAT     H266903   7.659   0.290   2.825
22221WAT      O66904   0.504   3.496   2.833
22221WAT     H166905   0.514   3.466   2.738
22221WAT     H266906   0.423   3.454   2.873
22222WAT      O66907   6.221   2.543   8.600
22222WAT     H166908   6.202   2.449   8.572
22222WAT     H266909   6.138   2.585   8.635
22223WAT      O66910   4.119   0.787   7.145
22223WAT     H166911   4.166   0.870   7.177
22223WAT     H266912   4.116   0.720   7.220
22224WAT      O66913   5.193   6.219   0.696
22224WAT     H166914   5.122   6.233   0.627
22224WAT     H266915   5.272   6.276   0.675
22225WAT      O66916   2.811   8.067   3.538
22225WAT     H166917   2.843   8.035   3.449
22225WAT     H266918   2.800   8.167   3.535
22226WAT      O66919   4.889   6.072   6.425
22226WAT     H166920   4.978   6.118   6.429
22226WAT     H266921   4.861   6.062   6.330
22227WAT      O66922   4.565   0.608   9.479
22227WAT     H166923   4.503   0.660   9.537
22227WAT     H266924   4.550   0.510   9.495
22228WAT      O66925   7.539   5.227   1.026
22228WAT     H166926   7.536   5.215   1.126
22228WAT     H266927   7.446   5.237   0.991
22229WAT      O66928   1.554   6.059   8.230
22229WAT     H166929   1.456   6.044   8.239
22229WAT     H266930   1.572   6.150   8.193
22230WAT      O66931   8.446   6.389   5.833
22230WAT     H166932   8.544   6.371   5.828
22230WAT     H266933   8.399   6.337   5.762
22231WAT      O66934   2.219   9.173   3.552
22231WAT     H166935   2.249   9.082   3.582
22231WAT     H266936   2.211   9.174   3.453
22232WAT      O66937   8.195   5.768   9.170
22232WAT     H166938   8.291   5.751   9.191
22232WAT     H266939   8.161   5.843   9.228
22233WAT      O66940   9.280   1.803   5.177
22233WAT     H166941   9.369   1.767   5.150
22233WAT     H266942   9.268   1.791   5.276
22234WAT      O66943   9.427   4.944   3.220
22234WAT     H166944   9.500   4.944   3.151
22234WAT     H266945   9.439   4.865   3.281
22235WAT      O66946   4.804   0.937   0.336
22235WAT     H166947   4.787   0.890   0.422
22235WAT     H266948   4.767   0.882   0.260
22236WAT      O66949   1.037   7.686   2.013
22236WAT     H166950   0.991   7.617   2.069
22236WAT     H266951   0.969   7.741   1.965
22237WAT      O66952   3.754   3.486   3.176
22237WAT     H166953   3.684   3.416   3.164
22237WAT     H266954   3.764   3.508   3.273
22238WAT      O66955   1.022   0.564   1.873
22238WAT     H166956   1.027   0.599   1.967
22238WAT     H266957   0.962   0.623   1.819
22239WAT      O66958   6.329   1.990   5.238
22239WAT     H166959   6.318   2.010   5.140
22239WAT     H266960   6.238   1.987   5.281
22240WAT      O66961   8.355   2.791   8.796
22240WAT     H166962   8.314   2.878   8.824
22240WAT     H266963   8.339   2.776   8.699
22241WAT      O66964   3.694   2.311   9.570
22241WAT     H166965   3.699   2.270   9.479
22241WAT     H266966   3.606   2.359   9.581
22242WAT      O66967   4.924   3.467   8.742
22242WAT     H166968   4.968   3.554   8.763
22242WAT     H266969   4.973   3.422   8.667
22243WAT      O66970   8.554   0.458   0.025
22243WAT     H166971   8.539   0.447   0.124
22243WAT     H266972   8.640   0.506   0.010
22244WAT      O66973   9.824   8.371   8.508
22244WAT     H166974   9.732   8.367   8.468
22244WAT     H266975   9.820   8.420   8.595
22245WAT      O66976   7.661   8.603   9.493
22245WAT     H166977   7.722   8.559   9.559
22245WAT     H266978   7.703   8.602   9.403
22246WAT      O66979   6.433   7.521   0.621
22246WAT     H166980   6.513   7.463   0.628
22246WAT     H266981   6.405   7.549   0.713
22247WAT      O66982   3.876   5.000   8.546
22247WAT     H166983   3.972   4.999   8.519
22247WAT     H266984   3.836   5.090   8.526
22248WAT      O66985   6.783   0.049   0.622
22248WAT     H166986   6.771  -0.050   0.613
22248WAT     H266987   6.754   0.095   0.538
22249WAT      O66988   4.050   0.055   8.648
22249WAT     H166989   4.018  -0.036   8.675
22249WAT     H266990   4.023   0.072   8.553
22250WAT      O66991   5.291   8.173   9.862
22250WAT     H166992   5.331   8.170   9.770
22250WAT     H266993   5.340   8.239   9.918
22251WAT      O66994   0.890   4.624   9.552
22251WAT     H166995   0.795   4.597   9.560
22251WAT     H266996   0.920   4.614   9.457
22252WAT      O66997   9.296   6.860   7.103
22252WAT     H166998   9.290   6.947   7.054
22252WAT     H266999   9.359   6.870   7.180
22253WAT      O67000   7.627   5.753   4.811
22253WAT     H167001   7.642   5.852   4.813
22253WAT     H267002   7.541   5.734   4.763
22254WAT      O67003   3.281   1.263   1.018
22254WAT     H167004   3.203   1.228   0.966
22254WAT     H267005   3.340   1.187   1.045
22255WAT      O67006   1.559   7.043   1.377
22255WAT     H167007   1.623   6.967   1.384
22255WAT     H267008   1.597   7.123   1.424
22256WAT      O67009   4.116   8.185   1.044
22256WAT     H167010   4.201   8.221   1.005
22256WAT     H267011   4.110   8.210   1.140
22257WAT      O67012   2.740   1.964   9.688
22257WAT     H167013   2.717   2.048   9.639
22257WAT     H267014   2.695   1.886   9.643
22258WAT      O67015   3.381   2.232   4.738
22258WAT     H167016   3.325   2.242   4.657
22258WAT     H267017   3.326   2.194   4.813
22259WAT      O67018   8.770   0.911   9.709
22259WAT     H167019   8.744   0.993   9.657
22259WAT     H267020   8.739   0.919   9.803
22260WAT      O67021   6.977   6.992   6.118
22260WAT     H167022   6.971   6.985   6.018
22260WAT     H267023   6.887   6.974   6.158
22261WAT      O67024   2.794   1.215   3.223
22261WAT     H167025   2.798   1.185   3.128
22261WAT     H267026   2.832   1.143   3.282
22262WAT      O67027   0.847   7.408   9.522
22262WAT     H167028   0.749   7.388   9.526
22262WAT     H267029   0.877   7.446   9.609
22263WAT      O67030   2.393   1.670   4.776
22263WAT     H167031   2.486   1.645   4.803
22263WAT     H267032   2.393   1.764   4.742
22264WAT      O67033   7.635   3.591   2.915
22264WAT     H167034   7.680   3.616   3.001
22264WAT     H267035   7.536   3.602   2.925
22265WAT      O67036   6.832   8.646   0.996
22265WAT     H167037   6.860   8.607   0.908
22265WAT     H267038   6.906   8.636   1.062
22266WAT      O67039   9.412   3.136   6.889
22266WAT     H167040   9.456   3.128   6.978
22266WAT     H267041   9.316   3.164   6.901
22267WAT      O67042   5.381   1.417   7.142
22267WAT     H167043   5.307   1.466   7.188
22267WAT     H267044   5.374   1.320   7.162
22268WAT      O67045   1.054   6.841   9.448
22268WAT     H167046   0.970   6.853   9.396
22268WAT     H267047   1.096   6.754   9.425
22269WAT      O67048   2.025   3.151   1.190
22269WAT     H167049   1.988   3.243   1.179
22269WAT     H267050   2.029   3.106   1.101
22270WAT      O67051   9.278   8.747   2.956
22270WAT     H167052   9.297   8.663   3.008
22270WAT     H267053   9.182   8.772   2.968
22271WAT      O67054   5.110   7.551   2.365
22271WAT     H167055   5.091   7.503   2.450
22271WAT     H267056   5.024   7.585   2.326
22272WAT      O67057   0.315   2.855   9.097
22272WAT     H167058   0.377   2.802   9.155
22272WAT     H267059   0.284   2.936   9.147
22273WAT      O67060   4.814   1.324   3.627
22273WAT     H167061   4.717   1.300   3.638
22273WAT     H267062   4.835   1.330   3.529
22274WAT      O67063   0.667   9.081   6.449
22274WAT     H167064   0.615   9.156   6.409
22274WAT     H267065   0.634   8.994   6.412
22275WAT      O67066   5.379   0.522   3.954
22275WAT     H167067   5.339   0.613   3.961
22275WAT     H267068   5.391   0.485   4.046
22276WAT      O67069   5.436   7.006   1.396
22276WAT     H167070   5.482   7.009   1.307
22276WAT     H267071   5.432   7.099   1.434
22277WAT      O67072   1.332   1.982   5.015
22277WAT     H167073   1.336   1.882   5.022
22277WAT     H267074   1.258   2.017   5.073
22278WAT      O67075   1.821   2.807   5.420
22278WAT     H167076   1.829   2.906   5.405
22278WAT     H267077   1.739   2.773   5.374
22279WAT      O67078   6.801   3.227   1.854
22279WAT     H167079   6.787   3.138   1.896
22279WAT     H267080   6.713   3.273   1.842
22280WAT      O67081   0.677   8.872   8.503
22280WAT     H167082   0.654   8.965   8.474
22280WAT     H267083   0.757   8.840   8.451
22281WAT      O67084   3.437   6.268   8.660
22281WAT     H167085   3.353   6.253   8.711
22281WAT     H267086   3.454   6.189   8.600
22282WAT      O67087   0.968   0.477   9.182
22282WAT     H167088   0.936   0.572   9.185
22282WAT     H267089   1.017   0.457   9.267
22283WAT      O67090   8.353   2.968   3.575
22283WAT     H167091   8.288   2.929   3.510
22283WAT     H267092   8.416   2.897   3.605
22284WAT      O67093   9.426   4.676   0.933
22284WAT     H167094   9.412   4.740   1.009
22284WAT     H267095   9.454   4.727   0.851
22285WAT      O67096   9.216   2.082   3.727
22285WAT     H167097   9.203   1.998   3.674
22285WAT     H267098   9.131   2.135   3.726
22286WAT      O67099   3.027   4.976   1.719
22286WAT     H167100   3.016   4.961   1.817
22286WAT     H267101   2.955   5.038   1.686
22287WAT      O67102   3.045   2.170   5.114
22287WAT     H167103   2.948   2.144   5.119
22287WAT     H267104   3.083   2.174   5.206
22288WAT      O67105   2.817   1.192   2.539
22288WAT     H167106   2.873   1.119   2.578
22288WAT     H267107   2.817   1.271   2.601
22289WAT      O67108   5.473   3.905   5.685
22289WAT     H167109   5.517   3.993   5.703
22289WAT     H267110   5.534   3.848   5.631
22290WAT      O67111   1.483   5.746   6.763
22290WAT     H167112   1.580   5.726   6.753
22290WAT     H267113   1.438   5.672   6.813
22291WAT      O67114   4.100   6.252   0.793
22291WAT     H167115   4.196   6.232   0.775
22291WAT     H267116   4.066   6.191   0.865
22292WAT      O67117   6.480   1.702   4.556
22292WAT     H167118   6.416   1.644   4.507
22292WAT     H267119   6.447   1.796   4.556
22293WAT      O67120   2.910   7.451   2.528
22293WAT     H167121   3.006   7.462   2.552
22293WAT     H267122   2.882   7.525   2.467
22294WAT      O67123   2.985   0.455   5.651
22294WAT     H167124   2.993   0.490   5.558
22294WAT     H267125   3.074   0.456   5.695
22295WAT      O67126   5.116   2.600   3.534
22295WAT     H167127   5.087   2.617   3.440
22295WAT     H267128   5.062   2.656   3.596
22296WAT      O67129   7.871   0.106   5.072
22296WAT     H167130   7.825   0.020   5.094
22296WAT     H267131   7.969   0.090   5.060
22297WAT      O67132   9.697   0.355   3.889
22297WAT     H167133   9.650   0.442   3.874
22297WAT     H267134   9.771   0.345   3.821
22298WAT      O67135   3.121   2.865   6.094
22298WAT     H167136   3.080   2.783   6.055
22298WAT     H267137   3.062   2.903   6.165
22299WAT      O67138   8.467   4.808   2.248
22299WAT     H167139   8.519   4.735   2.202
22299WAT     H267140   8.483   4.895   2.202
22300WAT      O67141   4.258   7.146   6.919
22300WAT     H167142   4.300   7.154   7.009
22300WAT     H267143   4.325   7.167   6.848
22301WAT      O67144   7.881   5.387   0.761
22301WAT     H167145   7.872   5.303   0.813
22301WAT     H267146   7.978   5.409   0.749
22302WAT      O67147   7.152   1.374   7.495
22302WAT     H167148   7.120   1.454   7.546
22302WAT     H267149   7.252   1.375   7.493
22303WAT      O67150   3.045   5.662   7.261
22303WAT     H167151   3.061   5.758   7.285
22303WAT     H267152   2.949   5.649   7.238
22304WAT      O67153   8.597   5.538   3.936
22304WAT     H167154   8.557   5.491   4.015
22304WAT     H267155   8.629   5.629   3.963
22305WAT      O67156   9.263   3.435   4.527
22305WAT     H167157   9.168   3.437   4.559
22305WAT     H267158   9.323   3.471   4.599
22306WAT      O67159   4.124   8.749   0.189
22306WAT     H167160   4.190   8.708   0.125
22306WAT     H267161   4.159   8.836   0.222
22307WAT      O67162   7.573   4.863   8.273
22307WAT     H167163   7.519   4.805   8.334
22307WAT     H267164   7.556   4.837   8.178
22308WAT      O67165   5.980   4.575   8.058
22308WAT     H167166   5.924   4.643   8.011
22308WAT     H267167   5.946   4.564   8.152
22309WAT      O67168   5.035   2.147   1.044
22309WAT     H167169   5.002   2.055   1.063
22309WAT     H267170   4.997   2.179   0.957
22310WAT      O67171   8.674   1.498   1.023
22310WAT     H167172   8.588   1.503   0.972
22310WAT     H267173   8.661   1.540   1.113
22311WAT      O67174   1.078   9.458   4.818
22311WAT     H167175   1.049   9.370   4.856
22311WAT     H267176   1.178   9.464   4.819
22312WAT      O67177   3.458   8.956   3.140
22312WAT     H167178   3.501   9.045   3.125
22312WAT     H267179   3.370   8.968   3.185
22313WAT      O67180   7.371   7.002   5.078
22313WAT     H167181   7.288   7.029   5.127
22313WAT     H267182   7.366   7.035   4.984
22314WAT      O67183   9.391   5.199   7.501
22314WAT     H167184   9.430   5.244   7.420
22314WAT     H267185   9.325   5.260   7.544
22315WAT      O67186   0.732   4.302   4.258
22315WAT     H167187   0.824   4.339   4.246
22315WAT     H267188   0.695   4.332   4.346
22316WAT      O67189   1.813   8.260   2.506
22316WAT     H167190   1.740   8.238   2.442
22316WAT     H267191   1.852   8.175   2.541
22317WAT      O67192   7.561   0.155   8.546
22317WAT     H167193   7.656   0.160   8.517
22317WAT     H267194   7.508   0.226   8.500
22318WAT      O67195   9.350   1.421   4.922
22318WAT     H167196   9.444   1.441   4.894
22318WAT     H267197   9.339   1.322   4.931
22319WAT      O67198   5.997   5.296   7.730
22319WAT     H167199   6.055   5.374   7.707
22319WAT     H267200   6.036   5.247   7.808
22320WAT      O67201   5.600   6.190   7.398
22320WAT     H167202   5.514   6.227   7.432
22320WAT     H267203   5.675   6.219   7.458
22321WAT      O67204   4.748   9.627   9.357
22321WAT     H167205   4.830   9.683   9.345
22321WAT     H267206   4.704   9.650   9.444
22322WAT      O67207   1.129   2.836   2.944
22322WAT     H167208   1.162   2.742   2.953
22322WAT     H267209   1.146   2.869   2.851
22323WAT      O67210   0.705   8.139   7.977
22323WAT     H167211   0.753   8.147   7.889
22323WAT     H267212   0.759   8.081   8.039
22324WAT      O67213   8.274   8.524   3.765
22324WAT     H167214   8.310   8.596   3.705
22324WAT     H267215   8.310   8.435   3.736
22325WAT      O67216   8.717   9.190   7.608
22325WAT     H167217   8.797   9.137   7.638
22325WAT     H267218   8.638   9.166   7.665
22326WAT      O67219   2.366   3.472   0.716
22326WAT     H167220   2.318   3.507   0.636
22326WAT     H267221   2.399   3.380   0.697
22327WAT      O67222   5.646   9.314   9.330
22327WAT     H167223   5.746   9.313   9.325
22327WAT     H267224   5.610   9.225   9.304
22328WAT      O67225   0.400   3.197   5.086
22328WAT     H167226   0.451   3.275   5.050
22328WAT     H267227   0.456   3.147   5.151
22329WAT      O67228   2.570   2.993   4.348
22329WAT     H167229   2.609   2.935   4.277
22329WAT     H267230   2.612   3.084   4.345
22330WAT      O67231   3.979   1.448   1.125
22330WAT     H167232   3.931   1.535   1.113
22330WAT     H267233   4.057   1.462   1.187
22331WAT      O67234   8.703   1.390   4.979
22331WAT     H167235   8.669   1.469   5.030
22331WAT     H267236   8.723   1.316   5.043
22332WAT      O67237   9.712   6.669   9.043
22332WAT     H167238   9.666   6.610   9.110
22332WAT     H267239   9.643   6.711   8.984
22333WAT      O67240   5.890   7.309   1.347
22333WAT     H167241   5.887   7.299   1.446
22333WAT     H267242   5.830   7.385   1.320
22334WAT      O67243   2.364   8.632   2.317
22334WAT     H167244   2.368   8.673   2.225
22334WAT     H267245   2.440   8.568   2.328
22335WAT      O67246   5.346   9.028   4.031
22335WAT     H167247   5.313   8.944   4.075
22335WAT     H267248   5.343   9.103   4.096
22336WAT      O67249   7.215   8.623   7.989
22336WAT     H167250   7.147   8.639   7.917
22336WAT     H267251   7.305   8.651   7.956
22337WAT      O67252   9.110   1.077   1.261
22337WAT     H167253   9.110   0.979   1.243
22337WAT     H267254   9.018   1.107   1.285
22338WAT      O67255   7.953   5.656   8.024
22338WAT     H167256   7.907   5.656   8.113
22338WAT     H267257   8.052   5.662   8.037
22339WAT      O67258   2.817   0.526   3.726
22339WAT     H167259   2.903   0.491   3.689
22339WAT     H267260   2.743   0.506   3.662
22340WAT      O67261   1.428   7.935   2.675
22340WAT     H167262   1.398   7.923   2.770
22340WAT     H267263   1.415   8.030   2.648
22341WAT      O67264   7.534   7.706   5.686
22341WAT     H167265   7.566   7.801   5.681
22341WAT     H267266   7.449   7.703   5.738
22342WAT      O67267   2.259   8.463   0.998
22342WAT     H167268   2.172   8.423   0.969
22342WAT     H267269   2.325   8.456   0.923
22343WAT      O67270   6.232   8.449   0.612
22343WAT     H167271   6.267   8.369   0.563
22343WAT     H267272   6.275   8.454   0.702
22344WAT      O67273   7.360   5.374   7.217
22344WAT     H167274   7.334   5.451   7.276
22344WAT     H267275   7.295   5.366   7.142
22345WAT      O67276   3.160   9.261   7.691
22345WAT     H167277   3.080   9.240   7.747
22345WAT     H267278   3.190   9.354   7.710
22346WAT      O67279   2.635   4.213   9.349
22346WAT     H167280   2.574   4.263   9.288
22346WAT     H267281   2.685   4.277   9.407
22347WAT      O67282   7.302   2.319   1.990
22347WAT     H167283   7.235   2.366   1.933
22347WAT     H267284   7.305   2.222   1.966
22348WAT      O67285   1.665   3.780   9.876
22348WAT     H167286   1.712   3.784   9.788
22348WAT     H267287   1.633   3.871   9.902
22349WAT      O67288   3.325   8.270   8.136
22349WAT     H167289   3.245   8.308   8.182
22349WAT     H267290   3.385   8.345   8.106
22350WAT      O67291   0.710   4.778   9.262
22350WAT     H167292   0.773   4.748   9.191
22350WAT     H267293   0.702   4.878   9.259
22351WAT      O67294   6.828   1.613   1.705
22351WAT     H167295   6.775   1.695   1.728
22351WAT     H267296   6.923   1.639   1.688
22352WAT      O67297   3.787   4.772   8.135
22352WAT     H167298   3.865   4.833   8.147
22352WAT     H267299   3.820   4.681   8.110
22353WAT      O67300   5.051   5.664   8.526
22353WAT     H167301   4.992   5.702   8.597
22353WAT     H267302   5.038   5.715   8.441
22354WAT      O67303   3.975   7.920   1.262
22354WAT     H167304   3.932   8.011   1.259
22354WAT     H267305   3.980   7.883   1.169
22355WAT      O67306   4.474   6.672   7.701
22355WAT     H167307   4.555   6.730   7.709
22355WAT     H267308   4.471   6.631   7.610
22356WAT      O67309   9.580   6.072   8.986
22356WAT     H167310   9.543   5.983   9.012
22356WAT     H267311   9.536   6.143   9.040
22357WAT      O67312   1.159   2.285   8.343
22357WAT     H167313   1.109   2.324   8.421
22357WAT     H267314   1.148   2.345   8.263
22358WAT      O67315   4.062   6.622   4.022
22358WAT     H167316   4.068   6.525   3.997
22358WAT     H267317   4.061   6.631   4.121
22359WAT      O67318   3.460   0.428   0.238
22359WAT     H167319   3.506   0.467   0.159
22359WAT     H267320   3.528   0.402   0.307
22360WAT      O67321   1.610   6.341   8.922
22360WAT     H167322   1.646   6.248   8.909
22360WAT     H267323   1.650   6.381   9.004
22361WAT      O67324   1.629   2.665   4.021
22361WAT     H167325   1.554   2.713   4.066
22361WAT     H267326   1.593   2.584   3.975
22362WAT      O67327   8.552   0.135   8.890
22362WAT     H167328   8.641   0.102   8.922
22362WAT     H267329   8.529   0.221   8.937
22363WAT      O67330   3.377   4.470   7.727
22363WAT     H167331   3.314   4.523   7.670
22363WAT     H267332   3.329   4.438   7.809
22364WAT      O67333   3.602   1.092   2.023
22364WAT     H167334   3.654   1.171   1.991
22364WAT     H267335   3.509   1.097   1.988
22365WAT      O67336   3.424   9.327   7.464
22365WAT     H167337   3.434   9.359   7.370
22365WAT     H267338   3.511   9.339   7.513
22366WAT      O67339   4.806   5.028   8.710
22366WAT     H167340   4.784   5.124   8.697
22366WAT     H267341   4.745   4.971   8.654
22367WAT      O67342   1.442   1.653   4.658
22367WAT     H167343   1.406   1.715   4.589
22367WAT     H267344   1.537   1.676   4.678
22368WAT      O67345   2.826   6.694   2.861
22368WAT     H167346   2.738   6.681   2.816
22368WAT     H267347   2.886   6.617   2.839
22369WAT      O67348   7.994   0.001   3.327
22369WAT     H167349   7.964   0.047   3.243
22369WAT     H267350   7.937   0.032   3.403
22370WAT      O67351   6.708   5.620   4.216
22370WAT     H167352   6.711   5.660   4.124
22370WAT     H267353   6.693   5.521   4.209
22371WAT      O67354   5.707   7.498   1.261
22371WAT     H167355   5.633   7.441   1.296
22371WAT     H267356   5.697   7.591   1.297
22372WAT      O67357   6.138   8.873   3.212
22372WAT     H167358   6.082   8.801   3.171
22372WAT     H267359   6.138   8.862   3.312
22373WAT      O67360   1.079   5.377   3.029
22373WAT     H167361   1.171   5.341   3.043
22373WAT     H267362   1.080   5.443   2.953
22374WAT      O67363   5.363   7.476   1.079
22374WAT     H167364   5.268   7.457   1.055
22374WAT     H267365   5.412   7.389   1.090
22375WAT      O67366   5.754   2.638   9.210
22375WAT     H167367   5.787   2.603   9.298
22375WAT     H267368   5.694   2.569   9.168
22376WAT      O67369   3.063   6.440   4.093
22376WAT     H167370   3.078   6.466   4.188
22376WAT     H267371   3.150   6.407   4.054
22377WAT      O67372   2.778   6.841   6.844
22377WAT     H167373   2.713   6.801   6.780
22377WAT     H267374   2.826   6.767   6.893
22378WAT      O67375   8.223   7.253   3.080
22378WAT     H167376   8.249   7.169   3.128
22378WAT     H267377   8.180   7.229   2.993
22379WAT      O67378   9.030   3.298   7.499
22379WAT     H167379   9.112   3.355   7.507
22379WAT     H267380   8.949   3.352   7.525
22380WAT      O67381   5.035   1.254   0.012
22380WAT     H167382   4.964   1.323   0.010
22380WAT     H267383   5.111   1.282  -0.047
22381WAT      O67384   7.970   0.779   0.015
22381WAT     H167385   7.978   0.827   0.102
22381WAT     H267386   7.887   0.807  -0.031
22382WAT      O67387   3.474   9.575   2.363
22382WAT     H167388   3.450   9.512   2.437
22382WAT     H267389   3.464   9.529   2.275
22383WAT      O67390   4.628   6.436   7.337
22383WAT     H167391   4.700   6.465   7.274
22383WAT     H267392   4.630   6.337   7.348
22384WAT      O67393   7.174   2.339   2.382
22384WAT     H167394   7.076   2.355   2.396
22384WAT     H267395   7.202   2.258   2.433
22385WAT      O67396   5.588   3.149   4.249
22385WAT     H167397   5.564   3.237   4.292
22385WAT     H267398   5.506   3.110   4.206
22386WAT      O67399   0.238   7.692   2.001
22386WAT     H167400   0.188   7.617   2.043
22386WAT     H267401   0.305   7.656   1.937
22387WAT      O67402   6.876   9.236   5.920
22387WAT     H167403   6.966   9.275   5.905
22387WAT     H267404   6.855   9.237   6.018
22388WAT      O67405   8.968   0.466   3.286
22388WAT     H167406   8.896   0.397   3.278
22388WAT     H267407   9.037   0.450   3.215
22389WAT      O67408   9.643   5.883   1.870
22389WAT     H167409   9.640   5.976   1.908
22389WAT     H267410   9.551   5.857   1.840
22390WAT      O67411   4.992   7.915   4.991
22390WAT     H167412   5.037   7.857   5.059
22390WAT     H267413   5.033   7.899   4.901
22391WAT      O67414   0.218   0.219   5.969
22391WAT     H167415   0.259   0.288   6.029
22391WAT     H267416   0.223   0.250   5.874
22392WAT      O67417   3.577   0.669   2.871
22392WAT     H167418   3.638   0.590   2.868
22392WAT     H267419   3.554   0.696   2.777
22393WAT      O67420   6.656   8.200   1.048
22393WAT     H167421   6.690   8.106   1.043
22393WAT     H267422   6.636   8.224   1.143
22394WAT      O67423   7.498   8.299   7.319
22394WAT     H167424   7.479   8.202   7.306
22394WAT     H267425   7.438   8.335   7.390
22395WAT      O67426   1.697   9.717   6.349
22395WAT     H167427   1.598   9.712   6.355
22395WAT     H267428   1.727   9.810   6.373
22396WAT      O67429   9.879   1.211   3.695
22396WAT     H167430   9.922   1.286   3.644
22396WAT     H267431   9.794   1.243   3.736
22397WAT      O67432   6.137   8.700   8.808
22397WAT     H167433   6.050   8.652   8.792
22397WAT     H267434   6.163   8.691   8.904
22398WAT      O67435   2.152   5.619   1.424
22398WAT     H167436   2.223   5.556   1.454
22398WAT     H267437   2.156   5.702   1.480
22399WAT      O67438   9.617   1.441   4.860
22399WAT     H167439   9.669   1.369   4.905
22399WAT     H267440   9.666   1.528   4.866
22400WAT      O67441   0.357   9.145   6.574
22400WAT     H167442   0.278   9.088   6.598
22400WAT     H267443   0.406   9.171   6.657
22401WAT      O67444   1.737   1.907   9.711
22401WAT     H167445   1.787   1.964   9.776
22401WAT     H267446   1.656   1.868   9.755
22402WAT      O67447   2.345   2.306   8.242
22402WAT     H167448   2.338   2.298   8.143
22402WAT     H267449   2.283   2.378   8.274
22403WAT      O67450   6.177   8.941   8.725
22403WAT     H167451   6.143   8.849   8.747
22403WAT     H267452   6.274   8.947   8.749
22404WAT      O67453   6.921   2.832   3.996
22404WAT     H167454   6.847   2.807   4.059
22404WAT     H267455   6.892   2.910   3.940
22405WAT      O67456   6.405   4.750   2.668
22405WAT     H167457   6.471   4.798   2.610
22405WAT     H267458   6.347   4.816   2.714
22406WAT      O67459   2.256   9.734   4.760
22406WAT     H167460   2.324   9.781   4.817
22406WAT     H267461   2.184   9.696   4.818
22407WAT      O67462   1.350   4.250   7.958
22407WAT     H167463   1.306   4.194   8.028
22407WAT     H267464   1.374   4.192   7.880
22408WAT      O67465   3.896   2.311   8.153
22408WAT     H167466   3.909   2.297   8.055
22408WAT     H267467   3.952   2.246   8.204
22409WAT      O67468   0.616   5.356   1.910
22409WAT     H167469   0.622   5.365   2.010
22409WAT     H267470   0.538   5.409   1.876
22410WAT      O67471   3.410   3.916   9.161
22410WAT     H167472   3.385   3.919   9.065
22410WAT     H267473   3.394   3.825   9.198
22411WAT      O67474   0.934   7.190   3.120
22411WAT     H167475   0.845   7.152   3.145
22411WAT     H267476   0.936   7.288   3.143
22412WAT      O67477   3.929   2.219   4.892
22412WAT     H167478   3.955   2.228   4.988
22412WAT     H267479   3.916   2.310   4.852
22413WAT      O67480   0.349   8.727   3.586
22413WAT     H167481   0.380   8.699   3.495
22413WAT     H267482   0.421   8.711   3.653
22414WAT      O67483   3.290   2.550   4.006
22414WAT     H167484   3.366   2.509   4.057
22414WAT     H267485   3.322   2.635   3.962
22415WAT      O67486   2.041   3.127   8.755
22415WAT     H167487   2.051   3.113   8.853
22415WAT     H267488   2.000   3.217   8.737
22416WAT      O67489   6.333   5.281   6.699
22416WAT     H167490   6.431   5.266   6.687
22416WAT     H267491   6.305   5.251   6.790
22417WAT      O67492   6.136   2.633   3.517
22417WAT     H167493   6.120   2.683   3.432
22417WAT     H267494   6.068   2.661   3.585
22418WAT      O67495   1.621   9.511   5.729
22418WAT     H167496   1.626   9.447   5.806
22418WAT     H267497   1.643   9.463   5.644
22419WAT      O67498   1.284   4.433   8.720
22419WAT     H167499   1.362   4.469   8.771
22419WAT     H267500   1.201   4.482   8.747
22420WAT      O67501   9.087   7.675   2.707
22420WAT     H167502   9.015   7.694   2.773
22420WAT     H267503   9.161   7.741   2.718
22421WAT      O67504   4.160   3.621   1.181
22421WAT     H167505   4.174   3.524   1.203
22421WAT     H267506   4.153   3.632   1.082
22422WAT      O67507   0.435   8.690   3.846
22422WAT     H167508   0.502   8.747   3.893
22422WAT     H267509   0.461   8.594   3.856
22423WAT      O67510   7.138   8.327   1.365
22423WAT     H167511   7.199   8.265   1.316
22423WAT     H267512   7.055   8.341   1.311
22424WAT      O67513   3.795   5.401   7.779
22424WAT     H167514   3.837   5.424   7.691
22424WAT     H267515   3.864   5.405   7.851
22425WAT      O67516   3.666   8.031   8.879
22425WAT     H167517   3.705   7.940   8.863
22425WAT     H267518   3.610   8.057   8.800
22426WAT      O67519   6.512   6.313   1.019
22426WAT     H167520   6.523   6.316   0.920
22426WAT     H267521   6.591   6.268   1.060
22427WAT      O67522   1.961   3.662   8.485
22427WAT     H167523   1.978   3.743   8.429
22427WAT     H267524   1.869   3.627   8.467
22428WAT      O67525   7.718   6.948   0.098
22428WAT     H167526   7.746   6.943   0.194
22428WAT     H267527   7.796   6.930   0.039
22429WAT      O67528   0.726   2.068   3.518
22429WAT     H167529   0.806   2.008   3.507
22429WAT     H267530   0.688   2.089   3.428
22430WAT      O67531   9.236   3.471   4.197
22430WAT     H167532   9.146   3.429   4.192
22430WAT     H267533   9.260   3.487   4.293
22431WAT      O67534   2.737   2.277   3.779
22431WAT     H167535   2.665   2.208   3.792
22431WAT     H267536   2.803   2.270   3.854
22432WAT      O67537   8.163   8.676   1.681
22432WAT     H167538   8.181   8.773   1.693
22432WAT     H267539   8.120   8.660   1.593
22433WAT      O67540   2.769   8.941   7.303
22433WAT     H167541   2.699   8.925   7.372
22433WAT     H267542   2.792   8.855   7.258
22434WAT      O67543   6.271   2.886   2.377
22434WAT     H167544   6.219   2.950   2.320
22434WAT     H267545   6.354   2.858   2.329
22435WAT      O67546   4.272   1.889   6.680
22435WAT     H167547   4.325   1.808   6.707
22435WAT     H267548   4.269   1.953   6.756
22436WAT      O67549   7.015   8.303   7.717
22436WAT     H167550   7.036   8.220   7.665
22436WAT     H267551   7.069   8.304   7.801
22437WAT      O67552   7.113   8.136   2.666
22437WAT     H167553   7.117   8.230   2.698
22437WAT     H267554   7.030   8.093   2.700
22438WAT      O67555   8.053   0.852   5.785
22438WAT     H167556   8.016   0.772   5.738
22438WAT     H267557   8.015   0.935   5.743
22439WAT      O67558   9.042   1.802   1.596
22439WAT     H167559   8.990   1.855   1.529
22439WAT     H267560   9.100   1.736   1.550
22440WAT      O67561   3.286   0.399   6.640
22440WAT     H167562   3.191   0.415   6.613
22440WAT     H267563   3.313   0.307   6.612
22441WAT      O67564   4.092   7.012   4.257
22441WAT     H167565   4.116   7.095   4.208
22441WAT     H267566   4.159   6.941   4.236
22442WAT      O67567   7.557   0.760   5.804
22442WAT     H167568   7.516   0.754   5.895
22442WAT     H267569   7.649   0.723   5.807
22443WAT      O67570   5.346   0.263   3.560
22443WAT     H167571   5.306   0.193   3.501
22443WAT     H267572   5.407   0.321   3.506
22444WAT      O67573   5.459   0.704   0.736
22444WAT     H167574   5.491   0.792   0.702
22444WAT     H267575   5.535   0.639   0.740
22445WAT      O67576   1.269   4.622   7.383
22445WAT     H167577   1.308   4.539   7.425
22445WAT     H267578   1.205   4.595   7.311
22446WAT      O67579   8.961   2.584   2.055
22446WAT     H167580   9.036   2.621   2.109
22446WAT     H267581   8.976   2.606   1.958
22447WAT      O67582   2.574   9.631   2.849
22447WAT     H167583   2.613   9.706   2.903
22447WAT     H267584   2.483   9.656   2.818
22448WAT      O67585   8.718   6.163   0.739
22448WAT     H167586   8.775   6.182   0.659
22448WAT     H267587   8.737   6.231   0.810
22449WAT      O67588   7.398   4.388   0.969
22449WAT     H167589   7.438   4.354   1.055
22449WAT     H267590   7.301   4.365   0.967
22450WAT      O67591   5.945   0.779   8.347
22450WAT     H167592   5.972   0.772   8.443
22450WAT     H267593   5.975   0.868   8.311
22451WAT      O67594   6.763   5.444   1.543
22451WAT     H167595   6.767   5.469   1.446
22451WAT     H267596   6.674   5.405   1.563
22452WAT      O67597   8.048   4.173   1.026
22452WAT     H167598   8.054   4.073   1.026
22452WAT     H267599   8.017   4.205   0.936
22453WAT      O67600   3.772   6.036   5.948
22453WAT     H167601   3.809   6.127   5.932
22453WAT     H267602   3.697   6.041   6.014
22454WAT      O67603   8.849   4.186   7.144
22454WAT     H167604   8.867   4.185   7.242
22454WAT     H267605   8.922   4.235   7.097
22455WAT      O67606   2.543   6.630   9.617
22455WAT     H167607   2.496   6.598   9.699
22455WAT     H267608   2.545   6.557   9.549
22456WAT      O67609   7.137   0.188   9.254
22456WAT     H167610   7.177   0.140   9.332
22456WAT     H267611   7.040   0.206   9.273
22457WAT      O67612   3.991   6.845   0.292
22457WAT     H167613   4.081   6.875   0.326
22457WAT     H267614   3.964   6.903   0.216
22458WAT      O67615   7.949   4.381   7.721
22458WAT     H167616   8.006   4.309   7.681
22458WAT     H267617   7.964   4.467   7.672
22459WAT      O67618   4.417   0.976   2.076
22459WAT     H167619   4.458   0.885   2.078
22459WAT     H267620   4.443   1.023   1.992
22460WAT      O67621   9.460   8.781   0.594
22460WAT     H167622   9.498   8.728   0.670
22460WAT     H267623   9.507   8.756   0.510
22461WAT      O67624   4.994   2.947   4.407
22461WAT     H167625   4.918   3.009   4.425
22461WAT     H267626   4.963   2.852   4.414
22462WAT      O67627   6.450   4.245   6.246
22462WAT     H167628   6.382   4.228   6.318
22462WAT     H267629   6.430   4.332   6.202
22463WAT      O67630   9.082   1.893   0.894
22463WAT     H167631   9.135   1.894   0.979
22463WAT     H267632   8.985   1.896   0.916
22464WAT      O67633   8.068   2.651   7.037
22464WAT     H167634   8.006   2.575   7.019
22464WAT     H267635   8.017   2.737   7.037
22465WAT      O67636   3.307   1.935   1.989
22465WAT     H167637   3.285   2.006   2.056
22465WAT     H267638   3.392   1.889   2.016
22466WAT      O67639   1.213   3.757   8.845
22466WAT     H167640   1.150   3.753   8.923
22466WAT     H267641   1.256   3.847   8.841
22467WAT      O67642   8.363   7.773   2.399
22467WAT     H167643   8.444   7.722   2.372
22467WAT     H267644   8.350   7.767   2.498
22468WAT      O67645   1.756   1.895   4.105
22468WAT     H167646   1.689   1.827   4.075
22468WAT     H267647   1.830   1.850   4.155
22469WAT      O67648   0.862   9.520   3.663
22469WAT     H167649   0.780   9.577   3.651
22469WAT     H267650   0.923   9.532   3.586
22470WAT      O67651   2.919   7.560   5.476
22470WAT     H167652   2.949   7.583   5.383
22470WAT     H267653   2.981   7.604   5.542
22471WAT      O67654   3.121   3.698   0.409
22471WAT     H167655   3.128   3.601   0.388
22471WAT     H267656   3.055   3.712   0.482
22472WAT      O67657   5.345   8.878   5.055
22472WAT     H167658   5.441   8.890   5.082
22472WAT     H267659   5.341   8.824   4.971
22473WAT      O67660   5.739   0.199   1.250
22473WAT     H167661   5.726   0.104   1.222
22473WAT     H267662   5.837   0.218   1.256
22474WAT      O67663   3.011   5.797   8.952
22474WAT     H167664   2.974   5.888   8.930
22474WAT     H267665   2.957   5.727   8.906
22475WAT      O67666   4.276   1.649   8.798
22475WAT     H167667   4.234   1.564   8.766
22475WAT     H267668   4.232   1.727   8.753
22476WAT      O67669   7.460   2.169   7.137
22476WAT     H167670   7.454   2.223   7.221
22476WAT     H267671   7.369   2.158   7.098
22477WAT      O67672   3.805   1.593   1.656
22477WAT     H167673   3.782   1.496   1.646
22477WAT     H267674   3.751   1.648   1.592
22478WAT      O67675   4.370   7.702   0.980
22478WAT     H167676   4.435   7.728   0.909
22478WAT     H267677   4.313   7.780   1.004
22479WAT      O67678   8.391   6.727   1.019
22479WAT     H167679   8.473   6.784   1.012
22479WAT     H267680   8.329   6.749   0.944
22480WAT      O67681   2.611   7.992   9.362
22480WAT     H167682   2.557   7.999   9.445
22480WAT     H267683   2.585   7.909   9.312
22481WAT      O67684   0.425   1.658   9.004
22481WAT     H167685   0.507   1.601   9.015
22481WAT     H267686   0.398   1.659   8.908
22482WAT      O67687   2.214   3.666   4.964
22482WAT     H167688   2.235   3.582   5.014
22482WAT     H267689   2.174   3.644   4.875
22483WAT      O67690   2.745   3.120   7.588
22483WAT     H167691   2.649   3.137   7.612
22483WAT     H267692   2.772   3.184   7.515
22484WAT      O67693   7.644   3.641   0.182
22484WAT     H167694   7.693   3.688   0.109
22484WAT     H267695   7.688   3.661   0.270
22485WAT      O67696   3.445   4.399   1.590
22485WAT     H167697   3.431   4.392   1.689
22485WAT     H267698   3.458   4.495   1.565
22486WAT      O67699   8.595   7.128   5.213
22486WAT     H167700   8.631   7.092   5.299
22486WAT     H267701   8.672   7.152   5.153
22487WAT      O67702   7.267   3.302   4.421
22487WAT     H167703   7.309   3.269   4.505
22487WAT     H267704   7.321   3.274   4.343
22488WAT      O67705   0.036   1.264   6.159
22488WAT     H167706  -0.041   1.200   6.169
22488WAT     H267707   0.036   1.328   6.236
22489WAT      O67708   5.352   6.469   5.439
22489WAT     H167709   5.376   6.520   5.357
22489WAT     H267710   5.425   6.405   5.462
22490WAT      O67711   9.354   8.092   8.221
22490WAT     H167712   9.307   8.076   8.134
22490WAT     H267713   9.410   8.012   8.243
22491WAT      O67714   0.428   5.492   6.569
22491WAT     H167715   0.387   5.572   6.524
22491WAT     H267716   0.484   5.522   6.646
22492WAT      O67717   6.261   7.237   0.303
22492WAT     H167718   6.319   7.310   0.267
22492WAT     H267719   6.181   7.225   0.244
22493WAT      O67720   0.304   1.957   7.423
22493WAT     H167721   0.258   1.887   7.478
22493WAT     H267722   0.356   1.912   7.350
22494WAT      O67723   0.302   4.451   4.265
22494WAT     H167724   0.307   4.352   4.264
22494WAT     H267725   0.382   4.489   4.218
22495WAT      O67726   1.895   7.860   9.676
22495WAT     H167727   1.841   7.786   9.716
22495WAT     H267728   1.952   7.824   9.602
22496WAT      O67729   6.817   3.949   6.689
22496WAT     H167730   6.773   3.898   6.615
22496WAT     H267731   6.779   4.041   6.693
22497WAT      O67732   0.733   2.625   8.375
22497WAT     H167733   0.687   2.540   8.401
22497WAT     H267734   0.780   2.612   8.288
22498WAT      O67735   7.634   5.745   5.885
22498WAT     H167736   7.699   5.781   5.952
22498WAT     H267737   7.684   5.703   5.809
22499WAT      O67738   1.083   8.184   9.057
22499WAT     H167739   1.170   8.167   9.011
22499WAT     H267740   1.080   8.280   9.087
22500WAT      O67741   9.130   7.744   1.735
22500WAT     H167742   9.116   7.699   1.647
22500WAT     H267743   9.057   7.810   1.752
22501WAT      O67744   5.205   7.836   1.696
22501WAT     H167745   5.141   7.768   1.659
22501WAT     H267746   5.171   7.870   1.784
22502WAT      O67747   8.431   0.919   2.220
22502WAT     H167748   8.354   0.979   2.201
22502WAT     H267749   8.515   0.959   2.182
22503WAT      O67750   9.835   9.117   5.265
22503WAT     H167751   9.803   9.166   5.185
22503WAT     H267752   9.758   9.069   5.308
22504WAT      O67753   7.204   2.896   8.686
22504WAT     H167754   7.152   2.889   8.600
22504WAT     H267755   7.268   2.820   8.692
22505WAT      O67756   6.056   2.343   1.437
22505WAT     H167757   6.105   2.399   1.504
22505WAT     H267758   5.963   2.378   1.425
22506WAT      O67759   6.597   0.503   2.604
22506WAT     H167760   6.616   0.486   2.507
22506WAT     H267761   6.504   0.538   2.614
22507WAT      O67762   2.029   2.995   8.065
22507WAT     H167763   1.931   3.013   8.062
22507WAT     H267764   2.075   3.053   7.998
22508WAT      O67765   0.150   6.279   3.265
22508WAT     H167766   0.247   6.272   3.288
22508WAT     H267767   0.139   6.281   3.166
22509WAT      O67768   1.534   1.792   9.839
22509WAT     H167769   1.604   1.722   9.851
22509WAT     H267770   1.502   1.824   9.929
22510WAT      O67771   5.588   0.275   6.855
22510WAT     H167772   5.687   0.274   6.867
22510WAT     H267773   5.545   0.226   6.930
22511WAT      O67774   6.455   4.482   5.928
22511WAT     H167775   6.370   4.505   5.880
22511WAT     H267776   6.459   4.384   5.945
22512WAT      O67777   9.181   3.146   7.932
22512WAT     H167778   9.144   3.126   7.841
22512WAT     H267779   9.148   3.078   7.997
22513WAT      O67780   6.962   4.311   4.570
22513WAT     H167781   6.998   4.337   4.659
22513WAT     H267782   6.911   4.225   4.578
22514WAT      O67783   6.037   3.098   1.455
22514WAT     H167784   6.094   3.171   1.417
22514WAT     H267785   6.025   3.113   1.553
22515WAT      O67786   1.925   4.506   1.200
22515WAT     H167787   2.013   4.462   1.218
22515WAT     H267788   1.940   4.602   1.176
22516WAT      O67789   4.883   6.479   3.932
22516WAT     H167790   4.865   6.463   3.835
22516WAT     H267791   4.901   6.392   3.978
22517WAT      O67792   6.253   3.273   8.718
22517WAT     H167793   6.250   3.365   8.680
22517WAT     H267794   6.237   3.206   8.646
22518WAT      O67795   9.589   9.497   4.575
22518WAT     H167796   9.589   9.539   4.666
22518WAT     H267797   9.587   9.398   4.584
22519WAT      O67798   5.041   3.063   5.240
22519WAT     H167799   4.949   3.043   5.273
22519WAT     H267800   5.035   3.106   5.150
22520WAT      O67801   3.716   0.761   9.678
22520WAT     H167802   3.746   0.680   9.728
22520WAT     H267803   3.658   0.733   9.602
22521WAT      O67804   8.956   4.482   7.891
22521WAT     H167805   9.039   4.530   7.921
22521WAT     H267806   8.981   4.413   7.823
22522WAT      O67807   0.415   3.587   5.714
22522WAT     H167808   0.395   3.666   5.772
22522WAT     H267809   0.401   3.611   5.618
22523WAT      O67810   0.833   4.410   9.356
22523WAT     H167811   0.835   4.357   9.441
22523WAT     H267812   0.893   4.367   9.289
22524WAT      O67813   7.167   9.741   4.775
22524WAT     H167814   7.240   9.781   4.719
22524WAT     H267815   7.079   9.754   4.729
22525WAT      O67816   4.411   3.652   5.826
22525WAT     H167817   4.443   3.572   5.877
22525WAT     H267818   4.352   3.622   5.751
22526WAT      O67819   5.426   7.877   2.782
22526WAT     H167820   5.336   7.919   2.782
22526WAT     H267821   5.486   7.926   2.719
22527WAT      O67822   2.931   3.950   8.529
22527WAT     H167823   2.881   4.010   8.591
22527WAT     H267824   2.919   3.855   8.557
22528WAT      O67825   7.156   4.534   1.172
22528WAT     H167826   7.134   4.586   1.254
22528WAT     H267827   7.081   4.470   1.152
22529WAT      O67828   2.855   2.547   3.654
22529WAT     H167829   2.834   2.450   3.639
22529WAT     H267830   2.954   2.559   3.658
22530WAT      O67831   7.357   7.760   2.283
22530WAT     H167832   7.342   7.737   2.380
22530WAT     H267833   7.442   7.718   2.252
22531WAT      O67834   6.435   5.484   2.100
22531WAT     H167835   6.465   5.518   2.011
22531WAT     H267836   6.507   5.428   2.141
22532WAT      O67837   8.230   2.826   4.952
22532WAT     H167838   8.143   2.807   4.908
22532WAT     H267839   8.285   2.743   4.955
22533WAT      O67840   1.918   0.656   3.917
22533WAT     H167841   1.868   0.638   4.001
22533WAT     H267842   1.876   0.607   3.841
22534WAT      O67843   3.142   4.103   8.461
22534WAT     H167844   3.069   4.035   8.453
22534WAT     H267845   3.220   4.063   8.511
22535WAT      O67846   5.723   0.543   6.730
22535WAT     H167847   5.789   0.522   6.658
22535WAT     H267848   5.721   0.469   6.797
22536WAT      O67849   1.363   0.920   9.247
22536WAT     H167850   1.438   0.945   9.309
22536WAT     H267851   1.383   0.831   9.205
22537WAT      O67852   7.483   6.289   4.950
22537WAT     H167853   7.401   6.243   4.984
22537WAT     H267854   7.482   6.288   4.850
22538WAT      O67855   7.665   0.878   9.503
22538WAT     H167856   7.753   0.917   9.476
22538WAT     H267857   7.672   0.778   9.505
22539WAT      O67858   3.646   3.160   4.412
22539WAT     H167859   3.682   3.081   4.462
22539WAT     H267860   3.570   3.131   4.354
22540WAT      O67861   7.447   9.571   0.782
22540WAT     H167862   7.520   9.639   0.785
22540WAT     H267863   7.482   9.485   0.745
22541WAT      O67864   3.601   2.686   9.447
22541WAT     H167865   3.675   2.654   9.388
22541WAT     H267866   3.619   2.658   9.542
22542WAT      O67867   2.485   5.481   1.038
22542WAT     H167868   2.398   5.525   1.014
22542WAT     H267869   2.498   5.484   1.137
22543WAT      O67870   0.618   2.286   8.871
22543WAT     H167871   0.585   2.358   8.933
22543WAT     H267872   0.614   2.198   8.917
22544WAT      O67873   2.311   6.993   1.676
22544WAT     H167874   2.367   6.910   1.683
22544WAT     H267875   2.271   6.999   1.585
22545WAT      O67876   6.079   3.902   2.300
22545WAT     H167877   6.142   3.936   2.230
22545WAT     H267878   6.132   3.860   2.374
22546WAT      O67879   7.453   2.848   5.268
22546WAT     H167880   7.483   2.884   5.180
22546WAT     H267881   7.526   2.861   5.336
22547WAT      O67882   7.880   2.846   7.034
22547WAT     H167883   7.862   2.882   6.943
22547WAT     H267884   7.797   2.852   7.089
22548WAT      O67885   8.049   2.057   9.487
22548WAT     H167886   8.024   1.984   9.423
22548WAT     H267887   8.004   2.041   9.575
22549WAT      O67888   3.659   6.302   9.513
22549WAT     H167889   3.609   6.371   9.566
22549WAT     H267890   3.623   6.211   9.535
22550WAT      O67891   9.339   0.592   8.930
22550WAT     H167892   9.421   0.620   8.880
22550WAT     H267893   9.314   0.498   8.903
22551WAT      O67894   2.863   5.692   6.724
22551WAT     H167895   2.944   5.741   6.755
22551WAT     H267896   2.829   5.734   6.640
22552WAT      O67897   0.938   0.540   3.428
22552WAT     H167898   0.838   0.540   3.422
22552WAT     H267899   0.975   0.465   3.375
22553WAT      O67900   2.999   0.801   3.250
22553WAT     H167901   3.007   0.775   3.346
22553WAT     H267902   2.961   0.726   3.197
22554WAT      O67903   2.941   9.401   4.450
22554WAT     H167904   3.000   9.446   4.384
22554WAT     H267905   2.856   9.452   4.460
22555WAT      O67906   8.717   2.592   7.779
22555WAT     H167907   8.708   2.664   7.710
22555WAT     H267908   8.640   2.528   7.770
22556WAT      O67909   6.333   0.862   1.803
22556WAT     H167910   6.390   0.889   1.725
22556WAT     H267911   6.285   0.777   1.780
22557WAT      O67912   3.254   0.907   3.833
22557WAT     H167913   3.245   0.987   3.892
22557WAT     H267914   3.312   0.929   3.755
22558WAT      O67915   2.188   8.306   5.809
22558WAT     H167916   2.210   8.337   5.716
22558WAT     H267917   2.273   8.284   5.857
22559WAT      O67918   9.387   4.059   8.073
22559WAT     H167919   9.409   3.996   7.999
22559WAT     H267920   9.378   4.152   8.037
22560WAT      O67921   1.956   6.271   6.425
22560WAT     H167922   2.050   6.289   6.395
22560WAT     H267923   1.928   6.342   6.491
22561WAT      O67924   6.116   5.008   0.104
22561WAT     H167925   6.211   5.002   0.134
22561WAT     H267926   6.071   5.083   0.150
22562WAT      O67927   1.791   9.505   9.075
22562WAT     H167928   1.713   9.449   9.103
22562WAT     H267929   1.814   9.485   8.980
22563WAT      O67930   6.973   8.961   4.773
22563WAT     H167931   7.023   8.877   4.793
22563WAT     H267932   6.997   9.031   4.840
22564WAT      O67933   8.446   7.061   9.472
22564WAT     H167934   8.381   7.060   9.548
22564WAT     H267935   8.395   7.061   9.386
22565WAT      O67936   1.545   2.576   9.052
22565WAT     H167937   1.544   2.517   8.971
22565WAT     H267938   1.500   2.662   9.030
22566WAT      O67939   4.632   0.319   5.079
22566WAT     H167940   4.660   0.295   5.172
22566WAT     H267941   4.710   0.358   5.030
22567WAT      O67942   9.554   9.722   5.748
22567WAT     H167943   9.621   9.796   5.757
22567WAT     H267944   9.597   9.643   5.704
22568WAT      O67945   2.220   0.181   8.534
22568WAT     H167946   2.290   0.111   8.518
22568WAT     H267947   2.248   0.239   8.611
22569WAT      O67948   0.391   7.894   9.586
22569WAT     H167949   0.441   7.980   9.575
22569WAT     H267950   0.382   7.850   9.497
22570WAT      O67951   3.192   9.724   1.524
22570WAT     H167952   3.166   9.775   1.442
22570WAT     H267953   3.194   9.785   1.603
22571WAT      O67954   4.386   6.115   2.990
22571WAT     H167955   4.417   6.025   2.958
22571WAT     H267956   4.321   6.153   2.925
22572WAT      O67957   5.138   9.041   8.781
22572WAT     H167958   5.129   9.087   8.870
22572WAT     H267959   5.119   9.105   8.708
22573WAT      O67960   3.700   0.977   6.777
22573WAT     H167961   3.796   0.998   6.756
22573WAT     H267962   3.686   0.878   6.771
22574WAT      O67963   5.908   6.206   1.869
22574WAT     H167964   5.933   6.301   1.851
22574WAT     H267965   5.846   6.201   1.947
22575WAT      O67966   3.860   6.967   1.001
22575WAT     H167967   3.809   7.013   1.073
22575WAT     H267968   3.896   6.880   1.036
22576WAT      O67969   7.642   6.279   8.999
22576WAT     H167970   7.578   6.259   9.074
22576WAT     H267971   7.598   6.337   8.931
22577WAT      O67972   8.431   6.215   0.993
22577WAT     H167973   8.354   6.226   1.056
22577WAT     H267974   8.505   6.166   1.040
22578WAT      O67975   4.032   0.103   0.965
22578WAT     H167976   3.940   0.115   1.002
22578WAT     H267977   4.049   0.169   0.892
22579WAT      O67978   1.123   5.268   0.719
22579WAT     H167979   1.037   5.312   0.746
22579WAT     H267980   1.197   5.303   0.778
22580WAT      O67981   2.155   5.282   7.131
22580WAT     H167982   2.254   5.275   7.133
22580WAT     H267983   2.117   5.253   7.218
22581WAT      O67984   5.368   2.433   9.628
22581WAT     H167985   5.315   2.350   9.643
22581WAT     H267986   5.318   2.512   9.663
22582WAT      O67987   0.309   7.685   8.839
22582WAT     H167988   0.348   7.614   8.779
22582WAT     H267989   0.210   7.679   8.837
22583WAT      O67990   8.466   8.063   4.524
22583WAT     H167991   8.452   8.112   4.610
22583WAT     H267992   8.563   8.068   4.498
22584WAT      O67993   5.317   7.696   8.429
22584WAT     H167994   5.243   7.649   8.380
22584WAT     H267995   5.352   7.636   8.501
22585WAT      O67996   5.461   4.802   0.010
22585WAT     H167997   5.465   4.899  -0.014
22585WAT     H267998   5.500   4.747  -0.064
22586WAT      O67999   3.416   8.682   5.794
22586WAT     H168000   3.321   8.664   5.767
22586WAT     H268001   3.478   8.649   5.723
22587WAT      O68002   2.322   8.165   8.391
22587WAT     H168003   2.270   8.124   8.466
22587WAT     H268004   2.353   8.093   8.329
22588WAT      O68005   3.872   6.850   4.165
22588WAT     H168006   3.929   6.919   4.211
22588WAT     H268007   3.827   6.892   4.087
22589WAT      O68008   8.868   9.303   0.739
22589WAT     H168009   8.893   9.347   0.825
22589WAT     H268010   8.778   9.260   0.748
22590WAT      O68011   8.722   6.295   2.972
22590WAT     H168012   8.672   6.297   2.886
22590WAT     H268013   8.815   6.329   2.958
22591WAT      O68014   8.188   3.087   8.340
22591WAT     H168015   8.184   3.152   8.264
22591WAT     H268016   8.151   2.999   8.311
22592WAT      O68017   1.638   4.099   5.488
22592WAT     H168018   1.728   4.106   5.532
22592WAT     H268019   1.597   4.010   5.510
22593WAT      O68020   2.612   1.458   8.656
22593WAT     H168021   2.629   1.374   8.605
22593WAT     H268022   2.641   1.537   8.602
22594WAT      O68023   2.316   8.395   9.795
22594WAT     H168024   2.344   8.422   9.886
22594WAT     H268025   2.267   8.471   9.751
22595WAT      O68026   2.965   6.484   2.810
22595WAT     H168027   2.870   6.458   2.792
22595WAT     H268028   3.004   6.420   2.877
22596WAT      O68029   5.729   4.781   8.630
22596WAT     H168030   5.719   4.698   8.686
22596WAT     H268031   5.640   4.823   8.616
22597WAT      O68032   7.962   6.069   8.712
22597WAT     H168033   7.944   5.970   8.707
22597WAT     H268034   8.012   6.089   8.796
22598WAT      O68035   1.611   1.135   0.812
22598WAT     H168036   1.519   1.100   0.828
22598WAT     H268037   1.607   1.210   0.745
22599WAT      O68038   2.249   8.038   9.182
22599WAT     H168039   2.265   7.943   9.153
22599WAT     H268040   2.337   8.082   9.199
22600WAT      O68041   4.984   1.032   8.706
22600WAT     H168042   4.893   1.012   8.670
22600WAT     H268043   5.022   0.951   8.750
22601WAT      O68044   0.066   3.335   1.924
22601WAT     H168045   0.164   3.355   1.937
22601WAT     H268046   0.037   3.268   1.992
22602WAT      O68047   7.523   1.083   5.390
22602WAT     H168048   7.515   1.048   5.483
22602WAT     H268049   7.471   1.025   5.328
22603WAT      O68050   7.664   7.473   5.704
22603WAT     H168051   7.722   7.459   5.624
22603WAT     H268052   7.605   7.552   5.687
22604WAT      O68053   8.158   9.566   9.762
22604WAT     H168054   8.058   9.569   9.763
22604WAT     H268055   8.193   9.645   9.711
22605WAT      O68056   7.568   8.540   0.867
22605WAT     H168057   7.596   8.446   0.847
22605WAT     H268058   7.529   8.582   0.785
22606WAT      O68059   3.930   8.163   0.841
22606WAT     H168060   3.862   8.097   0.872
22606WAT     H268061   4.000   8.173   0.912
22607WAT      O68062   7.211   2.167   9.606
22607WAT     H168063   7.138   2.196   9.668
22607WAT     H268064   7.176   2.100   9.541
22608WAT      O68065   7.574   1.246   8.070
22608WAT     H168066   7.492   1.213   8.116
22608WAT     H268067   7.655   1.219   8.122
22609WAT      O68068   8.651   4.474   3.693
22609WAT     H168069   8.634   4.559   3.743
22609WAT     H268070   8.684   4.404   3.757
22610WAT      O68071   0.513   8.166   4.761
22610WAT     H168072   0.442   8.230   4.731
22610WAT     H268073   0.552   8.197   4.847
22611WAT      O68074   8.715   3.535   1.808
22611WAT     H168075   8.692   3.481   1.889
22611WAT     H268076   8.789   3.491   1.758
22612WAT      O68077   7.534   7.817   1.465
22612WAT     H168078   7.539   7.885   1.538
22612WAT     H268079   7.535   7.863   1.377
22613WAT      O68080   0.669   9.729   9.151
22613WAT     H168081   0.591   9.789   9.134
22613WAT     H268082   0.664   9.650   9.089
22614WAT      O68083   8.825   6.941   9.682
22614WAT     H168084   8.895   7.007   9.712
22614WAT     H268085   8.867   6.852   9.669
22615WAT      O68086   2.545   1.182   2.523
22615WAT     H168087   2.525   1.096   2.476
22615WAT     H268088   2.644   1.193   2.531
22616WAT      O68089   7.308   6.886   7.087
22616WAT     H168090   7.293   6.801   7.137
22616WAT     H268091   7.225   6.911   7.036
22617WAT      O68092   9.793   4.560   8.840
22617WAT     H168093   9.790   4.660   8.839
22617WAT     H268094   9.841   4.529   8.922
22618WAT      O68095   0.260   9.500   8.208
22618WAT     H168096   0.309   9.497   8.120
22618WAT     H268097   0.186   9.434   8.207
22619WAT      O68098   1.024   0.291   1.909
22619WAT     H168099   1.113   0.268   1.949
22619WAT     H268100   1.017   0.390   1.897
22620WAT      O68101   5.128   7.057   6.266
22620WAT     H168102   5.045   7.012   6.232
22620WAT     H268103   5.183   7.087   6.188
22621WAT      O68104   8.505   3.504   5.337
22621WAT     H168105   8.566   3.570   5.381
22621WAT     H268106   8.545   3.474   5.250
22622WAT      O68107   3.228   3.428   1.878
22622WAT     H168108   3.264   3.509   1.926
22622WAT     H268109   3.216   3.353   1.943
22623WAT      O68110   7.264   4.772   2.254
22623WAT     H168111   7.219   4.691   2.215
22623WAT     H268112   7.210   4.853   2.234
22624WAT      O68113   6.875   5.827   6.817
22624WAT     H168114   6.842   5.749   6.870
22624WAT     H268115   6.801   5.862   6.759
22625WAT      O68116   7.148   8.142   0.450
22625WAT     H168117   7.245   8.123   0.465
22625WAT     H268118   7.114   8.204   0.521
22626WAT      O68119   8.000   5.269   2.338
22626WAT     H168120   7.918   5.241   2.389
22626WAT     H268121   7.998   5.230   2.246
22627WAT      O68122   3.553   5.565   2.872
22627WAT     H168123   3.594   5.561   2.963
22627WAT     H268124   3.496   5.647   2.865
22628WAT      O68125   5.688   3.830   1.189
22628WAT     H168126   5.592   3.806   1.193
22628WAT     H268127   5.707   3.903   1.255
22629WAT      O68128   4.070   1.898   3.276
22629WAT     H168129   4.019   1.817   3.247
22629WAT     H268130   4.047   1.920   3.371
22630WAT      O68131   6.913   3.646   5.679
22630WAT     H168132   6.960   3.724   5.722
22630WAT     H268133   6.965   3.563   5.698
22631WAT      O68134   6.053   9.339   9.035
22631WAT     H168135   6.010   9.429   9.031
22631WAT     H268136   6.046   9.295   8.945
22632WAT      O68137   1.865   9.458   2.425
22632WAT     H168138   1.936   9.518   2.460
22632WAT     H268139   1.879   9.443   2.327
22633WAT      O68140   9.355   4.398   9.159
22633WAT     H168141   9.451   4.376   9.140
22633WAT     H268142   9.308   4.316   9.190
22634WAT      O68143   1.250   8.675   3.516
22634WAT     H168144   1.181   8.668   3.589
22634WAT     H268145   1.216   8.628   3.435
22635WAT      O68146   4.224   5.391   3.581
22635WAT     H168147   4.239   5.303   3.626
22635WAT     H268148   4.248   5.465   3.644
22636WAT      O68149   3.696   5.664   0.480
22636WAT     H168150   3.748   5.581   0.457
22636WAT     H268151   3.690   5.673   0.579
22637WAT      O68152   5.629   3.783   2.502
22637WAT     H168153   5.705   3.717   2.504
22637WAT     H268154   5.644   3.848   2.427
22638WAT      O68155   1.567   8.335   4.728
22638WAT     H168156   1.584   8.325   4.630
22638WAT     H268157   1.585   8.247   4.773
22639WAT      O68158   1.494   1.816   7.920
22639WAT     H168159   1.514   1.810   8.018
22639WAT     H268160   1.576   1.792   7.868
22640WAT      O68161   7.935   9.775   8.517
22640WAT     H168162   7.866   9.780   8.589
22640WAT     H268163   7.998   9.699   8.537
22641WAT      O68164   7.387   0.778   0.587
22641WAT     H168165   7.370   0.876   0.572
22641WAT     H268166   7.465   0.768   0.649
22642WAT      O68167   7.756   3.790   6.656
22642WAT     H168168   7.750   3.726   6.580
22642WAT     H268169   7.682   3.856   6.650
22643WAT      O68170   0.762   0.804   7.986
22643WAT     H168171   0.851   0.820   8.028
22643WAT     H268172   0.743   0.706   7.982
22644WAT      O68173   1.993   1.116   9.250
22644WAT     H168174   2.058   1.047   9.282
22644WAT     H268175   1.985   1.189   9.318
22645WAT      O68176   3.859   1.685   7.466
22645WAT     H168177   3.920   1.640   7.400
22645WAT     H268178   3.912   1.718   7.543
22646WAT      O68179   4.123   5.082   6.878
22646WAT     H168180   4.156   5.033   6.959
22646WAT     H268181   4.115   5.018   6.801
22647WAT      O68182   4.009   9.047   1.397
22647WAT     H168183   4.076   9.015   1.329
22647WAT     H268184   4.006   8.982   1.474
22648WAT      O68185   7.706   9.684   0.894
22648WAT     H168186   7.729   9.611   0.958
22648WAT     H268187   7.715   9.650   0.800
22649WAT      O68188   1.573   9.316   4.864
22649WAT     H168189   1.482   9.277   4.849
22649WAT     H268190   1.576   9.409   4.828
22650WAT      O68191   2.497   7.389   5.380
22650WAT     H168192   2.523   7.404   5.284
22650WAT     H268193   2.438   7.308   5.386
22651WAT      O68194   4.003   0.042   1.719
22651WAT     H168195   4.076  -0.025   1.732
22651WAT     H268196   4.019   0.121   1.779
22652WAT      O68197   4.435   8.003   1.258
22652WAT     H168198   4.512   8.024   1.318
22652WAT     H268199   4.465   8.005   1.163
22653WAT      O68200   0.628   7.135   1.518
22653WAT     H168201   0.553   7.126   1.584
22653WAT     H268202   0.597   7.102   1.429
22654WAT      O68203   6.964   5.442   2.204
22654WAT     H168204   6.982   5.382   2.126
22654WAT     H268205   7.016   5.410   2.283
22655WAT      O68206   0.138   7.848   3.910
22655WAT     H168207   0.160   7.752   3.894
22655WAT     H268208   0.204   7.905   3.862
22656WAT      O68209   8.137   0.889   1.058
22656WAT     H168210   8.195   0.834   0.998
22656WAT     H268211   8.108   0.833   1.136
22657WAT      O68212   8.020   8.924   3.353
22657WAT     H168213   7.964   8.857   3.304
22657WAT     H268214   7.962   8.998   3.385
22658WAT      O68215   2.083   2.444   6.437
22658WAT     H168216   2.074   2.361   6.382
22658WAT     H268217   2.021   2.515   6.402
22659WAT      O68218   6.765   2.798   0.370
22659WAT     H168219   6.857   2.766   0.392
22659WAT     H268220   6.742   2.877   0.428
22660WAT      O68221   0.799   3.629   2.529
22660WAT     H168222   0.865   3.618   2.603
22660WAT     H268223   0.844   3.670   2.450
22661WAT      O68224   7.695   0.880   8.033
22661WAT     H168225   7.611   0.842   8.071
22661WAT     H268226   7.753   0.913   8.108
22662WAT      O68227   6.506   3.595   3.440
22662WAT     H168228   6.507   3.658   3.517
22662WAT     H268229   6.421   3.605   3.388
22663WAT      O68230   9.439   8.186   4.755
22663WAT     H168231   9.386   8.104   4.732
22663WAT     H268232   9.414   8.217   4.846
22664WAT      O68233   3.038   3.899   5.648
22664WAT     H168234   3.093   3.845   5.584
22664WAT     H268235   2.943   3.902   5.616
22665WAT      O68236   8.056   0.129   7.275
22665WAT     H168237   8.091   0.222   7.269
22665WAT     H268238   8.122   0.072   7.325
22666WAT      O68239   6.299   4.053   4.725
22666WAT     H168240   6.307   4.120   4.651
22666WAT     H268241   6.220   4.075   4.782
22667WAT      O68242   7.020   1.340   3.517
22667WAT     H168243   6.922   1.353   3.529
22667WAT     H268244   7.038   1.315   3.422
22668WAT      O68245   7.124   4.082   1.395
22668WAT     H168246   7.195   4.142   1.358
22668WAT     H268247   7.163   4.023   1.465
22669WAT      O68248   6.370   4.819   7.576
22669WAT     H168249   6.372   4.722   7.551
22669WAT     H268250   6.451   4.865   7.541
22670WAT      O68251   8.213   7.984   7.918
22670WAT     H168252   8.230   7.971   7.820
22670WAT     H268253   8.181   7.899   7.958
22671WAT      O68254   0.476   3.866   7.437
22671WAT     H168255   0.487   3.767   7.446
22671WAT     H268256   0.394   3.886   7.383
22672WAT      O68257   4.521   4.022   9.229
22672WAT     H168258   4.436   4.004   9.179
22672WAT     H268259   4.501   4.034   9.326
22673WAT      O68260   3.779   8.596   1.554
22673WAT     H168261   3.779   8.557   1.462
22673WAT     H268262   3.794   8.524   1.621
22674WAT      O68263   5.030   3.337   0.463
22674WAT     H168264   5.099   3.382   0.408
22674WAT     H268265   4.955   3.305   0.404
22675WAT      O68266   2.658   8.177   6.333
22675WAT     H168267   2.654   8.261   6.387
22675WAT     H268268   2.565   8.147   6.311
22676WAT      O68269   8.301   0.808   6.939
22676WAT     H168270   8.387   0.764   6.914
22676WAT     H268271   8.319   0.897   6.981
22677WAT      O68272   7.105   2.102   4.387
22677WAT     H168273   7.160   2.114   4.470
22677WAT     H268274   7.112   2.008   4.356
22678WAT      O68275   2.327   7.905   1.975
22678WAT     H168276   2.305   7.884   1.879
22678WAT     H268277   2.354   7.821   2.022
22679WAT      O68278   2.018   2.978   0.977
22679WAT     H168279   1.948   2.942   0.916
22679WAT     H268280   2.096   3.010   0.924
22680WAT      O68281   8.862   8.012   8.648
22680WAT     H168282   8.809   8.008   8.733
22680WAT     H268283   8.844   7.930   8.593
22681WAT      O68284   5.518   6.602   4.173
22681WAT     H168285   5.549   6.623   4.266
22681WAT     H268286   5.517   6.503   4.160
22682WAT      O68287   4.710   7.987   3.843
22682WAT     H168288   4.765   7.957   3.765
22682WAT     H268289   4.767   7.988   3.925
22683WAT      O68290   3.567   2.561   2.558
22683WAT     H168291   3.567   2.491   2.487
22683WAT     H268292   3.620   2.531   2.636
22684WAT      O68293   8.283   0.197   8.534
22684WAT     H168294   8.332   0.277   8.570
22684WAT     H268295   8.226   0.157   8.606
22685WAT      O68296   2.711   6.357   9.267
22685WAT     H168297   2.806   6.373   9.290
22685WAT     H268298   2.703   6.335   9.169
22686WAT      O68299   9.849   1.854   9.587
22686WAT     H168300   9.847   1.879   9.490
22686WAT     H268301   9.944   1.839   9.615
22687WAT      O68302   7.735   5.508   9.703
22687WAT     H168303   7.671   5.437   9.672
22687WAT     H268304   7.752   5.498   9.801
22688WAT      O68305   4.204   6.230   0.387
22688WAT     H168306   4.135   6.168   0.424
22688WAT     H268307   4.160   6.299   0.329
22689WAT      O68308   9.521   6.536   3.191
22689WAT     H168309   9.555   6.608   3.252
22689WAT     H268310   9.552   6.553   3.098
22690WAT      O68311   2.280   2.721   4.686
22690WAT     H168312   2.270   2.756   4.780
22690WAT     H268313   2.351   2.774   4.639
22691WAT      O68314   8.244   8.444   0.539
22691WAT     H168315   8.202   8.506   0.472
22691WAT     H268316   8.213   8.468   0.631
22692WAT      O68317   5.325   1.311   4.734
22692WAT     H168318   5.343   1.265   4.821
22692WAT     H268319   5.229   1.296   4.708
22693WAT      O68320   6.165   2.002   1.176
22693WAT     H168321   6.222   1.936   1.224
22693WAT     H268322   6.088   1.956   1.132
22694WAT      O68323   0.150   9.449   5.966
22694WAT     H168324   0.170   9.526   6.026
22694WAT     H268325   0.145   9.480   5.871
22695WAT      O68326   1.292   2.064   0.365
22695WAT     H168327   1.285   2.111   0.453
22695WAT     H268328   1.273   2.128   0.291
22696WAT      O68329   5.734   1.119   2.882
22696WAT     H168330   5.792   1.094   2.804
22696WAT     H268331   5.725   1.040   2.943
22697WAT      O68332   7.393   5.871   3.439
22697WAT     H168333   7.313   5.883   3.497
22697WAT     H268334   7.476   5.871   3.496
22698WAT      O68335   7.367   6.271   9.452
22698WAT     H168336   7.386   6.356   9.403
22698WAT     H268337   7.282   6.281   9.504
22699WAT      O68338   9.177   1.897   3.539
22699WAT     H168339   9.176   1.878   3.441
22699WAT     H268340   9.106   1.841   3.584
22700WAT      O68341   8.466   9.482   4.729
22700WAT     H168342   8.566   9.479   4.732
22700WAT     H268343   8.429   9.446   4.815
22701WAT      O68344   3.547   1.567   6.719
22701WAT     H168345   3.472   1.625   6.687
22701WAT     H268346   3.630   1.623   6.729
22702WAT      O68347   2.212   0.398   1.160
22702WAT     H168348   2.307   0.429   1.169
22702WAT     H268349   2.197   0.362   1.068
22703WAT      O68350   4.354   9.557   3.044
22703WAT     H168351   4.262   9.587   3.018
22703WAT     H268352   4.405   9.635   3.081
22704WAT      O68353   1.237   3.046   9.181
22704WAT     H168354   1.330   3.061   9.147
22704WAT     H268355   1.240   2.981   9.257
22705WAT      O68356   8.326   1.853   7.273
22705WAT     H168357   8.341   1.893   7.182
22705WAT     H268358   8.413   1.824   7.311
22706WAT      O68359   0.645   8.762   1.595
22706WAT     H168360   0.547   8.757   1.615
22706WAT     H268361   0.693   8.691   1.646
22707WAT      O68362   2.915   6.776   7.918
22707WAT     H168363   2.954   6.824   7.840
22707WAT     H268364   2.849   6.708   7.886
22708WAT      O68365   6.357   2.639   0.317
22708WAT     H168366   6.287   2.690   0.367
22708WAT     H268367   6.349   2.657   0.219
22709WAT      O68368   0.539   7.283   5.238
22709WAT     H168369   0.528   7.287   5.139
22709WAT     H268370   0.457   7.245   5.280
22710WAT      O68371   4.427   6.169   1.711
22710WAT     H168372   4.385   6.259   1.719
22710WAT     H268373   4.376   6.114   1.645
22711WAT      O68374   0.839   2.637   8.758
22711WAT     H168375   0.847   2.539   8.740
22711WAT     H268376   0.931   2.677   8.765
22712WAT      O68377   8.445   9.196   0.394
22712WAT     H168378   8.437   9.143   0.479
22712WAT     H268379   8.497   9.143   0.327
22713WAT      O68380   8.997   9.576   5.823
22713WAT     H168381   8.932   9.557   5.897
22713WAT     H268382   9.090   9.552   5.854
22714WAT      O68383   1.245   4.745   6.169
22714WAT     H168384   1.171   4.690   6.131
22714WAT     H268385   1.210   4.799   6.246
22715WAT      O68386   1.695   2.557   3.382
22715WAT     H168387   1.687   2.639   3.325
22715WAT     H268388   1.731   2.582   3.472
22716WAT      O68389   6.149   5.994   8.893
22716WAT     H168390   6.086   5.934   8.942
22716WAT     H268391   6.222   5.940   8.852
22717WAT      O68392   1.856   6.791   2.457
22717WAT     H168393   1.793   6.858   2.417
22717WAT     H268394   1.826   6.698   2.432
22718WAT      O68395   6.518   3.429   8.274
22718WAT     H168396   6.479   3.342   8.303
22718WAT     H268397   6.568   3.417   8.189
22719WAT      O68398   6.257   1.357   5.923
22719WAT     H168399   6.190   1.334   5.993
22719WAT     H268400   6.221   1.332   5.833
22720WAT      O68401   8.758   7.772   7.781
22720WAT     H168402   8.854   7.799   7.786
22720WAT     H268403   8.714   7.789   7.869
22721WAT      O68404   5.457   9.480   2.558
22721WAT     H168405   5.370   9.459   2.602
22721WAT     H268406   5.472   9.579   2.560
22722WAT      O68407   9.864   8.375   6.659
22722WAT     H168408   9.948   8.425   6.680
22722WAT     H268409   9.833   8.328   6.742
22723WAT      O68410   8.352   7.458   1.365
22723WAT     H168411   8.367   7.416   1.455
22723WAT     H268412   8.417   7.420   1.299
22724WAT      O68413   5.361   7.872   6.215
22724WAT     H168414   5.377   7.892   6.311
22724WAT     H268415   5.307   7.788   6.206
22725WAT      O68416   7.238   3.036   9.767
22725WAT     H168417   7.243   3.079   9.857
22725WAT     H268418   7.316   3.065   9.711
22726WAT      O68419   0.384   2.236   9.162
22726WAT     H168420   0.375   2.336   9.165
22726WAT     H268421   0.464   2.208   9.214
22727WAT      O68422   2.039   3.151   6.285
22727WAT     H168423   1.952   3.186   6.318
22727WAT     H268424   2.095   3.123   6.363
22728WAT      O68425   2.163   2.824   2.504
22728WAT     H168426   2.098   2.866   2.567
22728WAT     H268427   2.186   2.889   2.431
22729WAT      O68428   3.990   5.954   3.284
22729WAT     H168429   3.924   5.888   3.248
22729WAT     H268430   4.011   6.022   3.214
22730WAT      O68431   5.083   0.601   5.173
22730WAT     H168432   5.122   0.648   5.093
22730WAT     H268433   5.113   0.506   5.173
22731WAT      O68434   4.565   3.697   4.038
22731WAT     H168435   4.628   3.672   3.965
22731WAT     H268436   4.608   3.679   4.126
22732WAT      O68437   3.854   9.287   3.385
22732WAT     H168438   3.929   9.352   3.389
22732WAT     H268439   3.823   9.266   3.478
22733WAT      O68440   9.475   6.081   6.339
22733WAT     H168441   9.421   6.060   6.421
22733WAT     H268442   9.572   6.083   6.363
22734WAT      O68443   1.302   6.855   9.287
22734WAT     H168444   1.339   6.812   9.369
22734WAT     H268445   1.354   6.826   9.207
22735WAT      O68446   3.701   5.851   9.599
22735WAT     H168447   3.793   5.867   9.564
22735WAT     H268448   3.682   5.753   9.600
22736WAT      O68449   6.558   3.748   4.903
22736WAT     H168450   6.510   3.717   4.821
22736WAT     H268451   6.514   3.832   4.937
22737WAT      O68452   8.023   2.943   6.609
22737WAT     H168453   7.951   2.961   6.676
22737WAT     H268454   8.105   2.909   6.656
22738WAT      O68455   4.852   0.227   6.040
22738WAT     H168456   4.777   0.275   6.085
22738WAT     H268457   4.923   0.293   6.015
22739WAT      O68458   5.401   4.446   1.782
22739WAT     H168459   5.366   4.420   1.692
22739WAT     H268460   5.347   4.522   1.818
22740WAT      O68461   7.726   8.531   6.407
22740WAT     H168462   7.776   8.564   6.487
22740WAT     H268463   7.750   8.587   6.327
22741WAT      O68464   8.765   7.461   5.214
22741WAT     H168465   8.742   7.538   5.155
22741WAT     H268466   8.780   7.380   5.158
22742WAT      O68467   0.768   5.318   9.586
22742WAT     H168468   0.838   5.247   9.599
22742WAT     H268469   0.692   5.302   9.649
22743WAT      O68470   5.853   8.000   5.594
22743WAT     H168471   5.927   7.962   5.650
22743WAT     H268472   5.765   7.962   5.625
22744WAT      O68473   0.176   5.923   5.559
22744WAT     H168474   0.214   5.974   5.482
22744WAT     H268475   0.078   5.913   5.548
22745WAT      O68476   6.517   4.479   8.294
22745WAT     H168477   6.459   4.534   8.354
22745WAT     H268478   6.469   4.462   8.208
22746WAT      O68479   0.041   1.722   2.110
22746WAT     H168480   0.089   1.636   2.090
22746WAT     H268481   0.003   1.759   2.025
22747WAT      O68482   2.667   7.141   7.315
22747WAT     H168483   2.666   7.202   7.394
22747WAT     H268484   2.692   7.193   7.234
22748WAT      O68485   3.960   1.215   1.836
22748WAT     H168486   4.032   1.283   1.823
22748WAT     H268487   3.878   1.261   1.872
22749WAT      O68488   5.718   0.728   3.425
22749WAT     H168489   5.629   0.773   3.432
22749WAT     H268490   5.711   0.635   3.461
22750WAT      O68491   0.535   8.417   4.193
22750WAT     H168492   0.566   8.417   4.097
22750WAT     H268493   0.614   8.421   4.253
22751WAT      O68494   9.885   8.817   4.408
22751WAT     H168495   9.903   8.853   4.499
22751WAT     H268496   9.830   8.733   4.416
22752WAT      O68497   3.871   8.845   0.212
22752WAT     H168498   3.967   8.818   0.199
22752WAT     H268499   3.848   8.840   0.309
22753WAT      O68500   4.352   6.096   1.973
22753WAT     H168501   4.415   6.117   1.899
22753WAT     H268502   4.268   6.056   1.936
22754WAT      O68503   3.176   6.651   0.849
22754WAT     H168504   3.155   6.619   0.941
22754WAT     H268505   3.186   6.750   0.849
22755WAT      O68506   7.409   0.562   4.152
22755WAT     H168507   7.485   0.497   4.150
22755WAT     H268508   7.446   0.655   4.149
22756WAT      O68509   0.649   1.953   9.392
22756WAT     H168510   0.643   1.880   9.324
22756WAT     H268511   0.745   1.973   9.411
22757WAT      O68512   8.834   5.404   1.225
22757WAT     H168513   8.866   5.494   1.197
22757WAT     H268514   8.909   5.338   1.215
22758WAT      O68515   3.477   2.130   2.678
22758WAT     H168516   3.544   2.203   2.666
22758WAT     H268517   3.454   2.121   2.774
22759WAT      O68518   4.049   8.965   6.787
22759WAT     H168519   4.067   8.900   6.860
22759WAT     H268520   4.117   8.954   6.714
22760WAT      O68521   8.840   6.391   6.638
22760WAT     H168522   8.915   6.447   6.603
22760WAT     H268523   8.850   6.297   6.607
22761WAT      O68524   4.652   4.941   5.126
22761WAT     H168525   4.691   5.012   5.068
22761WAT     H268526   4.719   4.914   5.196
22762WAT      O68527   9.557   2.884   0.416
22762WAT     H168528   9.490   2.874   0.342
22762WAT     H268529   9.521   2.943   0.487
22763WAT      O68530   2.147   3.069   4.801
22763WAT     H168531   2.081   3.049   4.728
22763WAT     H268532   2.180   2.983   4.839
22764WAT      O68533   4.806   9.546   6.346
22764WAT     H168534   4.752   9.629   6.330
22764WAT     H268535   4.745   9.467   6.349
22765WAT      O68536   9.133   8.219   1.451
22765WAT     H168537   9.037   8.240   1.433
22765WAT     H268538   9.184   8.221   1.365
22766WAT      O68539   4.908   6.691   6.632
22766WAT     H168540   4.845   6.749   6.580
22766WAT     H268541   4.953   6.626   6.571
22767WAT      O68542   5.000   4.220   0.547
22767WAT     H168543   5.041   4.189   0.633
22767WAT     H268544   5.012   4.150   0.477
22768WAT      O68545   8.649   5.367   4.341
22768WAT     H168546   8.706   5.443   4.373
22768WAT     H268547   8.608   5.320   4.420
22769WAT      O68548   6.186   8.044   7.730
22769WAT     H168549   6.190   7.973   7.800
22769WAT     H268550   6.220   8.130   7.769
22770WAT      O68551   7.019   0.624   8.327
22770WAT     H168552   6.966   0.662   8.252
22770WAT     H268553   6.976   0.539   8.358
22771WAT      O68554   5.574   2.338   1.361
22771WAT     H168555   5.564   2.314   1.458
22771WAT     H268556   5.493   2.388   1.331
22772WAT      O68557   3.197   6.045   0.664
22772WAT     H168558   3.251   6.046   0.580
22772WAT     H268559   3.220   5.964   0.718
22773WAT      O68560   1.532   2.266   3.248
22773WAT     H168561   1.540   2.304   3.341
22773WAT     H268562   1.617   2.219   3.224
22774WAT      O68563   3.093   8.178   5.038
22774WAT     H168564   3.126   8.262   4.995
22774WAT     H268565   3.020   8.200   5.103
22775WAT      O68566   5.730   6.896   7.718
22775WAT     H168567   5.811   6.930   7.670
22775WAT     H268568   5.706   6.806   7.682
22776WAT      O68569   0.456   7.525   3.726
22776WAT     H168570   0.367   7.558   3.759
22776WAT     H268571   0.454   7.426   3.718
22777WAT      O68572   5.722   9.524   5.197
22777WAT     H168573   5.814   9.559   5.213
22777WAT     H268574   5.656   9.599   5.201
22778WAT      O68575   6.975   0.820   3.383
22778WAT     H168576   7.054   0.877   3.404
22778WAT     H268577   6.894   0.877   3.372
22779WAT      O68578   1.455   3.576   6.660
22779WAT     H168579   1.412   3.653   6.613
22779WAT     H268580   1.548   3.565   6.627
22780WAT      O68581   2.012   1.374   5.691
22780WAT     H168582   1.951   1.382   5.612
22780WAT     H268583   2.017   1.463   5.738
22781WAT      O68584   4.191   3.322   1.211
22781WAT     H168585   4.268   3.261   1.231
22781WAT     H268586   4.141   3.340   1.296
22782WAT      O68587   0.895   2.996   4.414
22782WAT     H168588   0.958   3.013   4.338
22782WAT     H268589   0.846   3.081   4.436
22783WAT      O68590   4.189   8.247   6.099
22783WAT     H168591   4.210   8.216   6.192
22783WAT     H268592   4.267   8.227   6.039
22784WAT      O68593   3.050   2.622   6.913
22784WAT     H168594   3.034   2.633   6.814
22784WAT     H268595   2.968   2.647   6.963
22785WAT      O68596   5.610   4.700   8.326
22785WAT     H168597   5.543   4.774   8.334
22785WAT     H268598   5.563   4.612   8.334
22786WAT      O68599   2.754   8.845   0.921
22786WAT     H168600   2.794   8.753   0.917
22786WAT     H268601   2.746   8.882   0.828
22787WAT      O68602   7.635   1.240   6.463
22787WAT     H168603   7.594   1.175   6.526
22787WAT     H268604   7.672   1.317   6.514
22788WAT      O68605   4.088   4.205   8.559
22788WAT     H168606   4.157   4.148   8.513
22788WAT     H268607   4.095   4.299   8.524
22789WAT      O68608   8.079   2.001   4.731
22789WAT     H168609   8.064   1.902   4.726
22789WAT     H268610   8.063   2.032   4.824
22790WAT      O68611   9.163   9.829   2.287
22790WAT     H168612   9.100   9.893   2.331
22790WAT     H268613   9.235   9.803   2.352
22791WAT      O68614   1.257   4.995   8.029
22791WAT     H168615   1.236   5.073   8.087
22791WAT     H268616   1.263   4.912   8.084
22792WAT      O68617   3.226   1.742   0.239
22792WAT     H168618   3.298   1.776   0.179
22792WAT     H268619   3.257   1.658   0.284
22793WAT      O68620   2.956   8.454   6.829
22793WAT     H168621   2.975   8.464   6.927
22793WAT     H268622   2.891   8.524   6.800
22794WAT      O68623   6.869   7.025   3.182
22794WAT     H168624   6.803   7.100   3.192
22794WAT     H268625   6.960   7.063   3.168
22795WAT      O68626   0.696   0.267   2.788
22795WAT     H168627   0.751   0.262   2.871
22795WAT     H268628   0.747   0.316   2.717
22796WAT      O68629   1.589   8.069   4.829
22796WAT     H168630   1.685   8.048   4.851
22796WAT     H268631   1.533   8.055   4.911
22797WAT      O68632   2.629   8.541   2.773
22797WAT     H168633   2.724   8.571   2.770
22797WAT     H268634   2.625   8.442   2.787
22798WAT      O68635   5.658   9.705   1.462
22798WAT     H168636   5.710   9.631   1.418
22798WAT     H268637   5.572   9.668   1.498
22799WAT      O68638   8.127   8.808   8.329
22799WAT     H168639   8.190   8.761   8.266
22799WAT     H268640   8.056   8.744   8.359
22800WAT      O68641   6.971   6.558   9.526
22800WAT     H168642   6.991   6.597   9.616
22800WAT     H268643   6.892   6.605   9.487
22801WAT      O68644   1.637   4.749   0.043
22801WAT     H168645   1.662   4.772  -0.051
22801WAT     H268646   1.696   4.676   0.077
22802WAT      O68647   6.065   8.416   3.911
22802WAT     H168648   6.136   8.411   3.981
22802WAT     H268649   6.101   8.460   3.829
22803WAT      O68650   0.300   8.980   5.542
22803WAT     H168651   0.232   8.957   5.612
22803WAT     H268652   0.281   9.071   5.506
22804WAT      O68653   9.591   0.942   8.391
22804WAT     H168654   9.580   1.040   8.372
22804WAT     H268655   9.611   0.893   8.307
22805WAT      O68656   6.316   5.250   6.970
22805WAT     H168657   6.273   5.287   7.052
22805WAT     H268658   6.407   5.213   6.993
22806WAT      O68659   2.884   5.666   8.740
22806WAT     H168660   2.907   5.580   8.695
22806WAT     H268661   2.789   5.663   8.770
22807WAT      O68662   1.628   7.550   3.687
22807WAT     H168663   1.660   7.609   3.763
22807WAT     H268664   1.571   7.477   3.724
22808WAT      O68665   2.170   0.736   3.828
22808WAT     H168666   2.084   0.703   3.868
22808WAT     H268667   2.224   0.783   3.898
22809WAT      O68668   4.053   0.798   5.131
22809WAT     H168669   4.021   0.767   5.221
22809WAT     H268670   4.138   0.751   5.108
22810WAT      O68671   0.871   7.963   5.198
22810WAT     H168672   0.787   7.918   5.226
22810WAT     H268673   0.922   7.903   5.136
22811WAT      O68674   9.455   0.457   6.678
22811WAT     H168675   9.502   0.521   6.617
22811WAT     H268676   9.512   0.377   6.693
22812WAT      O68677   1.543   0.617   6.639
22812WAT     H168678   1.559   0.579   6.547
22812WAT     H268679   1.631   0.631   6.684
22813WAT      O68680   8.265   9.618   3.410
22813WAT     H168681   8.286   9.709   3.372
22813WAT     H268682   8.198   9.572   3.350
22814WAT      O68683   8.283   2.457   3.849
22814WAT     H168684   8.277   2.358   3.834
22814WAT     H268685   8.256   2.505   3.765
22815WAT      O68686   5.324   2.638   8.135
22815WAT     H168687   5.236   2.601   8.104
22815WAT     H268688   5.372   2.679   8.057
22816WAT      O68689   7.950   0.366   5.009
22816WAT     H168690   7.895   0.285   5.029
22816WAT     H268691   7.903   0.422   4.941
22817WAT      O68692   6.505   9.818   8.065
22817WAT     H168693   6.493   9.917   8.066
22817WAT     H268694   6.464   9.779   8.148
22818WAT      O68695   3.988   5.246   9.162
22818WAT     H168696   3.926   5.169   9.175
22818WAT     H268697   4.077   5.213   9.131
22819WAT      O68698   9.851   1.286   5.725
22819WAT     H168699   9.871   1.324   5.635
22819WAT     H268700   9.788   1.209   5.715
22820WAT      O68701   0.678   4.908   3.268
22820WAT     H168702   0.660   4.836   3.201
22820WAT     H268703   0.763   4.888   3.316
22821WAT      O68704   7.381   2.990   1.206
22821WAT     H168705   7.426   3.064   1.257
22821WAT     H268706   7.303   3.028   1.155
22822WAT      O68707   5.510   4.637   1.055
22822WAT     H168708   5.452   4.647   0.974
22822WAT     H268709   5.454   4.607   1.133
22823WAT      O68710   4.318   1.310   9.028
22823WAT     H168711   4.317   1.364   8.945
22823WAT     H268712   4.364   1.223   9.011
22824WAT      O68713   6.241   2.338   7.336
22824WAT     H168714   6.326   2.288   7.320
22824WAT     H268715   6.258   2.437   7.331
22825WAT      O68716   6.189   9.761   3.948
22825WAT     H168717   6.206   9.664   3.928
22825WAT     H268718   6.099   9.771   3.991
22826WAT      O68719   7.793   1.187   8.234
22826WAT     H168720   7.771   1.223   8.325
22826WAT     H268721   7.804   1.088   8.239
22827WAT      O68722   7.228   5.795   7.218
22827WAT     H168723   7.164   5.788   7.141
22827WAT     H268724   7.239   5.705   7.260
22828WAT      O68725   6.448   8.108   5.281
22828WAT     H168726   6.350   8.087   5.275
22828WAT     H268727   6.500   8.023   5.282
22829WAT      O68728   0.198   4.784   7.195
22829WAT     H168729   0.218   4.763   7.291
22829WAT     H268730   0.100   4.770   7.178
22830WAT      O68731   8.814   9.153   3.051
22830WAT     H168732   8.759   9.111   2.979
22830WAT     H268733   8.854   9.238   3.017
22831WAT      O68734   5.709   9.307   1.229
22831WAT     H168735   5.615   9.329   1.256
22831WAT     H268736   5.710   9.275   1.134
22832WAT      O68737   4.559   3.194   5.633
22832WAT     H168738   4.654   3.173   5.614
22832WAT     H268739   4.526   3.138   5.709
22833WAT      O68740   4.323   3.674   8.351
22833WAT     H168741   4.228   3.650   8.330
22833WAT     H268742   4.338   3.669   8.450
22834WAT      O68743   5.308   4.879   3.024
22834WAT     H168744   5.249   4.870   3.104
22834WAT     H268745   5.262   4.933   2.954
22835WAT      O68746   7.523   1.451   6.821
22835WAT     H168747   7.555   1.508   6.897
22835WAT     H268748   7.503   1.359   6.855
22836WAT      O68749   1.293   3.199   8.760
22836WAT     H168750   1.288   3.099   8.762
22836WAT     H268751   1.379   3.230   8.801
22837WAT      O68752   8.159   9.318   9.865
22837WAT     H168753   8.165   9.403   9.812
22837WAT     H268754   8.214   9.247   9.821
22838WAT      O68755   8.878   3.134   7.842
22838WAT     H168756   8.841   3.057   7.895
22838WAT     H268757   8.940   3.099   7.772
22839WAT      O68758   5.174   9.824   9.704
22839WAT     H168759   5.163   9.923   9.700
22839WAT     H268760   5.123   9.788   9.782
22840WAT      O68761   6.492   2.602   4.345
22840WAT     H168762   6.527   2.509   4.348
22840WAT     H268763   6.434   2.614   4.264
22841WAT      O68764   3.137   3.137   9.482
22841WAT     H168765   3.225   3.181   9.467
22841WAT     H268766   3.111   3.087   9.399
22842WAT      O68767   4.911   4.445   2.733
22842WAT     H168768   4.900   4.350   2.703
22842WAT     H268769   4.857   4.460   2.817
22843WAT      O68770   0.618   3.870   2.612
22843WAT     H168771   0.594   3.822   2.696
22843WAT     H268772   0.690   3.820   2.564
22844WAT      O68773   7.277   2.828   2.452
22844WAT     H168774   7.270   2.860   2.547
22844WAT     H268775   7.296   2.906   2.393
22845WAT      O68776   3.099   9.108   2.962
22845WAT     H168777   3.011   9.147   2.988
22845WAT     H268778   3.139   9.059   3.039
22846WAT      O68779   0.092   6.352   4.922
22846WAT     H168780   0.036   6.429   4.894
22846WAT     H268781   0.034   6.271   4.934
22847WAT      O68782   4.547   8.619   0.129
22847WAT     H168783   4.529   8.575   0.216
22847WAT     H268784   4.609   8.697   0.142
22848WAT      O68785   0.847   0.964   9.366
22848WAT     H168786   0.943   0.988   9.383
22848WAT     H268787   0.817   0.896   9.433
22849WAT      O68788   6.138   0.147   0.989
22849WAT     H168789   6.216   0.207   1.005
22849WAT     H268790   6.059   0.202   0.961
22850WAT      O68791   1.450   5.956   4.988
22850WAT     H168792   1.412   5.900   4.913
22850WAT     H268793   1.379   6.018   5.022
22851WAT      O68794   5.684   5.630   9.409
22851WAT     H168795   5.642   5.635   9.318
22851WAT     H268796   5.645   5.553   9.459
22852WAT      O68797   7.562   7.586   3.704
22852WAT     H168798   7.610   7.591   3.617
22852WAT     H268799   7.500   7.508   3.705
22853WAT      O68800   7.893   3.631   6.182
22853WAT     H168801   7.834   3.615   6.103
22853WAT     H268802   7.987   3.644   6.151
22854WAT      O68803   6.452   6.015   7.804
22854WAT     H168804   6.525   6.045   7.865
22854WAT     H268805   6.409   5.933   7.842
22855WAT      O68806   8.196   1.836   3.772
22855WAT     H168807   8.186   1.895   3.692
22855WAT     H268808   8.168   1.743   3.749
22856WAT      O68809   8.586   8.617   7.767
22856WAT     H168810   8.685   8.626   7.783
22856WAT     H268811   8.559   8.522   7.779
22857WAT      O68812   1.574   8.238   0.364
22857WAT     H168813   1.511   8.311   0.389
22857WAT     H268814   1.524   8.152   0.353
22858WAT      O68815   5.154   0.332   5.211
22858WAT     H168816   5.175   0.301   5.304
22858WAT     H268817   5.212   0.284   5.146
22859WAT      O68818   5.604   6.218   0.586
22859WAT     H168819   5.666   6.185   0.515
22859WAT     H268820   5.551   6.142   0.622
22860WAT      O68821   2.522   3.052   4.814
22860WAT     H168822   2.614   3.038   4.779
22860WAT     H268823   2.457   3.052   4.737
22861WAT      O68824   5.896   6.910   3.488
22861WAT     H168825   5.799   6.892   3.475
22861WAT     H268826   5.943   6.907   3.399
22862WAT      O68827   0.821   7.519   6.183
22862WAT     H168828   0.870   7.433   6.172
22862WAT     H268829   0.878   7.595   6.151
22863WAT      O68830   0.297   2.497   8.353
22863WAT     H168831   0.263   2.411   8.390
22863WAT     H268832   0.326   2.483   8.258
22864WAT      O68833   7.585   1.841   8.824
22864WAT     H168834   7.584   1.743   8.804
22864WAT     H268835   7.497   1.880   8.798
22865WAT      O68836   5.156   7.902   8.565
22865WAT     H168837   5.156   7.901   8.665
22865WAT     H268838   5.237   7.853   8.532
22866WAT      O68839   7.114   3.808   8.824
22866WAT     H168840   7.171   3.792   8.743
22866WAT     H268841   7.101   3.906   8.837
22867WAT      O68842   5.722   8.475   5.874
22867WAT     H168843   5.785   8.525   5.934
22867WAT     H268844   5.740   8.377   5.881
22868WAT      O68845   7.788   0.457   7.699
22868WAT     H168846   7.791   0.549   7.739
22868WAT     H268847   7.829   0.460   7.607
22869WAT      O68848   1.365   3.964   9.207
22869WAT     H168849   1.447   3.944   9.260
22869WAT     H268850   1.327   3.879   9.172
22870WAT      O68851   3.708   4.524   6.831
22870WAT     H168852   3.636   4.538   6.762
22870WAT     H268853   3.794   4.502   6.786
22871WAT      O68854   0.866   4.675   7.923
22871WAT     H168855   0.834   4.701   7.832
22871WAT     H268856   0.859   4.753   7.985
22872WAT      O68857   0.557   1.880   6.326
22872WAT     H168858   0.614   1.818   6.379
22872WAT     H268859   0.512   1.829   6.253
22873WAT      O68860   3.014   4.827   4.889
22873WAT     H168861   3.046   4.802   4.797
22873WAT     H268862   3.086   4.808   4.955
22874WAT      O68863   0.851   5.955   9.212
22874WAT     H168864   0.844   5.860   9.244
22874WAT     H268865   0.904   6.009   9.277
22875WAT      O68866   1.593   4.318   2.078
22875WAT     H168867   1.686   4.292   2.103
22875WAT     H268868   1.563   4.263   2.000
22876WAT      O68869   5.234   4.096   1.223
22876WAT     H168870   5.334   4.101   1.222
22876WAT     H268871   5.204   4.019   1.167
22877WAT      O68872   7.242   2.692   4.717
22877WAT     H168873   7.245   2.790   4.696
22877WAT     H268874   7.148   2.660   4.714
22878WAT      O68875   7.030   2.948   4.498
22878WAT     H168876   7.111   2.952   4.556
22878WAT     H268877   7.053   2.984   4.407
22879WAT      O68878   7.981   5.136   7.936
22879WAT     H168879   7.943   5.214   7.886
22879WAT     H268880   8.003   5.164   8.030
22880WAT      O68881   8.527   9.228   5.735
22880WAT     H168882   8.529   9.206   5.832
22880WAT     H268883   8.448   9.184   5.692
22881WAT      O68884   7.331   7.130   0.703
22881WAT     H168885   7.274   7.203   0.666
22881WAT     H268886   7.427   7.154   0.692
22882WAT      O68887   2.890   6.675   8.365
22882WAT     H168888   2.905   6.746   8.297
22882WAT     H268889   2.914   6.710   8.456
22883WAT      O68890   3.604   4.929   5.621
22883WAT     H168891   3.557   4.873   5.689
22883WAT     H268892   3.690   4.962   5.658
22884WAT      O68893   4.781   5.757   1.140
22884WAT     H168894   4.809   5.661   1.141
22884WAT     H268895   4.846   5.811   1.193
22885WAT      O68896   8.771   5.173   3.897
22885WAT     H168897   8.689   5.205   3.850
22885WAT     H268898   8.778   5.217   3.987
22886WAT      O68899   4.663   0.416   3.611
22886WAT     H168900   4.567   0.431   3.634
22886WAT     H268901   4.697   0.492   3.556
22887WAT      O68902   1.692   3.329   6.963
22887WAT     H168903   1.779   3.283   6.978
22887WAT     H268904   1.677   3.341   6.864
22888WAT      O68905   6.128   1.655   3.526
22888WAT     H168906   6.072   1.711   3.465
22888WAT     H268907   6.220   1.693   3.531
22889WAT      O68908   5.886   6.942   9.119
22889WAT     H168909   5.842   7.031   9.127
22889WAT     H268910   5.984   6.952   9.138
22890WAT      O68911   2.027   4.766   7.714
22890WAT     H168912   2.018   4.673   7.749
22890WAT     H268913   2.102   4.770   7.647
22891WAT      O68914   6.939   8.949   9.111
22891WAT     H168915   7.027   8.990   9.085
22891WAT     H268916   6.872   9.021   9.129
22892WAT      O68917   6.834   7.800   3.638
22892WAT     H168918   6.859   7.868   3.569
22892WAT     H268919   6.807   7.847   3.722
22893WAT      O68920   3.174   9.374   2.349
22893WAT     H168921   3.105   9.327   2.405
22893WAT     H268922   3.265   9.346   2.378
22894WAT      O68923   5.031   7.175   6.688
22894WAT     H168924   5.051   7.111   6.762
22894WAT     H268925   4.942   7.217   6.704
22895WAT      O68926   6.156   8.366   3.294
22895WAT     H168927   6.237   8.413   3.329
22895WAT     H268928   6.142   8.281   3.344
22896WAT      O68929   2.400   1.079   6.986
22896WAT     H168930   2.316   1.078   7.040
22896WAT     H268931   2.478   1.062   7.046
22897WAT      O68932   6.185   5.139   5.817
22897WAT     H168933   6.146   5.182   5.898
22897WAT     H268934   6.206   5.043   5.836
22898WAT      O68935   2.157   8.886   4.951
22898WAT     H168936   2.155   8.829   4.870
22898WAT     H268937   2.218   8.964   4.936
22899WAT      O68938   6.243   2.986   4.452
22899WAT     H168939   6.238   3.079   4.489
22899WAT     H268940   6.289   2.926   4.518
22900WAT      O68941   4.242   9.353   5.220
22900WAT     H168942   4.244   9.263   5.176
22900WAT     H268943   4.260   9.424   5.151
22901WAT      O68944   7.684   8.432   2.724
22901WAT     H168945   7.631   8.513   2.749
22901WAT     H268946   7.652   8.354   2.777
22902WAT      O68947   1.101   1.054   3.556
22902WAT     H168948   1.192   1.094   3.552
22902WAT     H268949   1.071   1.048   3.652
22903WAT      O68950   0.465   8.065   9.241
22903WAT     H168951   0.467   8.017   9.154
22903WAT     H268952   0.558   8.093   9.265
22904WAT      O68953   5.401   6.163   8.309
22904WAT     H168954   5.425   6.127   8.399
22904WAT     H268955   5.480   6.157   8.248
22905WAT      O68956   0.781   5.062   8.758
22905WAT     H168957   0.709   5.115   8.713
22905WAT     H268958   0.855   5.124   8.784
22906WAT      O68959   4.945   6.441   1.921
22906WAT     H168960   4.968   6.539   1.925
22906WAT     H268961   5.027   6.389   1.897
22907WAT      O68962   9.326   1.775   4.540
22907WAT     H168963   9.274   1.860   4.537
22907WAT     H268964   9.389   1.772   4.461
22908WAT      O68965   3.906   7.119   4.723
22908WAT     H168966   3.823   7.158   4.682
22908WAT     H268967   3.953   7.188   4.777
22909WAT      O68968   4.609   9.100   7.943
22909WAT     H168969   4.689   9.144   7.901
22909WAT     H268970   4.606   9.122   8.040
22910WAT      O68971   7.948   9.550   3.500
22910WAT     H168972   8.021   9.531   3.435
22910WAT     H268973   7.986   9.589   3.583
22911WAT      O68974   4.345   7.624   4.029
22911WAT     H168975   4.390   7.672   4.105
22911WAT     H268976   4.402   7.630   3.948
22912WAT      O68977   8.487   4.873   5.448
22912WAT     H168978   8.468   4.814   5.370
22912WAT     H268979   8.502   4.818   5.530
22913WAT      O68980   6.814   0.259   9.871
22913WAT     H168981   6.839   0.199   9.947
22913WAT     H268982   6.787   0.204   9.792
22914WAT      O68983   6.081   7.947   4.173
22914WAT     H168984   6.022   7.879   4.129
22914WAT     H268985   6.050   7.960   4.268
22915WAT      O68986   3.916   3.736   1.580
22915WAT     H168987   3.831   3.759   1.533
22915WAT     H268988   3.898   3.665   1.648
22916WAT      O68989   1.069   3.915   6.840
22916WAT     H168990   1.117   3.926   6.753
22916WAT     H268991   1.104   3.834   6.888
22917WAT      O68992   3.090   5.819   0.074
22917WAT     H168993   3.173   5.806   0.128
22917WAT     H268994   3.093   5.761  -0.007
22918WAT      O68995   8.935   8.842   3.846
22918WAT     H168996   9.021   8.821   3.799
22918WAT     H268997   8.903   8.932   3.818
22919WAT      O68998   3.102   2.277   6.460
22919WAT     H168999   3.100   2.181   6.432
22919WAT     H269000   3.056   2.287   6.548
22920WAT      O69001   5.635   8.829   8.405
22920WAT     H169002   5.715   8.890   8.410
22920WAT     H269003   5.601   8.812   8.497
22921WAT      O69004   1.142   7.196   0.026
22921WAT     H169005   1.213   7.141   0.068
22921WAT     H269006   1.179   7.243  -0.055
22922WAT      O69007   0.351   7.153   7.310
22922WAT     H169008   0.319   7.061   7.287
22922WAT     H269009   0.417   7.147   7.386
22923WAT      O69010   2.755   4.704   6.713
22923WAT     H169011   2.804   4.773   6.659
22923WAT     H269012   2.819   4.656   6.772
22924WAT      O69013   6.617   0.461   0.060
22924WAT     H169014   6.548   0.497  -0.002
22924WAT     H269015   6.673   0.393   0.013
22925WAT      O69016   4.965   8.405   6.228
22925WAT     H169017   4.964   8.385   6.130
22925WAT     H269018   4.921   8.329   6.277
22926WAT      O69019   6.994   5.719   0.614
22926WAT     H169020   7.048   5.779   0.555
22926WAT     H269021   6.995   5.754   0.708
22927WAT      O69022   3.174   2.329   6.003
22927WAT     H169023   3.235   2.339   6.082
22927WAT     H269024   3.098   2.268   6.028
22928WAT      O69025   0.497   8.676   4.857
22928WAT     H169026   0.420   8.739   4.860
22928WAT     H269027   0.477   8.595   4.912
22929WAT      O69028   6.842   1.513   4.075
22929WAT     H169029   6.907   1.550   4.141
22929WAT     H269030   6.879   1.523   3.983
22930WAT      O69031   0.913   9.792   4.458
22930WAT     H169032   0.892   9.873   4.514
22930WAT     H269033   0.957   9.723   4.516
22931WAT      O69034   3.187   9.202   9.327
22931WAT     H169035   3.087   9.213   9.322
22931WAT     H269036   3.232   9.287   9.300
22932WAT      O69037   5.053   4.831   2.515
22932WAT     H169038   5.023   4.924   2.534
22932WAT     H269039   5.106   4.796   2.592
22933WAT      O69040   1.287   7.038   0.457
22933WAT     H169041   1.190   7.043   0.434
22933WAT     H269042   1.314   7.121   0.506
22934WAT      O69043   0.742   1.290   8.439
22934WAT     H169044   0.811   1.362   8.452
22934WAT     H269045   0.738   1.264   8.343
22935WAT      O69046   2.962   2.389   1.781
22935WAT     H169047   2.911   2.466   1.743
22935WAT     H269048   2.984   2.325   1.707
22936WAT      O69049   8.025   7.384   0.415
22936WAT     H169050   8.100   7.450   0.407
22936WAT     H269051   7.973   7.381   0.330
22937WAT      O69052   3.426   1.504   0.603
22937WAT     H169053   3.471   1.415   0.599
22937WAT     H269054   3.355   1.509   0.533
22938WAT      O69055   7.687   7.557   8.705
22938WAT     H169056   7.722   7.463   8.698
22938WAT     H269057   7.595   7.556   8.742
22939WAT      O69058   1.784   9.760   2.952
22939WAT     H169059   1.821   9.830   2.891
22939WAT     H269060   1.760   9.678   2.899
22940WAT      O69061   9.137   3.655   0.884
22940WAT     H169062   9.128   3.753   0.900
22940WAT     H269063   9.187   3.640   0.798
22941WAT      O69064   4.088   3.841   5.091
22941WAT     H169065   4.101   3.815   4.995
22941WAT     H269066   4.107   3.762   5.149
22942WAT      O69067   3.042   6.437   1.714
22942WAT     H169068   3.114   6.402   1.653
22942WAT     H269069   3.066   6.416   1.809
22943WAT      O69070   3.101   0.585   0.408
22943WAT     H169071   3.174   0.519   0.389
22943WAT     H269072   3.134   0.651   0.475
22944WAT      O69073   2.943   3.623   1.513
22944WAT     H169074   2.927   3.707   1.460
22944WAT     H269075   2.924   3.640   1.609
22945WAT      O69076   2.135   5.127   8.536
22945WAT     H169077   2.067   5.062   8.570
22945WAT     H269078   2.124   5.139   8.437
22946WAT      O69079   3.732   8.058   8.429
22946WAT     H169080   3.671   8.092   8.358
22946WAT     H269081   3.804   8.124   8.445
22947WAT      O69082   4.053   6.452   8.411
22947WAT     H169083   4.144   6.491   8.399
22947WAT     H269084   3.985   6.525   8.413
22948WAT      O69085   1.429   5.691   6.209
22948WAT     H169086   1.394   5.665   6.119
22948WAT     H269087   1.361   5.746   6.257
22949WAT      O69088   8.901   9.363   0.227
22949WAT     H169089   8.915   9.388   0.323
22949WAT     H269090   8.943   9.432   0.168
22950WAT      O69091   8.411   7.469   8.252
22950WAT     H169092   8.435   7.524   8.332
22950WAT     H269093   8.360   7.388   8.281
22951WAT      O69094   4.625   8.953   0.429
22951WAT     H169095   4.566   8.995   0.499
22951WAT     H269096   4.662   8.867   0.464
22952WAT      O69097   2.932   4.988   2.309
22952WAT     H169098   2.964   4.950   2.395
22952WAT     H269099   2.984   5.071   2.288
22953WAT      O69100   4.372   1.073   8.105
22953WAT     H169101   4.331   0.989   8.067
22953WAT     H269102   4.461   1.088   8.060
22954WAT      O69103   2.736   0.834   2.057
22954WAT     H169104   2.813   0.805   2.113
22954WAT     H269105   2.763   0.911   2.000
22955WAT      O69106   3.152   8.632   5.705
22955WAT     H169107   3.116   8.626   5.798
22955WAT     H269108   3.129   8.549   5.654
22956WAT      O69109   8.725   7.629   1.318
22956WAT     H169110   8.811   7.596   1.280
22956WAT     H269111   8.743   7.701   1.384
22957WAT      O69112   4.170   1.375   7.496
22957WAT     H169113   4.262   1.404   7.470
22957WAT     H269114   4.102   1.429   7.447
22958WAT      O69115   8.832   1.646   2.780
22958WAT     H169116   8.764   1.664   2.852
22958WAT     H269117   8.857   1.732   2.736
22959WAT      O69118   3.263   5.864   8.591
22959WAT     H169119   3.252   5.881   8.689
22959WAT     H269120   3.336   5.923   8.556
22960WAT      O69121   1.395   2.817   2.667
22960WAT     H169122   1.467   2.819   2.598
22960WAT     H269123   1.409   2.739   2.727
22961WAT      O69124   5.188   4.817   8.993
22961WAT     H169125   5.186   4.877   9.073
22961WAT     H269126   5.263   4.752   9.002
22962WAT      O69127   0.033   8.883   4.905
22962WAT     H169128   0.127   8.872   4.874
22962WAT     H269129   0.016   8.978   4.930
22963WAT      O69130   8.291   8.682   8.137
22963WAT     H169131   8.359   8.646   8.201
22963WAT     H269132   8.334   8.752   8.079
22964WAT      O69133   4.630   2.489   9.867
22964WAT     H169134   4.601   2.565   9.810
22964WAT     H269135   4.710   2.445   9.826
22965WAT      O69136   3.362   4.589   8.401
22965WAT     H169137   3.397   4.503   8.365
22965WAT     H269138   3.291   4.569   8.469
22966WAT      O69139   4.755   8.724   4.631
22966WAT     H169140   4.667   8.743   4.675
22966WAT     H269141   4.807   8.810   4.623
22967WAT      O69142   7.333   7.495   6.827
22967WAT     H169143   7.422   7.537   6.809
22967WAT     H269144   7.261   7.562   6.810
22968WAT      O69145   2.418   2.653   2.305
22968WAT     H169146   2.394   2.556   2.305
22968WAT     H269147   2.449   2.680   2.396
22969WAT      O69148   1.565   3.281   5.115
22969WAT     H169149   1.543   3.341   5.192
22969WAT     H269150   1.483   3.267   5.059
22970WAT      O69151   2.110   2.208   4.421
22970WAT     H169152   2.086   2.161   4.506
22970WAT     H269153   2.156   2.144   4.359
22971WAT      O69154   5.422   2.815   0.274
22971WAT     H169155   5.411   2.744   0.343
22971WAT     H269156   5.332   2.843   0.240
22972WAT      O69157   0.719   7.013   2.794
22972WAT     H169158   0.673   7.024   2.706
22972WAT     H269159   0.732   6.916   2.813
22973WAT      O69160   4.498   2.972   9.161
22973WAT     H169161   4.561   3.015   9.097
22973WAT     H269162   4.413   3.024   9.165
22974WAT      O69163   8.769   8.305   9.441
22974WAT     H169164   8.715   8.258   9.511
22974WAT     H269165   8.711   8.322   9.361
22975WAT      O69166   9.644   1.596   1.990
22975WAT     H169167   9.725   1.649   1.966
22975WAT     H269168   9.604   1.631   2.075
22976WAT      O69169   3.942   6.681   9.089
22976WAT     H169170   3.861   6.627   9.068
22976WAT     H269171   3.970   6.733   9.008
22977WAT      O69172   8.349   1.077   7.960
22977WAT     H169173   8.270   1.034   8.003
22977WAT     H269174   8.396   1.135   8.026
22978WAT      O69175   8.877   3.005   2.431
22978WAT     H169176   8.816   2.983   2.355
22978WAT     H269177   8.916   3.096   2.418
22979WAT      O69178   3.485   0.314   4.981
22979WAT     H169179   3.487   0.260   4.897
22979WAT     H269180   3.554   0.279   5.045
22980WAT      O69181   2.887   0.221   7.128
22980WAT     H169182   2.976   0.235   7.086
22980WAT     H269183   2.864   0.123   7.125
22981WAT      O69184   5.223   3.789   6.269
22981WAT     H169185   5.242   3.704   6.219
22981WAT     H269186   5.256   3.780   6.363
22982WAT      O69187   6.307   2.228   8.415
22982WAT     H169188   6.275   2.143   8.374
22982WAT     H269189   6.250   2.250   8.494
22983WAT      O69190   9.868   4.023   8.031
22983WAT     H169191   9.962   4.009   8.000
22983WAT     H269192   9.817   4.074   7.962
22984WAT      O69193   7.267   7.405   8.474
22984WAT     H169194   7.309   7.486   8.433
22984WAT     H269195   7.194   7.433   8.537
22985WAT      O69196   6.050   9.529   7.155
22985WAT     H169197   6.018   9.621   7.180
22985WAT     H269198   6.074   9.478   7.238
22986WAT      O69199   5.030   3.540   5.153
22986WAT     H169200   5.126   3.511   5.163
22986WAT     H269201   4.984   3.530   5.241
22987WAT      O69202   2.369   0.646   6.871
22987WAT     H169203   2.444   0.711   6.858
22987WAT     H269204   2.392   0.559   6.829
22988WAT      O69205   6.190   4.337   5.340
22988WAT     H169206   6.282   4.328   5.378
22988WAT     H269207   6.125   4.358   5.413
22989WAT      O69208   6.221   6.992   8.845
22989WAT     H169209   6.195   6.946   8.760
22989WAT     H269210   6.185   7.086   8.844
22990WAT      O69211   6.627   8.285   1.297
22990WAT     H169212   6.637   8.264   1.394
22990WAT     H269213   6.535   8.320   1.280
22991WAT      O69214   5.632   3.913   5.179
22991WAT     H169215   5.648   3.893   5.082
22991WAT     H269216   5.542   3.954   5.190
22992WAT      O69217   1.244   6.324   3.987
22992WAT     H169218   1.328   6.376   3.998
22992WAT     H269219   1.170   6.386   3.960
22993WAT      O69220   6.895   8.198   8.318
22993WAT     H169221   6.939   8.279   8.280
22993WAT     H269222   6.867   8.217   8.412
22994WAT      O69223   1.978   0.771   0.755
22994WAT     H169224   1.926   0.853   0.732
22994WAT     H269225   1.974   0.756   0.854
22995WAT      O69226   4.440   2.714   8.160
22995WAT     H169227   4.494   2.764   8.227
22995WAT     H269228   4.414   2.776   8.085
22996WAT      O69229   7.049   4.760   1.679
22996WAT     H169230   6.968   4.818   1.672
22996WAT     H269231   7.024   4.671   1.717
22997WAT      O69232   6.898   5.036   7.309
22997WAT     H169233   6.840   5.112   7.279
22997WAT     H269234   6.844   4.953   7.315
22998WAT      O69235   2.253   7.257   8.438
22998WAT     H169236   2.160   7.288   8.423
22998WAT     H269237   2.317   7.321   8.397
22999WAT      O69238   9.534   1.096   1.213
22999WAT     H169239   9.499   1.110   1.306
22999WAT     H269240   9.569   1.183   1.178
23000WAT      O69241   9.751   1.449   0.719
23000WAT     H169242   9.740   1.352   0.694
23000WAT     H269243   9.806   1.455   0.802
23001WAT      O69244   7.598   5.649   6.870
23001WAT     H169245   7.652   5.565   6.864
23001WAT     H269246   7.621   5.697   6.954
23002WAT      O69247   4.883   2.293   0.000
23002WAT     H169248   4.902   2.203   0.040
23002WAT     H269249   4.892   2.363   0.071
23003WAT      O69250   8.664   7.829   4.692
23003WAT     H169251   8.681   7.733   4.712
23003WAT     H269252   8.613   7.871   4.767
23004WAT      O69253   5.723   6.840   5.954
23004WAT     H169254   5.761   6.913   6.011
23004WAT     H269255   5.743   6.858   5.858
23005WAT      O69256   5.086   2.780   9.583
23005WAT     H169257   5.039   2.823   9.506
23005WAT     H269258   5.018   2.744   9.648
23006WAT      O69259   7.448   5.458   1.479
23006WAT     H169260   7.506   5.452   1.397
23006WAT     H269261   7.501   5.497   1.554
23007WAT      O69262   1.127   1.931   0.037
23007WAT     H169263   1.081   2.007   0.082
23007WAT     H269264   1.061   1.859   0.017
23008WAT      O69265   0.148   1.393   3.002
23008WAT     H169266   0.164   1.426   2.909
23008WAT     H269267   0.144   1.293   3.002
23009WAT      O69268   3.442   4.999   8.124
23009WAT     H169269   3.410   5.087   8.086
23009WAT     H269270   3.414   4.992   8.219
23010WAT      O69271   3.952   0.588   9.180
23010WAT     H169272   3.859   0.552   9.179
23010WAT     H269273   4.000   0.559   9.097
23011WAT      O69274   7.567   3.455   0.001
23011WAT     H169275   7.641   3.439  -0.064
23011WAT     H269276   7.598   3.521   0.070
23012WAT      O69277   4.501   8.473   7.787
23012WAT     H169278   4.523   8.441   7.879
23012WAT     H269279   4.402   8.483   7.778
23013WAT      O69280   6.189   5.903   6.625
23013WAT     H169281   6.195   5.807   6.655
23013WAT     H269282   6.194   5.963   6.704
23014WAT      O69283   2.415   7.221   4.921
23014WAT     H169284   2.442   7.305   4.967
23014WAT     H269285   2.410   7.147   4.987
23015WAT      O69286   6.901   4.127   5.510
23015WAT     H169287   6.933   4.180   5.431
23015WAT     H269288   6.969   4.056   5.532
23016WAT      O69289   0.775   6.956   5.809
23016WAT     H169290   0.838   6.912   5.872
23016WAT     H269291   0.747   6.892   5.738
23017WAT      O69292   3.472   1.043   7.632
23017WAT     H169293   3.425   1.103   7.697
23017WAT     H269294   3.538   1.097   7.579
23018WAT      O69295   8.765   6.765   1.724
23018WAT     H169296   8.753   6.728   1.632
23018WAT     H269297   8.861   6.753   1.752
23019WAT      O69298   4.262   7.991   0.043
23019WAT     H169299   4.245   7.934  -0.038
23019WAT     H269300   4.330   7.947   0.101
23020WAT      O69301   5.956   9.345   8.257
23020WAT     H169302   5.923   9.345   8.162
23020WAT     H269303   6.046   9.302   8.261
23021WAT      O69304   6.415   7.323   2.367
23021WAT     H169305   6.441   7.255   2.299
23021WAT     H269306   6.477   7.318   2.445
23022WAT      O69307   2.295   1.492   7.313
23022WAT     H169308   2.388   1.510   7.346
23022WAT     H269309   2.249   1.430   7.376
23023WAT      O69310   4.205   7.221   3.083
23023WAT     H169311   4.263   7.272   3.020
23023WAT     H269312   4.115   7.206   3.041
23024WAT      O69313   5.525   5.747   8.867
23024WAT     H169314   5.479   5.658   8.866
23024WAT     H269315   5.475   5.809   8.927
23025WAT      O69316   1.231   2.670   9.151
23025WAT     H169317   1.228   2.591   9.090
23025WAT     H269318   1.139   2.705   9.166
23026WAT      O69319   3.561   3.692   3.087
23026WAT     H169320   3.630   3.621   3.076
23026WAT     H269321   3.507   3.699   3.003
23027WAT      O69322   1.229   3.539   5.330
23027WAT     H169323   1.228   3.581   5.239
23027WAT     H269324   1.323   3.519   5.357
23028WAT      O69325   7.736   2.066   8.764
23028WAT     H169326   7.829   2.038   8.787
23028WAT     H269327   7.677   1.986   8.760
23029WAT      O69328   1.439   2.480   1.653
23029WAT     H169329   1.487   2.501   1.568
23029WAT     H269330   1.462   2.548   1.722
23030WAT      O69331   4.468   1.888   1.308
23030WAT     H169332   4.377   1.870   1.344
23030WAT     H269333   4.462   1.901   1.209
23031WAT      O69334   4.934   6.008   0.943
23031WAT     H169335   5.028   6.041   0.927
23031WAT     H269336   4.936   5.911   0.966
23032WAT      O69337   7.272   6.212   5.547
23032WAT     H169338   7.299   6.164   5.463
23032WAT     H269339   7.198   6.276   5.525
23033WAT      O69340   9.835   5.777   2.576
23033WAT     H169341   9.761   5.793   2.510
23033WAT     H269342   9.800   5.723   2.653
23034WAT      O69343   2.064   3.018   5.291
23034WAT     H169344   2.093   3.095   5.235
23034WAT     H269345   2.002   3.050   5.362
23035WAT      O69346   3.003   7.700   9.706
23035WAT     H169347   3.062   7.646   9.645
23035WAT     H269348   2.927   7.738   9.654
23036WAT      O69349   7.608   5.545   1.674
23036WAT     H169350   7.690   5.497   1.644
23036WAT     H269351   7.633   5.634   1.712
23037WAT      O69352   1.372   4.604   9.278
23037WAT     H169353   1.456   4.556   9.254
23037WAT     H269354   1.336   4.651   9.198
23038WAT      O69355   8.317   4.342   2.187
23038WAT     H169356   8.223   4.348   2.223
23038WAT     H269357   8.376   4.299   2.255
23039WAT      O69358   1.467   4.405   4.328
23039WAT     H169359   1.423   4.459   4.257
23039WAT     H269360   1.409   4.403   4.410
23040WAT      O69361   0.825   6.618   2.277
23040WAT     H169362   0.844   6.699   2.333
23040WAT     H269363   0.783   6.548   2.334
23041WAT      O69364   9.289   3.693   3.015
23041WAT     H169365   9.352   3.652   3.082
23041WAT     H269366   9.301   3.792   3.014
23042WAT      O69367   3.478   8.607   7.368
23042WAT     H169368   3.533   8.551   7.430
23042WAT     H269369   3.517   8.602   7.276
23043WAT      O69370   2.417   6.010   7.647
23043WAT     H169371   2.462   6.049   7.727
23043WAT     H269372   2.448   5.916   7.634
23044WAT      O69373   9.502   2.397   8.758
23044WAT     H169374   9.590   2.435   8.785
23044WAT     H269375   9.431   2.467   8.767
23045WAT      O69376   1.053   1.401   2.752
23045WAT     H169377   0.998   1.459   2.691
23045WAT     H269378   1.125   1.456   2.794
23046WAT      O69379   4.573   0.276   5.352
23046WAT     H169380   4.502   0.346   5.351
23046WAT     H269381   4.555   0.210   5.425
23047WAT      O69382   5.088   3.039   0.009
23047WAT     H169383   5.032   3.116   0.042
23047WAT     H269384   5.183   3.069   0.001
23048WAT      O69385   5.665   6.795   0.096
23048WAT     H169386   5.707   6.779   0.185
23048WAT     H269387   5.592   6.728   0.081
23049WAT      O69388   1.061   7.138   5.663
23049WAT     H169389   0.996   7.175   5.730
23049WAT     H269390   1.031   7.163   5.571
23050WAT      O69391   5.380   6.434   8.274
23050WAT     H169392   5.306   6.462   8.336
23050WAT     H269393   5.390   6.335   8.277
23051WAT      O69394   7.806   3.059   7.891
23051WAT     H169395   7.782   3.069   7.987
23051WAT     H269396   7.733   3.097   7.834
23052WAT      O69397   0.690   9.241   4.916
23052WAT     H169398   0.702   9.150   4.875
23052WAT     H269399   0.776   9.269   4.959
23053WAT      O69400   3.669   4.737   2.269
23053WAT     H169401   3.724   4.814   2.237
23053WAT     H269402   3.609   4.768   2.344
23054WAT      O69403   2.852   6.299   3.408
23054WAT     H169404   2.882   6.213   3.448
23054WAT     H269405   2.760   6.289   3.372
23055WAT      O69406   0.904   2.277   1.165
23055WAT     H169407   0.971   2.348   1.187
23055WAT     H269408   0.941   2.188   1.190
23056WAT      O69409   1.886   7.227   3.148
23056WAT     H169410   1.978   7.188   3.149
23056WAT     H269411   1.858   7.250   3.240
23057WAT      O69412   0.255   4.458   5.791
23057WAT     H169413   0.341   4.482   5.745
23057WAT     H269414   0.186   4.528   5.771
23058WAT      O69415   2.455   8.300   1.105
23058WAT     H169416   2.535   8.352   1.134
23058WAT     H269417   2.382   8.364   1.080
23059WAT      O69418   8.011   8.093   5.617
23059WAT     H169419   7.960   8.066   5.700
23059WAT     H269420   8.068   8.172   5.638
23060WAT      O69421   1.729   3.551   6.597
23060WAT     H169422   1.779   3.554   6.511
23060WAT     H269423   1.786   3.587   6.671
23061WAT      O69424   6.127   8.533   4.894
23061WAT     H169425   6.161   8.456   4.948
23061WAT     H269426   6.205   8.584   4.857
23062WAT      O69427   1.477   5.998   0.461
23062WAT     H169428   1.496   5.947   0.545
23062WAT     H269429   1.382   6.029   0.461
23063WAT      O69430   7.014   2.931   1.307
23063WAT     H169431   7.043   2.968   1.218
23063WAT     H269432   6.923   2.890   1.298
23064WAT      O69433   7.654   2.317   5.868
23064WAT     H169434   7.670   2.413   5.844
23064WAT     H269435   7.705   2.295   5.951
23065WAT      O69436   1.203   0.401   5.769
23065WAT     H169437   1.137   0.398   5.845
23065WAT     H269438   1.296   0.397   5.806
23066WAT      O69439   1.773   0.498   4.484
23066WAT     H169440   1.728   0.587   4.475
23066WAT     H269441   1.828   0.497   4.567
23067WAT      O69442   6.822   9.250   6.547
23067WAT     H169443   6.898   9.284   6.492
23067WAT     H269444   6.855   9.180   6.611
23068WAT      O69445   6.345   9.151   3.858
23068WAT     H169446   6.414   9.140   3.930
23068WAT     H269447   6.321   9.061   3.822
23069WAT      O69448   7.137   2.990   5.034
23069WAT     H169449   7.105   3.047   4.958
23069WAT     H269450   7.187   3.047   5.100
23070WAT      O69451   6.415   2.529   4.747
23070WAT     H169452   6.324   2.527   4.706
23070WAT     H269453   6.480   2.568   4.681
23071WAT      O69454   7.895   0.175   6.531
23071WAT     H169455   7.927   0.186   6.625
23071WAT     H269456   7.966   0.127   6.478
23072WAT      O69457   6.263   7.672   9.586
23072WAT     H169458   6.213   7.676   9.500
23072WAT     H269459   6.200   7.684   9.662
23073WAT      O69460   3.397   2.559   2.177
23073WAT     H169461   3.466   2.567   2.249
23073WAT     H269462   3.322   2.501   2.208
23074WAT      O69463   6.477   5.718   1.510
23074WAT     H169464   6.540   5.662   1.455
23074WAT     H269465   6.529   5.773   1.575
23075WAT      O69466   8.233   9.809   8.902
23075WAT     H169467   8.302   9.777   8.837
23075WAT     H269468   8.162   9.860   8.853
23076WAT      O69469   7.690   4.926   4.439
23076WAT     H169470   7.652   4.916   4.347
23076WAT     H269471   7.717   4.836   4.474
23077WAT      O69472   7.475   1.692   9.182
23077WAT     H169473   7.394   1.640   9.210
23077WAT     H269474   7.556   1.634   9.191
23078WAT      O69475   0.965   4.429   4.306
23078WAT     H169476   0.979   4.527   4.292
23078WAT     H269477   1.029   4.378   4.248
23079WAT      O69478   8.809   8.116   2.867
23079WAT     H169479   8.721   8.161   2.883
23079WAT     H269480   8.826   8.050   2.940
23080WAT      O69481   8.837   6.751   3.285
23080WAT     H169482   8.850   6.652   3.287
23080WAT     H269483   8.891   6.791   3.210
23081WAT      O69484   9.787   6.242   8.384
23081WAT     H169485   9.743   6.299   8.453
23081WAT     H269486   9.745   6.151   8.384
23082WAT      O69487   9.524   0.376   9.125
23082WAT     H169488   9.605   0.366   9.183
23082WAT     H269489   9.547   0.349   9.031
23083WAT      O69490   7.587   6.433   8.032
23083WAT     H169491   7.570   6.531   8.024
23083WAT     H269492   7.504   6.387   8.063
23084WAT      O69493   4.568   3.672   7.714
23084WAT     H169494   4.573   3.772   7.708
23084WAT     H269495   4.508   3.646   7.789
23085WAT      O69496   1.502   8.834   2.288
23085WAT     H169497   1.526   8.886   2.370
23085WAT     H269498   1.408   8.801   2.296
23086WAT      O69499   7.763   7.098   6.540
23086WAT     H169500   7.837   7.118   6.477
23086WAT     H269501   7.799   7.049   6.620
23087WAT      O69502   4.955   3.272   1.620
23087WAT     H169503   4.962   3.335   1.543
23087WAT     H269504   4.862   3.235   1.624
23088WAT      O69505   5.281   4.006   7.340
23088WAT     H169506   5.245   4.083   7.287
23088WAT     H269507   5.370   4.031   7.379
23089WAT      O69508   7.285   6.557   3.667
23089WAT     H169509   7.255   6.521   3.755
23089WAT     H269510   7.369   6.611   3.680
23090WAT      O69511   9.860   7.592   3.450
23090WAT     H169512   9.876   7.651   3.529
23090WAT     H269513   9.868   7.647   3.366
23091WAT      O69514   0.381   5.624   7.508
23091WAT     H169515   0.395   5.717   7.474
23091WAT     H269516   0.333   5.570   7.439
23092WAT      O69517   3.145   1.199   1.657
23092WAT     H169518   3.167   1.106   1.686
23092WAT     H269519   3.127   1.256   1.737
23093WAT      O69520   5.946   0.694   4.591
23093WAT     H169521   6.025   0.721   4.535
23093WAT     H269522   5.863   0.737   4.555
23094WAT      O69523   2.377   1.558   8.751
23094WAT     H169524   2.370   1.511   8.839
23094WAT     H269525   2.467   1.541   8.710
23095WAT      O69526   7.392   6.629   3.288
23095WAT     H169527   7.349   6.717   3.312
23095WAT     H269528   7.466   6.609   3.353
23096WAT      O69529   2.136   1.518   3.421
23096WAT     H169530   2.043   1.503   3.454
23096WAT     H269531   2.201   1.468   3.478
23097WAT      O69532   6.834   5.984   3.472
23097WAT     H169533   6.819   5.915   3.543
23097WAT     H269534   6.861   6.071   3.514
23098WAT      O69535   5.396   6.091   7.861
23098WAT     H169536   5.369   6.156   7.932
23098WAT     H269537   5.421   6.004   7.903
23099WAT      O69538   8.436   6.670   6.506
23099WAT     H169539   8.443   6.737   6.579
23099WAT     H269540   8.491   6.589   6.529
23100WAT      O69541   5.290   4.042   5.451
23100WAT     H169542   5.363   4.014   5.515
23100WAT     H269543   5.320   4.026   5.357
23101WAT      O69544   5.375   7.834   5.381
23101WAT     H169545   5.316   7.788   5.315
23101WAT     H269546   5.458   7.866   5.334
23102WAT      O69547   8.274   7.393   2.559
23102WAT     H169548   8.330   7.410   2.477
23102WAT     H269549   8.226   7.477   2.584
23103WAT      O69550   4.977   1.286   8.820
23103WAT     H169551   5.051   1.338   8.777
23103WAT     H269552   4.982   1.191   8.789
23104WAT      O69553   6.603   0.417   4.844
23104WAT     H169554   6.536   0.462   4.903
23104WAT     H269555   6.682   0.390   4.900
23105WAT      O69556   9.808   6.810   7.007
23105WAT     H169557   9.833   6.883   6.945
23105WAT     H269558   9.768   6.849   7.090
23106WAT      O69559   7.849   5.309   6.548
23106WAT     H169560   7.828   5.251   6.627
23106WAT     H269561   7.838   5.405   6.573
23107WAT      O69562   2.726   4.317   6.843
23107WAT     H169563   2.727   4.391   6.911
23107WAT     H269564   2.815   4.312   6.798
23108WAT      O69565   4.673   4.648   0.910
23108WAT     H169566   4.706   4.559   0.877
23108WAT     H269567   4.660   4.709   0.832
23109WAT      O69568   5.101   8.926   9.688
23109WAT     H169569   5.096   9.007   9.630
23109WAT     H269570   5.166   8.861   9.649
23110WAT      O69571   2.693   4.300   4.763
23110WAT     H169572   2.701   4.260   4.672
23110WAT     H269573   2.622   4.252   4.814
23111WAT      O69574   3.564   6.758   4.664
23111WAT     H169575   3.574   6.659   4.676
23111WAT     H269576   3.538   6.800   4.751
23112WAT      O69577   7.362   2.481   7.189
23112WAT     H169578   7.329   2.406   7.131
23112WAT     H269579   7.303   2.561   7.178
23113WAT      O69580   1.369   1.364   9.159
23113WAT     H169581   1.466   1.380   9.138
23113WAT     H269582   1.332   1.294   9.097
23114WAT      O69583   5.315   1.067   0.074
23114WAT     H169584   5.371   1.141   0.109
23114WAT     H269585   5.225   1.070   0.116
23115WAT      O69586   6.386   1.417   0.499
23115WAT     H169587   6.366   1.336   0.443
23115WAT     H269588   6.304   1.475   0.504
23116WAT      O69589   2.691   5.205   9.142
23116WAT     H169590   2.674   5.252   9.228
23116WAT     H269591   2.611   5.213   9.083
23117WAT      O69592   2.596   1.520   2.993
23117WAT     H169593   2.532   1.558   2.926
23117WAT     H269594   2.549   1.506   3.080
23118WAT      O69595   2.988   8.903   6.792
23118WAT     H169596   2.939   8.940   6.870
23118WAT     H269597   3.061   8.843   6.824
23119WAT      O69598   4.652   3.055   0.857
23119WAT     H169599   4.626   3.064   0.953
23119WAT     H269600   4.725   3.120   0.836
23120WAT      O69601   8.154   1.520   0.263
23120WAT     H169602   8.191   1.542   0.172
23120WAT     H269603   8.090   1.444   0.255
23121WAT      O69604   8.218   7.012   3.225
23121WAT     H169605   8.118   7.008   3.237
23121WAT     H269606   8.262   7.012   3.315
23122WAT      O69607   4.458   0.190   0.523
23122WAT     H169608   4.453   0.216   0.620
23122WAT     H269609   4.553   0.197   0.492
23123WAT      O69610   4.712   1.422   6.425
23123WAT     H169611   4.650   1.372   6.365
23123WAT     H269612   4.805   1.416   6.388
23124WAT      O69613   5.430   7.471   4.869
23124WAT     H169614   5.513   7.520   4.841
23124WAT     H269615   5.351   7.509   4.819
23125WAT      O69616   4.030   9.229   8.353
23125WAT     H169617   4.028   9.150   8.291
23125WAT     H269618   4.073   9.306   8.307
23126WAT      O69619   3.215   0.329   5.113
23126WAT     H169620   3.306   0.318   5.073
23126WAT     H269621   3.161   0.391   5.056
23127WAT      O69622   2.626   2.160   4.879
23127WAT     H169623   2.534   2.124   4.894
23127WAT     H269624   2.621   2.241   4.820
23128WAT      O69625   1.096   9.417   0.011
23128WAT     H169626   1.062   9.419   0.105
23128WAT     H269627   1.052   9.342  -0.039
23129WAT      O69628   0.293   9.420   1.857
23129WAT     H169629   0.373   9.434   1.798
23129WAT     H269630   0.309   9.463   1.945
23130WAT      O69631   5.702   0.477   3.598
23130WAT     H169632   5.721   0.382   3.620
23130WAT     H269633   5.755   0.537   3.658
23131WAT      O69634   8.717   6.623   7.301
23131WAT     H169635   8.743   6.681   7.378
23131WAT     H269636   8.784   6.550   7.290
23132WAT      O69637   5.125   7.182   0.064
23132WAT     H169638   5.170   7.235  -0.008
23132WAT     H269639   5.027   7.178   0.046
23133WAT      O69640   9.320   0.340   0.587
23133WAT     H169641   9.274   0.376   0.506
23133WAT     H269642   9.415   0.318   0.564
23134WAT      O69643   7.200   1.579   2.599
23134WAT     H169644   7.130   1.649   2.585
23134WAT     H269645   7.235   1.549   2.511
23135WAT      O69646   2.387   8.349   1.514
23135WAT     H169647   2.348   8.271   1.563
23135WAT     H269648   2.322   8.380   1.444
23136WAT      O69649   7.801   5.638   4.981
23136WAT     H169650   7.895   5.641   4.948
23136WAT     H269651   7.739   5.665   4.908
23137WAT      O69652   5.764   6.013   2.318
23137WAT     H169653   5.835   6.001   2.249
23137WAT     H269654   5.677   6.032   2.274
23138WAT      O69655   1.008   3.327   8.289
23138WAT     H169656   0.937   3.258   8.274
23138WAT     H269657   1.074   3.294   8.356
23139WAT      O69658   7.066   1.461   0.794
23139WAT     H169659   7.156   1.464   0.838
23139WAT     H269660   7.064   1.388   0.725
23140WAT      O69661   1.008   1.678   0.449
23140WAT     H169662   1.048   1.595   0.486
23140WAT     H269663   0.924   1.700   0.499
23141WAT      O69664   2.802   8.602   3.245
23141WAT     H169665   2.855   8.647   3.317
23141WAT     H269666   2.857   8.597   3.161
23142WAT      O69667   1.838   3.827   9.681
23142WAT     H169668   1.914   3.855   9.740
23142WAT     H269669   1.873   3.771   9.605
23143WAT      O69670   2.900   2.427   3.068
23143WAT     H169671   2.926   2.478   3.150
23143WAT     H269672   2.806   2.395   3.077
23144WAT      O69673   2.636   6.838   0.586
23144WAT     H169674   2.619   6.926   0.630
23144WAT     H269675   2.712   6.792   0.632
23145WAT      O69676   4.814   2.942   1.690
23145WAT     H169677   4.761   2.910   1.768
23145WAT     H269678   4.782   3.033   1.663
23146WAT      O69679   0.479   8.115   6.463
23146WAT     H169680   0.520   8.081   6.379
23146WAT     H269681   0.402   8.175   6.441
23147WAT      O69682   4.387   4.159   1.081
23147WAT     H169683   4.401   4.136   1.177
23147WAT     H269684   4.319   4.097   1.041
23148WAT      O69685   8.122   1.793   7.533
23148WAT     H169686   8.052   1.836   7.477
23148WAT     H269687   8.082   1.761   7.618
23149WAT      O69688   6.448   9.283   2.653
23149WAT     H169689   6.408   9.193   2.671
23149WAT     H269690   6.547   9.274   2.647
23150WAT      O69691   2.066   2.242   1.921
23150WAT     H169692   2.145   2.241   1.982
23150WAT     H269693   2.065   2.159   1.866
23151WAT      O69694   0.079   3.320   9.568
23151WAT     H169695   0.023   3.246   9.606
23151WAT     H269696   0.164   3.327   9.619
23152WAT      O69697   2.091   7.474   1.074
23152WAT     H169698   2.062   7.433   0.987
23152WAT     H269699   2.020   7.459   1.143
23153WAT      O69700   0.162   0.946   4.608
23153WAT     H169701   0.176   0.860   4.559
23153WAT     H269702   0.236   0.959   4.675
23154WAT      O69703   7.129   6.305   8.278
23154WAT     H169704   7.209   6.294   8.336
23154WAT     H269705   7.068   6.374   8.317
23155WAT      O69706   8.296   6.021   0.316
23155WAT     H169707   8.238   6.103   0.317
23155WAT     H269708   8.384   6.042   0.359
23156WAT      O69709   6.520   6.964   4.019
23156WAT     H169710   6.445   6.979   4.083
23156WAT     H269711   6.540   6.866   4.013
23157WAT      O69712   8.955   3.436   1.672
23157WAT     H169713   8.911   3.346   1.671
23157WAT     H269714   8.968   3.468   1.578
23158WAT      O69715   6.542   6.250   7.486
23158WAT     H169716   6.637   6.265   7.458
23158WAT     H269717   6.517   6.155   7.470
23159WAT      O69718   7.700   8.305   8.091
23159WAT     H169719   7.600   8.303   8.091
23159WAT     H269720   7.733   8.321   8.184
23160WAT      O69721   0.677   9.078   1.811
23160WAT     H169722   0.735   9.006   1.850
23160WAT     H269723   0.604   9.100   1.876
23161WAT      O69724   1.739   5.478   2.608
23161WAT     H169725   1.725   5.397   2.551
23161WAT     H269726   1.810   5.535   2.567
23162WAT      O69727   7.938   1.092   1.657
23162WAT     H169728   8.017   1.148   1.681
23162WAT     H269729   7.900   1.050   1.740
23163WAT      O69730   5.673   8.612   2.888
23163WAT     H169731   5.697   8.587   2.794
23163WAT     H269732   5.594   8.673   2.888
23164WAT      O69733   7.534   8.699   3.930
23164WAT     H169734   7.520   8.767   3.858
23164WAT     H269735   7.529   8.743   4.019
23165WAT      O69736   1.097   6.823   6.789
23165WAT     H169737   1.189   6.842   6.754
23165WAT     H269738   1.093   6.848   6.885
23166WAT      O69739   8.382   4.664   7.443
23166WAT     H169740   8.457   4.728   7.460
23166WAT     H269741   8.419   4.574   7.421
23167WAT      O69742   7.818   1.871   6.970
23167WAT     H169743   7.811   1.890   6.872
23167WAT     H269744   7.915   1.860   6.995
23168WAT      O69745   5.406   2.731   5.451
23168WAT     H169746   5.334   2.779   5.401
23168WAT     H269747   5.376   2.715   5.545
23169WAT      O69748   3.039   2.165   9.085
23169WAT     H169749   2.957   2.126   9.127
23169WAT     H269750   3.120   2.131   9.133
23170WAT      O69751   5.631   5.411   9.147
23170WAT     H169752   5.598   5.505   9.155
23170WAT     H269753   5.670   5.398   9.056
23171WAT      O69754   8.773   1.334   0.266
23171WAT     H169755   8.767   1.392   0.347
23171WAT     H269756   8.846   1.367   0.207
23172WAT      O69757   6.350   8.137   8.257
23172WAT     H169758   6.350   8.214   8.193
23172WAT     H269759   6.376   8.053   8.209
23173WAT      O69760   5.399   5.734   7.398
23173WAT     H169761   5.413   5.808   7.464
23173WAT     H269762   5.483   5.681   7.388
23174WAT      O69763   4.601   0.914   3.950
23174WAT     H169764   4.664   0.873   4.015
23174WAT     H269765   4.535   0.972   3.999
23175WAT      O69766   3.615   7.219   7.149
23175WAT     H169767   3.563   7.265   7.077
23175WAT     H269768   3.566   7.226   7.236
23176WAT      O69769   6.254   2.623   7.424
23176WAT     H169770   6.265   2.722   7.434
23176WAT     H269771   6.229   2.583   7.512
23177WAT      O69772   3.573   6.121   6.107
23177WAT     H169773   3.622   6.152   6.189
23177WAT     H269774   3.517   6.196   6.071
23178WAT      O69775   3.938   7.307   2.649
23178WAT     H169776   3.888   7.281   2.731
23178WAT     H269777   3.892   7.385   2.606
23179WAT      O69778   7.686   0.562   8.679
23179WAT     H169779   7.635   0.504   8.743
23179WAT     H269780   7.781   0.530   8.673
23180WAT      O69781   6.499   4.619   7.093
23180WAT     H169782   6.576   4.639   7.032
23180WAT     H269783   6.446   4.543   7.055
23181WAT      O69784   2.131   0.421   0.397
23181WAT     H169785   2.094   0.470   0.476
23181WAT     H269786   2.152   0.486   0.325
23182WAT      O69787   6.177   1.637   7.505
23182WAT     H169788   6.185   1.633   7.405
23182WAT     H269789   6.081   1.638   7.531
23183WAT      O69790   6.235   8.880   8.155
23183WAT     H169791   6.296   8.923   8.089
23183WAT     H269792   6.170   8.821   8.107
23184WAT      O69793   3.357   4.271   3.361
23184WAT     H169794   3.357   4.336   3.438
23184WAT     H269795   3.444   4.223   3.359
23185WAT      O69796   4.402   7.471   8.162
23185WAT     H169797   4.467   7.412   8.114
23185WAT     H269798   4.431   7.481   8.257
23186WAT      O69799   1.937   3.921   4.300
23186WAT     H169800   1.870   3.991   4.325
23186WAT     H269801   2.022   3.965   4.270
23187WAT      O69802   3.516   3.881   1.801
23187WAT     H169803   3.608   3.921   1.792
23187WAT     H269804   3.521   3.799   1.859
23188WAT      O69805   0.926   4.285   2.823
23188WAT     H169806   0.914   4.380   2.853
23188WAT     H269807   0.839   4.237   2.829
23189WAT      O69808   1.262   9.825   1.839
23189WAT     H169809   1.306   9.811   1.750
23189WAT     H269810   1.166   9.798   1.834
23190WAT      O69811   4.521   5.245   5.863
23190WAT     H169812   4.617   5.253   5.888
23190WAT     H269813   4.466   5.229   5.944
23191WAT      O69814   9.371   4.575   2.315
23191WAT     H169815   9.302   4.597   2.246
23191WAT     H269816   9.420   4.659   2.340
23192WAT      O69817   4.371   9.718   4.162
23192WAT     H169818   4.295   9.655   4.179
23192WAT     H269819   4.411   9.699   4.072
23193WAT      O69820   6.951   2.625   3.826
23193WAT     H169821   6.899   2.657   3.748
23193WAT     H269822   6.950   2.694   3.898
23194WAT      O69823   4.216   1.199   3.315
23194WAT     H169824   4.240   1.232   3.406
23194WAT     H269825   4.285   1.134   3.283
23195WAT      O69826   4.901   8.258   2.161
23195WAT     H169827   4.879   8.310   2.079
23195WAT     H269828   4.848   8.294   2.238
23196WAT      O69829   6.643   8.346   6.158
23196WAT     H169830   6.712   8.285   6.195
23196WAT     H269831   6.611   8.311   6.070
23197WAT      O69832   4.521   0.302   5.971
23197WAT     H169833   4.600   0.304   5.909
23197WAT     H269834   4.452   0.239   5.935
23198WAT      O69835   0.094   2.612   1.742
23198WAT     H169836   0.024   2.612   1.813
23198WAT     H269837   0.057   2.654   1.659
23199WAT      O69838   9.747   2.497   9.366
23199WAT     H169839   9.757   2.503   9.466
23199WAT     H269840   9.779   2.408   9.334
23200WAT      O69841   6.822   5.625   2.970
23200WAT     H169842   6.845   5.667   2.882
23200WAT     H269843   6.788   5.532   2.956
23201WAT      O69844   1.204   7.939   4.308
23201WAT     H169845   1.216   8.036   4.328
23201WAT     H269846   1.196   7.927   4.209
23202WAT      O69847   9.797   2.914   9.803
23202WAT     H169848   9.830   2.901   9.897
23202WAT     H269849   9.810   3.009   9.776
23203WAT      O69850   1.008   7.824   4.574
23203WAT     H169851   0.962   7.743   4.612
23203WAT     H269852   1.098   7.797   4.538
23204WAT      O69853   5.690   7.600   4.819
23204WAT     H169854   5.721   7.661   4.892
23204WAT     H269855   5.672   7.653   4.737
23205WAT      O69856   9.122   1.940   5.457
23205WAT     H169857   9.212   1.896   5.465
23205WAT     H269858   9.115   1.987   5.369
23206WAT      O69859   3.185   4.530   2.241
23206WAT     H169860   3.133   4.594   2.184
23206WAT     H269861   3.169   4.437   2.208
23207WAT      O69862   8.455   9.816   0.036
23207WAT     H169863   8.414   9.727   0.056
23207WAT     H269864   8.554   9.804   0.023
23208WAT      O69865   1.657   2.823   1.099
23208WAT     H169866   1.695   2.804   1.009
23208WAT     H269867   1.731   2.825   1.167
23209WAT      O69868   6.290   2.454   0.907
23209WAT     H169869   6.261   2.359   0.899
23209WAT     H269870   6.271   2.486   1.000
23210WAT      O69871   7.920   0.344   1.821
23210WAT     H169872   7.925   0.419   1.755
23210WAT     H269873   7.998   0.349   1.883
23211WAT      O69874   2.817   1.184   4.211
23211WAT     H169875   2.723   1.150   4.210
23211WAT     H269876   2.877   1.116   4.253
23212WAT      O69877   9.149   7.968   5.036
23212WAT     H169878   9.072   8.011   5.082
23212WAT     H269879   9.229   8.027   5.043
23213WAT      O69880   6.395   9.463   9.494
23213WAT     H169881   6.379   9.529   9.421
23213WAT     H269882   6.399   9.370   9.456
23214WAT      O69883   8.426   7.135   2.091
23214WAT     H169884   8.329   7.149   2.072
23214WAT     H269885   8.442   7.038   2.113
23215WAT      O69886   7.451   1.256   6.270
23215WAT     H169887   7.522   1.247   6.340
23215WAT     H269888   7.493   1.279   6.183
23216WAT      O69889   3.472   0.736   9.199
23216WAT     H169890   3.547   0.735   9.133
23216WAT     H269891   3.418   0.820   9.188
23217WAT      O69892   6.531   1.512   3.594
23217WAT     H169893   6.475   1.500   3.676
23217WAT     H269894   6.485   1.469   3.515
23218WAT      O69895   0.716   6.389   2.395
23218WAT     H169896   0.692   6.384   2.492
23218WAT     H269897   0.755   6.301   2.366
23219WAT      O69898   0.274   1.744   7.625
23219WAT     H169899   0.358   1.693   7.644
23219WAT     H269900   0.268   1.822   7.687
23220WAT      O69901   8.231   5.644   0.217
23220WAT     H169902   8.290   5.588   0.159
23220WAT     H269903   8.149   5.592   0.240
23221WAT      O69904   3.597   8.241   2.081
23221WAT     H169905   3.498   8.227   2.082
23221WAT     H269906   3.640   8.162   2.038
23222WAT      O69907   9.771   3.175   0.124
23222WAT     H169908   9.852   3.230   0.104
23222WAT     H269909   9.723   3.215   0.203
23223WAT      O69910   2.417   2.794   7.468
23223WAT     H169911   2.513   2.782   7.444
23223WAT     H269912   2.387   2.717   7.525
23224WAT      O69913   9.581   1.485   2.716
23224WAT     H169914   9.601   1.547   2.792
23224WAT     H269915   9.486   1.496   2.687
23225WAT      O69916   1.902   1.441   4.516
23225WAT     H169917   1.954   1.367   4.475
23225WAT     H269918   1.843   1.483   4.447
23226WAT      O69919   0.583   9.605   9.386
23226WAT     H169920   0.606   9.653   9.301
23226WAT     H269921   0.646   9.528   9.398
23227WAT      O69922   2.865   2.919   5.793
23227WAT     H169923   2.869   2.933   5.694
23227WAT     H269924   2.921   2.988   5.838
23228WAT      O69925   8.884   9.192   2.228
23228WAT     H169926   8.916   9.287   2.231
23228WAT     H269927   8.932   9.138   2.297
23229WAT      O69928   4.909   3.073   2.154
23229WAT     H169929   4.894   2.978   2.127
23229WAT     H269930   4.955   3.123   2.081
23230WAT      O69931   9.376   0.657   2.245
23230WAT     H169932   9.300   0.721   2.238
23230WAT     H269933   9.342   0.567   2.273
23231WAT      O69934   9.224   6.372   4.793
23231WAT     H169935   9.156   6.301   4.778
23231WAT     H269936   9.190   6.460   4.758
23232WAT      O69937   6.029   2.706   5.538
23232WAT     H169938   5.941   2.689   5.493
23232WAT     H269939   6.034   2.654   5.623
23233WAT      O69940   2.335   5.019   8.709
23233WAT     H169941   2.323   5.072   8.792
23233WAT     H269942   2.279   5.058   8.636
23234WAT      O69943   6.165   0.328   2.216
23234WAT     H169944   6.154   0.274   2.132
23234WAT     H269945   6.213   0.274   2.285
23235WAT      O69946   3.930   9.584   6.605
23235WAT     H169947   3.934   9.624   6.513
23235WAT     H269948   3.846   9.531   6.614
23236WAT      O69949   0.227   2.468   2.737
23236WAT     H169950   0.268   2.378   2.756
23236WAT     H269951   0.259   2.501   2.648
23237WAT      O69952   7.749   9.079   7.806
23237WAT     H169953   7.733   9.158   7.746
23237WAT     H269954   7.790   9.109   7.891
23238WAT      O69955   4.885   8.968   4.658
23238WAT     H169956   4.829   8.976   4.740
23238WAT     H269957   4.942   9.050   4.649
23239WAT      O69958   6.825   0.692   0.839
23239WAT     H169959   6.923   0.671   0.846
23239WAT     H269960   6.800   0.759   0.908
23240WAT      O69961   4.676   0.640   7.698
23240WAT     H169962   4.627   0.591   7.770
23240WAT     H269963   4.652   0.601   7.609
23241WAT      O69964   5.204   2.183   3.277
23241WAT     H169965   5.206   2.208   3.374
23241WAT     H269966   5.265   2.244   3.226
23242WAT      O69967   7.522   0.823   4.137
23242WAT     H169968   7.616   0.857   4.142
23242WAT     H269969   7.463   0.894   4.098
23243WAT      O69970   4.153   4.894   0.904
23243WAT     H169971   4.148   4.963   0.831
23243WAT     H269972   4.202   4.933   0.982
23244WAT      O69973   0.964   7.685   8.271
23244WAT     H169974   0.887   7.704   8.331
23244WAT     H269975   1.021   7.766   8.262
23245WAT      O69976   9.357   1.329   6.383
23245WAT     H169977   9.359   1.373   6.473
23245WAT     H269978   9.346   1.230   6.394
23246WAT      O69979   0.534   9.756   7.500
23246WAT     H169980   0.600   9.681   7.500
23246WAT     H269981   0.582   9.843   7.491
23247WAT      O69982   1.183   0.995   1.702
23247WAT     H169983   1.196   0.935   1.623
23247WAT     H269984   1.094   1.040   1.696
23248WAT      O69985   6.928   6.705   5.996
23248WAT     H169986   6.833   6.734   6.005
23248WAT     H269987   6.980   6.774   5.946
23249WAT      O69988   0.584   6.109   4.364
23249WAT     H169989   0.664   6.151   4.320
23249WAT     H269990   0.580   6.012   4.341
23250WAT      O69991   5.954   0.992   3.120
23250WAT     H169992   6.046   1.007   3.157
23250WAT     H269993   5.961   0.943   3.033
23251WAT      O69994   0.426   0.156   6.763
23251WAT     H169995   0.352   0.223   6.769
23251WAT     H269996   0.504   0.187   6.818
23252WAT      O69997   2.802   0.750   6.351
23252WAT     H169998   2.802   0.708   6.260
23252WAT     H269999   2.710   0.780   6.374
23253WAT      O70000   0.959   3.722   3.364
23253WAT     H170001   0.946   3.787   3.289
23253WAT     H270002   1.056   3.704   3.377
23254WAT      O70003   0.323   2.320   1.159
23254WAT     H170004   0.360   2.382   1.090
23254WAT     H270005   0.336   2.360   1.250
23255WAT      O70006   7.267   1.156   4.263
23255WAT     H170007   7.312   1.123   4.180
23255WAT     H270008   7.240   1.251   4.250
23256WAT      O70009   3.032   5.431   8.906
23256WAT     H170010   3.016   5.371   8.827
23256WAT     H270011   3.040   5.526   8.875
23257WAT      O70012   7.981   7.097   9.209
23257WAT     H170013   8.062   7.043   9.233
23257WAT     H270014   7.987   7.186   9.253
23258WAT      O70015   4.999   3.518   7.250
23258WAT     H170016   4.964   3.547   7.339
23258WAT     H270017   4.999   3.596   7.187
23259WAT      O70018   2.054   7.783   9.460
23259WAT     H170019   2.102   7.863   9.423
23259WAT     H270020   1.975   7.762   9.403
23260WAT      O70021   3.235   2.823   2.568
23260WAT     H170022   3.234   2.841   2.470
23260WAT     H270023   3.329   2.820   2.600
23261WAT      O70024   7.212   5.780   6.360
23261WAT     H170025   7.261   5.702   6.320
23261WAT     H270026   7.178   5.754   6.450
23262WAT      O70027   4.421   4.486   5.019
23262WAT     H170028   4.462   4.568   5.059
23262WAT     H270029   4.350   4.512   4.953
23263WAT      O70030   8.425   3.644   5.957
23263WAT     H170031   8.468   3.662   5.869
23263WAT     H270032   8.402   3.547   5.965
23264WAT      O70033   1.387   0.067   0.280
23264WAT     H170034   1.439   0.146   0.313
23264WAT     H270035   1.354   0.086   0.188
23265WAT      O70036   4.837   9.674   0.453
23265WAT     H170037   4.863   9.603   0.388
23265WAT     H270038   4.762   9.642   0.510
23266WAT      O70039   2.080   2.225   9.889
23266WAT     H170040   2.131   2.176   9.818
23266WAT     H270041   2.122   2.315   9.904
23267WAT      O70042   1.272   7.690   2.118
23267WAT     H170043   1.303   7.780   2.150
23267WAT     H270044   1.189   7.701   2.063
23268WAT      O70045   0.974   7.356   2.712
23268WAT     H170046   0.934   7.392   2.796
23268WAT     H270047   1.046   7.419   2.680
23269WAT      O70048   9.040   5.950   1.678
23269WAT     H170049   9.023   5.851   1.684
23269WAT     H270050   9.033   5.990   1.769
23270WAT      O70051   2.159   8.532   9.596
23270WAT     H170052   2.075   8.478   9.585
23270WAT     H270053   2.195   8.555   9.505
23271WAT      O70054   1.177   7.760   1.532
23271WAT     H170055   1.187   7.683   1.469
23271WAT     H270056   1.207   7.844   1.489
23272WAT      O70057   0.699   5.731   0.456
23272WAT     H170058   0.661   5.760   0.368
23272WAT     H270059   0.767   5.660   0.441
23273WAT      O70060   5.954   8.237   8.733
23273WAT     H170061   6.033   8.179   8.749
23273WAT     H270062   5.876   8.181   8.705
23274WAT      O70063   2.940   9.622   6.667
23274WAT     H170064   2.890   9.704   6.638
23274WAT     H270065   2.876   9.554   6.701
23275WAT      O70066   5.196   7.999   2.760
23275WAT     H170067   5.160   8.005   2.854
23275WAT     H270068   5.128   7.955   2.702
23276WAT      O70069   7.544   4.777   3.756
23276WAT     H170070   7.583   4.711   3.820
23276WAT     H270071   7.571   4.869   3.782
23277WAT      O70072   2.132   9.409   4.599
23277WAT     H170073   2.122   9.458   4.686
23277WAT     H270074   2.160   9.314   4.618
23278WAT      O70075   1.715   5.958   9.253
23278WAT     H170076   1.791   5.988   9.311
23278WAT     H270077   1.666   5.883   9.298
23279WAT      O70078   1.023   4.917   2.317
23279WAT     H170079   1.049   4.916   2.413
23279WAT     H270080   0.938   4.969   2.306
23280WAT      O70081   8.453   3.622   4.994
23280WAT     H170082   8.417   3.681   5.067
23280WAT     H270083   8.494   3.541   5.036
23281WAT      O70084   1.506   9.588   1.793
23281WAT     H170085   1.536   9.638   1.874
23281WAT     H270086   1.438   9.519   1.818
23282WAT      O70087   9.256   3.539   7.790
23282WAT     H170088   9.332   3.478   7.768
23282WAT     H270089   9.184   3.488   7.838
23283WAT      O70090   9.546   8.852   4.667
23283WAT     H170091   9.480   8.778   4.679
23283WAT     H270092   9.527   8.925   4.732
23284WAT      O70093   2.574   3.142   2.337
23284WAT     H170094   2.651   3.201   2.314
23284WAT     H270095   2.516   3.187   2.406
23285WAT      O70096   8.796   9.687   1.905
23285WAT     H170097   8.844   9.600   1.889
23285WAT     H270098   8.801   9.709   2.002
23286WAT      O70099   0.126   2.156   4.650
23286WAT     H170100   0.216   2.168   4.608
23286WAT     H270101   0.064   2.114   4.583
23287WAT      O70102   4.525   0.209   6.795
23287WAT     H170103   4.495   0.120   6.829
23287WAT     H270104   4.580   0.254   6.865
23288WAT      O70105   1.828   4.208   3.649
23288WAT     H170106   1.793   4.152   3.574
23288WAT     H270107   1.783   4.182   3.734
23289WAT      O70108   8.161   0.100   1.358
23289WAT     H170109   8.228   0.122   1.288
23289WAT     H270110   8.156   0.000   1.370
23290WAT      O70111   2.859   6.692   2.425
23290WAT     H170112   2.865   6.785   2.390
23290WAT     H270113   2.941   6.641   2.399
23291WAT      O70114   7.315   4.997   3.979
23291WAT     H170115   7.286   5.083   3.938
23291WAT     H270116   7.400   4.966   3.936
23292WAT      O70117   0.270   8.216   5.569
23292WAT     H170118   0.176   8.246   5.585
23292WAT     H270119   0.301   8.248   5.480
23293WAT      O70120   3.461   1.005   2.597
23293WAT     H170121   3.433   1.008   2.501
23293WAT     H270122   3.499   0.916   2.618
23294WAT      O70123   9.547   4.595   9.743
23294WAT     H170124   9.452   4.625   9.749
23294WAT     H270125   9.589   4.632   9.660
23295WAT      O70126   8.837   5.096   8.325
23295WAT     H170127   8.839   5.014   8.268
23295WAT     H270128   8.894   5.167   8.282
23296WAT      O70129   8.794   6.470   6.907
23296WAT     H170130   8.794   6.569   6.891
23296WAT     H270131   8.791   6.422   6.820
23297WAT      O70132   1.388   5.636   5.437
23297WAT     H170133   1.371   5.540   5.458
23297WAT     H270134   1.393   5.688   5.522
23298WAT      O70135   1.365   5.520   6.408
23298WAT     H170136   1.391   5.599   6.353
23298WAT     H270137   1.438   5.497   6.472
23299WAT      O70138   3.422   6.941   0.502
23299WAT     H170139   3.382   7.018   0.550
23299WAT     H270140   3.401   6.947   0.404
23300WAT      O70141   3.589   2.765   5.949
23300WAT     H170142   3.521   2.753   6.021
23300WAT     H270143   3.566   2.846   5.895
23301WAT      O70144   6.942   6.705   4.305
23301WAT     H170145   6.938   6.610   4.337
23301WAT     H270146   6.913   6.709   4.209
23302WAT      O70147   2.457   9.623   1.324
23302WAT     H170148   2.541   9.573   1.347
23302WAT     H270149   2.439   9.613   1.226
23303WAT      O70150   8.642   2.291   1.427
23303WAT     H170151   8.678   2.375   1.467
23303WAT     H270152   8.718   2.232   1.398
23304WAT      O70153   5.131   2.534   7.263
23304WAT     H170154   5.107   2.599   7.335
23304WAT     H270155   5.173   2.453   7.304
23305WAT      O70156   3.734   6.030   7.799
23305WAT     H170157   3.798   5.955   7.816
23305WAT     H270158   3.701   6.066   7.887
23306WAT      O70159   8.265   5.967   8.842
23306WAT     H170160   8.208   6.038   8.884
23306WAT     H270161   8.286   5.992   8.748
23307WAT      O70162   7.916   2.473   3.524
23307WAT     H170163   7.827   2.474   3.568
23307WAT     H270164   7.907   2.503   3.428
23308WAT      O70165   8.048   5.999   1.750
23308WAT     H170166   7.987   6.057   1.804
23308WAT     H270167   8.016   5.904   1.753
23309WAT      O70168   6.937   3.284   5.504
23309WAT     H170169   6.857   3.338   5.477
23309WAT     H270170   6.984   3.329   5.580
23310WAT      O70171   8.238   8.761   1.043
23310WAT     H170172   8.218   8.792   0.950
23310WAT     H270173   8.279   8.836   1.095
23311WAT      O70174   2.398   6.366   2.823
23311WAT     H170175   2.382   6.313   2.906
23311WAT     H270176   2.321   6.429   2.808
23312WAT      O70177   0.933   6.472   3.343
23312WAT     H170178   0.886   6.538   3.284
23312WAT     H270179   0.941   6.384   3.296
23313WAT      O70180   4.775   3.673   1.502
23313WAT     H170181   4.739   3.764   1.483
23313WAT     H270182   4.735   3.637   1.586
23314WAT      O70183   7.654   5.074   9.602
23314WAT     H170184   7.664   5.089   9.700
23314WAT     H270185   7.613   4.984   9.586
23315WAT      O70186   2.368   3.223   8.132
23315WAT     H170187   2.426   3.237   8.212
23315WAT     H270188   2.401   3.144   8.080
23316WAT      O70189   7.594   7.663   2.222
23316WAT     H170190   7.676   7.699   2.179
23316WAT     H270191   7.619   7.594   2.290
23317WAT      O70192   9.577   5.418   0.846
23317WAT     H170193   9.648   5.470   0.894
23317WAT     H270194   9.487   5.445   0.880
23318WAT      O70195   9.248   5.905   8.575
23318WAT     H170196   9.260   5.885   8.478
23318WAT     H270197   9.333   5.942   8.612
23319WAT      O70198   2.943   8.707   5.480
23319WAT     H170199   2.888   8.790   5.469
23319WAT     H270200   3.023   8.727   5.536
23320WAT      O70201   7.113   6.913   4.807
23320WAT     H170202   7.025   6.867   4.812
23320WAT     H270203   7.115   6.973   4.727
23321WAT      O70204   5.892   0.634   2.099
23321WAT     H170205   5.989   0.625   2.123
23321WAT     H270206   5.871   0.729   2.079
23322WAT      O70207   2.450   5.208   0.930
23322WAT     H170208   2.441   5.296   0.976
23322WAT     H270209   2.360   5.177   0.900
23323WAT      O70210   1.958   1.789   3.803
23323WAT     H170211   2.050   1.792   3.764
23323WAT     H270212   1.928   1.883   3.823
23324WAT      O70213   0.021   7.071   0.390
23324WAT     H170214  -0.046   6.996   0.389
23324WAT     H270215   0.101   7.044   0.336
23325WAT      O70216   7.790   6.309   0.094
23325WAT     H170217   7.865   6.268   0.146
23325WAT     H270218   7.747   6.240   0.036
23326WAT      O70219   0.722   4.575   0.061
23326WAT     H170220   0.710   4.671   0.037
23326WAT     H270221   0.665   4.518   0.001
23327WAT      O70222   8.370   5.357   0.787
23327WAT     H170223   8.392   5.277   0.732
23327WAT     H270224   8.452   5.412   0.801
23328WAT      O70225   6.940   6.910   0.754
23328WAT     H170226   6.909   6.990   0.703
23328WAT     H270227   6.873   6.836   0.743
23329WAT      O70228   8.653   3.671   8.981
23329WAT     H170229   8.591   3.747   9.001
23329WAT     H270230   8.685   3.678   8.887
23330WAT      O70231   7.774   3.875   2.076
23330WAT     H170232   7.730   3.789   2.050
23330WAT     H270233   7.705   3.944   2.094
23331WAT      O70234   1.168   4.376   0.304
23331WAT     H170235   1.257   4.393   0.348
23331WAT     H270236   1.100   4.439   0.341
23332WAT      O70237   8.266   2.020   8.190
23332WAT     H170238   8.208   2.016   8.109
23332WAT     H270239   8.357   1.985   8.167
23333WAT      O70240   3.493   7.830   0.367
23333WAT     H170241   3.428   7.845   0.292
23333WAT     H270242   3.453   7.767   0.433
23334WAT      O70243   3.841   3.568   5.418
23334WAT     H170244   3.784   3.578   5.337
23334WAT     H270245   3.793   3.511   5.486
23335WAT      O70246   1.082   2.833   5.867
23335WAT     H170247   1.023   2.818   5.787
23335WAT     H270248   1.118   2.745   5.898
23336WAT      O70249   5.961   2.347   7.899
23336WAT     H170250   6.019   2.274   7.863
23336WAT     H270251   5.887   2.308   7.953
23337WAT      O70252   5.708   7.632   3.863
23337WAT     H170253   5.645   7.584   3.923
23337WAT     H270254   5.703   7.730   3.882
23338WAT      O70255   4.232   7.821   1.634
23338WAT     H170256   4.220   7.849   1.539
23338WAT     H270257   4.233   7.902   1.692
23339WAT      O70258   9.261   7.929   2.373
23339WAT     H170259   9.339   7.956   2.430
23339WAT     H270260   9.201   8.008   2.360
23340WAT      O70261   8.051   8.334   3.325
23340WAT     H170262   7.979   8.393   3.363
23340WAT     H270263   8.106   8.298   3.400
23341WAT      O70264   6.525   2.080   8.875
23341WAT     H170265   6.497   2.151   8.940
23341WAT     H270266   6.584   2.121   8.805
23342WAT      O70267   8.848   6.304   1.228
23342WAT     H170268   8.780   6.378   1.224
23342WAT     H270269   8.825   6.242   1.303
23343WAT      O70270   3.135   9.488   1.647
23343WAT     H170271   3.054   9.517   1.697
23343WAT     H270272   3.176   9.567   1.601
23344WAT      O70273   3.868   2.005   6.698
23344WAT     H170274   3.893   2.031   6.791
23344WAT     H270275   3.778   1.961   6.699
23345WAT      O70276   1.859   4.186   7.489
23345WAT     H170277   1.840   4.275   7.530
23345WAT     H270278   1.803   4.117   7.533
23346WAT      O70279   4.490   0.871   1.220
23346WAT     H170280   4.416   0.804   1.217
23346WAT     H270281   4.486   0.920   1.306
23347WAT      O70282   3.337   9.253   3.276
23347WAT     H170283   3.415   9.239   3.337
23347WAT     H270284   3.263   9.296   3.327
23348WAT      O70285   1.054   3.451   6.769
23348WAT     H170286   1.089   3.387   6.837
23348WAT     H270287   0.983   3.406   6.715
23349WAT      O70288   9.380   7.537   0.159
23349WAT     H170289   9.323   7.502   0.233
23349WAT     H270290   9.337   7.517   0.071
23350WAT      O70291   1.912   6.557   0.932
23350WAT     H170292   1.840   6.510   0.881
23350WAT     H270293   1.951   6.630   0.876
23351WAT      O70294   9.390   4.961   2.219
23351WAT     H170295   9.416   4.888   2.283
23351WAT     H270296   9.338   4.921   2.143
23352WAT      O70297   7.331   3.583   4.374
23352WAT     H170298   7.292   3.645   4.442
23352WAT     H270299   7.297   3.490   4.391
23353WAT      O70300   6.811   1.932   7.965
23353WAT     H170301   6.859   2.002   8.018
23353WAT     H270302   6.788   1.968   7.875
23354WAT      O70303   6.673   8.231   1.561
23354WAT     H170304   6.658   8.140   1.523
23354WAT     H270305   6.628   8.238   1.650
23355WAT      O70306   5.331   3.626   3.964
23355WAT     H170307   5.333   3.711   3.912
23355WAT     H270308   5.390   3.635   4.044
23356WAT      O70309   6.175   0.046   6.679
23356WAT     H170310   6.171   0.087   6.770
23356WAT     H270311   6.186   0.118   6.611
23357WAT      O70312   4.223   0.416   2.341
23357WAT     H170313   4.278   0.337   2.370
23357WAT     H270314   4.233   0.429   2.242
23358WAT      O70315   9.875   0.154   7.247
23358WAT     H170316   9.918   0.241   7.274
23358WAT     H270317   9.784   0.172   7.211
23359WAT      O70318   8.901   7.605   5.685
23359WAT     H170319   8.921   7.698   5.715
23359WAT     H270320   8.972   7.574   5.623
23360WAT      O70321   1.830   2.017   6.189
23360WAT     H170322   1.814   2.036   6.285
23360WAT     H270323   1.927   2.032   6.167
23361WAT      O70324   4.615   5.335   7.336
23361WAT     H170325   4.685   5.274   7.375
23361WAT     H270326   4.585   5.300   7.248
23362WAT      O70327   9.763   8.040   9.300
23362WAT     H170328   9.823   8.057   9.377
23362WAT     H270329   9.816   8.043   9.215
23363WAT      O70330   8.836   0.907   7.603
23363WAT     H170331   8.787   0.903   7.515
23363WAT     H270332   8.853   1.003   7.627
23364WAT      O70333   1.884   4.334   7.193
23364WAT     H170334   1.921   4.277   7.267
23364WAT     H270335   1.784   4.326   7.192
23365WAT      O70336   9.572   8.850   4.391
23365WAT     H170337   9.562   8.874   4.488
23365WAT     H270338   9.626   8.920   4.345
23366WAT      O70339   4.856   8.440   1.955
23366WAT     H170340   4.785   8.479   2.013
23366WAT     H270341   4.815   8.406   1.870
23367WAT      O70342   5.676   8.171   8.213
23367WAT     H170343   5.735   8.216   8.281
23367WAT     H270344   5.639   8.087   8.253
23368WAT      O70345   1.876   8.476   2.677
23368WAT     H170346   1.823   8.555   2.647
23368WAT     H270347   1.828   8.392   2.652
23369WAT      O70348   1.173   1.910   2.865
23369WAT     H170349   1.255   1.853   2.866
23369WAT     H270350   1.149   1.931   2.770
23370WAT      O70351   9.120   8.864   6.260
23370WAT     H170352   9.088   8.867   6.165
23370WAT     H270353   9.170   8.778   6.275
23371WAT      O70354   1.672   5.849   0.059
23371WAT     H170355   1.608   5.778   0.089
23371WAT     H270356   1.622   5.934   0.045
23372WAT      O70357   8.567   5.191   4.551
23372WAT     H170358   8.486   5.134   4.544
23372WAT     H270359   8.629   5.153   4.620
23373WAT      O70360   1.098   6.774   2.918
23373WAT     H170361   1.096   6.737   3.011
23373WAT     H270362   1.071   6.870   2.919
23374WAT      O70363   0.429   9.510   8.602
23374WAT     H170364   0.388   9.574   8.667
23374WAT     H270365   0.359   9.477   8.539
23375WAT      O70366   8.474   8.049   4.025
23375WAT     H170367   8.447   8.061   3.929
23375WAT     H270368   8.410   7.988   4.071
23376WAT      O70369   5.048   6.635   4.962
23376WAT     H170370   4.990   6.573   4.909
23376WAT     H270371   4.990   6.693   5.019
23377WAT      O70372   5.898   1.276   8.914
23377WAT     H170373   5.912   1.272   9.013
23377WAT     H270374   5.910   1.370   8.883
23378WAT      O70375   8.280   4.545   6.437
23378WAT     H170376   8.183   4.523   6.443
23378WAT     H270377   8.321   4.542   6.529
23379WAT      O70378   5.703   3.086   8.214
23379WAT     H170379   5.745   3.017   8.154
23379WAT     H270380   5.641   3.143   8.160
23380WAT      O70381   6.249   3.264   3.472
23380WAT     H170382   6.195   3.310   3.542
23380WAT     H270383   6.190   3.204   3.418
23381WAT      O70384   7.635   1.498   8.125
23381WAT     H170385   7.730   1.525   8.112
23381WAT     H270386   7.626   1.399   8.114
23382WAT      O70387   6.699   2.292   3.626
23382WAT     H170388   6.656   2.317   3.540
23382WAT     H270389   6.698   2.193   3.636
23383WAT      O70390   8.797   1.580   5.312
23383WAT     H170391   8.838   1.649   5.373
23383WAT     H270392   8.701   1.567   5.337
23384WAT      O70393   2.763   4.111   8.692
23384WAT     H170394   2.782   4.209   8.684
23384WAT     H270395   2.714   4.094   8.778
23385WAT      O70396   7.404   8.502   9.429
23385WAT     H170397   7.502   8.501   9.448
23385WAT     H270398   7.363   8.586   9.464
23386WAT      O70399   4.200   1.842   1.408
23386WAT     H170400   4.180   1.849   1.505
23386WAT     H270401   4.135   1.898   1.356
23387WAT      O70402   3.600   9.562   6.120
23387WAT     H170403   3.553   9.505   6.187
23387WAT     H270404   3.644   9.638   6.167
23388WAT      O70405   0.772   5.912   8.962
23388WAT     H170406   0.766   5.994   8.905
23388WAT     H270407   0.798   5.938   9.055
23389WAT      O70408   7.764   4.503   3.527
23389WAT     H170409   7.778   4.458   3.615
23389WAT     H270410   7.845   4.490   3.469
23390WAT      O70411   2.094   0.391   5.153
23390WAT     H170412   2.063   0.472   5.202
23390WAT     H270413   2.038   0.312   5.180
23391WAT      O70414   3.812   8.060   2.049
23391WAT     H170415   3.831   8.018   2.138
23391WAT     H270416   3.809   7.988   1.979
23392WAT      O70417   9.252   7.531   0.823
23392WAT     H170418   9.315   7.584   0.766
23392WAT     H270419   9.190   7.478   0.765
23393WAT      O70420   0.731   9.601   4.130
23393WAT     H170421   0.724   9.672   4.060
23393WAT     H270422   0.683   9.631   4.213
23394WAT      O70423   3.709   4.804   2.620
23394WAT     H170424   3.648   4.779   2.696
23394WAT     H270425   3.804   4.803   2.652
23395WAT      O70426   4.769   1.642   3.496
23395WAT     H170427   4.859   1.620   3.533
23395WAT     H270428   4.704   1.571   3.523
23396WAT      O70429   0.674   5.724   8.803
23396WAT     H170430   0.717   5.794   8.860
23396WAT     H270431   0.618   5.768   8.733
23397WAT      O70432   3.612   2.196   8.231
23397WAT     H170433   3.618   2.130   8.306
23397WAT     H270434   3.705   2.220   8.201
23398WAT      O70435   9.037   1.226   5.869
23398WAT     H170436   9.118   1.192   5.821
23398WAT     H270437   8.983   1.283   5.807
23399WAT      O70438   2.395   5.060   7.290
23399WAT     H170439   2.407   5.157   7.312
23399WAT     H270440   2.330   5.019   7.355
23400WAT      O70441   3.540   8.589   3.774
23400WAT     H170442   3.449   8.551   3.755
23400WAT     H270443   3.577   8.547   3.857
23401WAT      O70444   8.791   3.145   7.323
23401WAT     H170445   8.854   3.106   7.390
23401WAT     H270446   8.725   3.203   7.370
23402WAT      O70447   8.210   4.489   8.119
23402WAT     H170448   8.216   4.555   8.044
23402WAT     H270449   8.258   4.405   8.094
23403WAT      O70450   9.526   6.449   1.542
23403WAT     H170451   9.562   6.528   1.492
23403WAT     H270452   9.427   6.445   1.529
23404WAT      O70453   2.352   9.677   6.590
23404WAT     H170454   2.424   9.623   6.547
23404WAT     H270455   2.366   9.679   6.689
23405WAT      O70456   6.591   8.168   7.326
23405WAT     H170457   6.494   8.168   7.350
23405WAT     H270458   6.601   8.167   7.226
23406WAT      O70459   4.104   6.808   1.533
23406WAT     H170460   4.133   6.903   1.517
23406WAT     H270461   4.120   6.754   1.451
23407WAT      O70462   2.635   7.845   4.770
23407WAT     H170463   2.634   7.893   4.858
23407WAT     H270464   2.688   7.897   4.704
23408WAT      O70465   3.078   8.584   2.597
23408WAT     H170466   3.101   8.640   2.516
23408WAT     H270467   3.117   8.493   2.585
23409WAT      O70468   7.631   1.517   4.175
23409WAT     H170469   7.597   1.455   4.246
23409WAT     H270470   7.606   1.481   4.085
23410WAT      O70471   3.825   9.241   1.361
23410WAT     H170472   3.739   9.211   1.404
23410WAT     H270473   3.892   9.167   1.368
23411WAT      O70474   8.452   3.208   0.902
23411WAT     H170475   8.391   3.178   0.829
23411WAT     H270476   8.523   3.268   0.864
23412WAT      O70477   7.462   4.665   8.415
23412WAT     H170478   7.419   4.581   8.449
23412WAT     H270479   7.557   4.669   8.445
23413WAT      O70480   9.301   2.162   8.579
23413WAT     H170481   9.366   2.099   8.536
23413WAT     H270482   9.235   2.111   8.633
23414WAT      O70483   7.886   6.861   0.808
23414WAT     H170484   7.932   6.831   0.725
23414WAT     H270485   7.917   6.953   0.833
23415WAT      O70486   5.063   8.517   3.625
23415WAT     H170487   5.085   8.611   3.600
23415WAT     H270488   5.147   8.470   3.654
23416WAT      O70489   2.546   5.806   4.963
23416WAT     H170490   2.447   5.814   4.963
23416WAT     H270491   2.579   5.793   5.057
23417WAT      O70492   8.852   6.714   5.531
23417WAT     H170493   8.816   6.703   5.438
23417WAT     H270494   8.789   6.768   5.586
23418WAT      O70495   2.283   0.298   8.217
23418WAT     H170496   2.334   0.379   8.246
23418WAT     H270497   2.191   0.300   8.258
23419WAT      O70498   3.138   5.273   9.289
23419WAT     H170499   3.232   5.244   9.272
23419WAT     H270500   3.131   5.312   9.380
23420WAT      O70501   5.980   9.096   6.846
23420WAT     H170502   6.055   9.100   6.780
23420WAT     H270503   5.970   9.186   6.890
23421WAT      O70504   5.511   0.551   0.172
23421WAT     H170505   5.430   0.493   0.166
23421WAT     H270506   5.499   0.631   0.115
23422WAT      O70507   3.494   6.261   6.943
23422WAT     H170508   3.571   6.201   6.925
23422WAT     H270509   3.505   6.303   7.033
23423WAT      O70510   6.584   0.761   9.637
23423WAT     H170511   6.537   0.674   9.655
23423WAT     H270512   6.662   0.769   9.699
23424WAT      O70513   1.873   7.837   7.478
23424WAT     H170514   1.774   7.828   7.485
23424WAT     H270515   1.916   7.798   7.559
23425WAT      O70516   4.612   2.509   3.089
23425WAT     H170517   4.648   2.420   3.117
23425WAT     H270518   4.605   2.569   3.169
23426WAT      O70519   0.274   7.584   9.546
23426WAT     H170520   0.266   7.516   9.473
23426WAT     H270521   0.303   7.671   9.508
23427WAT      O70522   7.760   2.245   8.443
23427WAT     H170523   7.842   2.280   8.488
23427WAT     H270524   7.680   2.296   8.476
23428WAT      O70525   7.666   4.783   7.572
23428WAT     H170526   7.766   4.777   7.566
23428WAT     H270527   7.631   4.837   7.495
23429WAT      O70528   5.613   7.705   6.509
23429WAT     H170529   5.561   7.791   6.503
23429WAT     H270530   5.689   7.708   6.444
23430WAT      O70531   4.575   3.323   8.934
23430WAT     H170532   4.579   3.358   9.028
23430WAT     H270533   4.668   3.317   8.897
23431WAT      O70534   7.331   9.087   0.127
23431WAT     H170535   7.401   9.092   0.056
23431WAT     H270536   7.275   9.005   0.113
23432WAT      O70537   9.695   6.188   7.474
23432WAT     H170538   9.624   6.124   7.505
23432WAT     H270539   9.735   6.154   7.389
23433WAT      O70540   0.972   5.228   0.025
23433WAT     H170541   0.949   5.180  -0.059
23433WAT     H270542   0.972   5.327   0.009
23434WAT      O70543   5.128   6.107   8.250
23434WAT     H170544   5.115   6.019   8.205
23434WAT     H270545   5.226   6.125   8.258
23435WAT      O70546   2.233   0.498   3.171
23435WAT     H170547   2.332   0.506   3.163
23435WAT     H270548   2.192   0.590   3.173
23436WAT      O70549   0.064   4.889   2.937
23436WAT     H170550   0.111   4.844   2.861
23436WAT     H270551   0.037   4.821   3.004
23437WAT      O70552   9.583   5.830   2.893
23437WAT     H170553   9.660   5.885   2.925
23437WAT     H270554   9.516   5.821   2.967
23438WAT      O70555   6.587   3.866   3.045
23438WAT     H170556   6.542   3.953   3.067
23438WAT     H270557   6.602   3.813   3.128
23439WAT      O70558   2.233   6.363   5.099
23439WAT     H170559   2.205   6.268   5.118
23439WAT     H270560   2.331   6.366   5.081
23440WAT      O70561   6.707   8.837   2.917
23440WAT     H170562   6.717   8.748   2.961
23440WAT     H270563   6.755   8.907   2.972
23441WAT      O70564   5.629   1.992   7.325
23441WAT     H170565   5.646   1.953   7.415
23441WAT     H270566   5.567   1.933   7.274
23442WAT      O70567   6.107   0.540   2.513
23442WAT     H170568   6.157   0.464   2.553
23442WAT     H270569   6.022   0.506   2.471
23443WAT      O70570   3.775   4.578   8.557
23443WAT     H170571   3.738   4.649   8.498
23443WAT     H270572   3.703   4.542   8.616
23444WAT      O70573   3.721   7.232   1.562
23444WAT     H170574   3.747   7.137   1.580
23444WAT     H270575   3.683   7.240   1.470
23445WAT      O70576   6.121   7.310   5.496
23445WAT     H170577   6.087   7.226   5.453
23445WAT     H270578   6.055   7.384   5.480
23446WAT      O70579   3.689   2.286   2.523
23446WAT     H170580   3.763   2.310   2.586
23446WAT     H270581   3.718   2.210   2.465
23447WAT      O70582   1.684   7.403   6.893
23447WAT     H170583   1.615   7.458   6.846
23447WAT     H270584   1.690   7.432   6.989
23448WAT      O70585   7.663   9.129   0.036
23448WAT     H170586   7.680   9.030   0.033
23448WAT     H270587   7.653   9.158   0.131
23449WAT      O70588   1.740   7.431   8.402
23449WAT     H170589   1.695   7.519   8.421
23449WAT     H270590   1.725   7.406   8.307
23450WAT      O70591   7.657   8.341   6.805
23450WAT     H170592   7.602   8.419   6.777
23450WAT     H270593   7.693   8.356   6.897
23451WAT      O70594   4.273   3.576   4.722
23451WAT     H170595   4.178   3.549   4.737
23451WAT     H270596   4.276   3.655   4.660
23452WAT      O70597   1.688   2.881   4.659
23452WAT     H170598   1.727   2.792   4.637
23452WAT     H270599   1.725   2.913   4.746
23453WAT      O70600   7.690   2.391   0.957
23453WAT     H170601   7.779   2.371   0.998
23453WAT     H270602   7.617   2.360   1.018
23454WAT      O70603   7.772   8.614   9.246
23454WAT     H170604   7.859   8.566   9.260
23454WAT     H270605   7.790   8.712   9.237
23455WAT      O70606   4.776   6.863   4.901
23455WAT     H170607   4.696   6.905   4.944
23455WAT     H270608   4.751   6.772   4.867
23456WAT      O70609   5.203   0.549   6.634
23456WAT     H170610   5.269   0.558   6.560
23456WAT     H270611   5.129   0.487   6.606
23457WAT      O70612   5.441   4.872   9.131
23457WAT     H170613   5.381   4.948   9.154
23457WAT     H270614   5.506   4.856   9.206
23458WAT      O70615   4.082   2.481   1.489
23458WAT     H170616   4.146   2.431   1.430
23458WAT     H270617   4.078   2.436   1.578
23459WAT      O70618   3.398   5.891   3.424
23459WAT     H170619   3.473   5.833   3.454
23459WAT     H270620   3.402   5.903   3.325
23460WAT      O70621   7.577   3.523   8.293
23460WAT     H170622   7.669   3.486   8.281
23460WAT     H270623   7.517   3.453   8.331
23461WAT      O70624   0.241   7.843   7.526
23461WAT     H170625   0.302   7.859   7.448
23461WAT     H270626   0.194   7.928   7.550
23462WAT      O70627   5.152   8.819   6.482
23462WAT     H170628   5.082   8.786   6.419
23462WAT     H270629   5.242   8.814   6.437
23463WAT      O70630   4.471   5.197   2.454
23463WAT     H170631   4.419   5.283   2.454
23463WAT     H270632   4.545   5.204   2.387
23464WAT      O70633   3.992   0.157   6.835
23464WAT     H170634   3.999   0.146   6.935
23464WAT     H270635   4.083   0.157   6.795
23465WAT      O70636   4.896   5.850   3.538
23465WAT     H170637   4.817   5.897   3.578
23465WAT     H270638   4.864   5.769   3.488
23466WAT      O70639   2.452   7.426   1.599
23466WAT     H170640   2.369   7.371   1.603
23466WAT     H270641   2.531   7.368   1.617
23467WAT      O70642   4.742   6.822   1.538
23467WAT     H170643   4.800   6.833   1.457
23467WAT     H270644   4.717   6.726   1.548
23468WAT      O70645   7.622   4.901   0.450
23468WAT     H170646   7.628   4.878   0.548
23468WAT     H270647   7.529   4.883   0.417
23469WAT      O70648   2.466   7.964   2.517
23469WAT     H170649   2.538   8.011   2.568
23469WAT     H270650   2.473   7.865   2.533
23470WAT      O70651   3.941   0.436   4.943
23470WAT     H170652   3.977   0.392   5.026
23470WAT     H270653   4.016   0.480   4.893
23471WAT      O70654   8.334   0.623   5.286
23471WAT     H170655   8.258   0.680   5.318
23471WAT     H270656   8.300   0.553   5.224
23472WAT      O70657   3.966   7.719   2.526
23472WAT     H170658   3.930   7.811   2.516
23472WAT     H270659   3.893   7.659   2.560
23473WAT      O70660   4.186   8.770   8.896
23473WAT     H170661   4.268   8.796   8.846
23473WAT     H270662   4.160   8.844   8.959
23474WAT      O70663   6.994   5.194   6.464
23474WAT     H170664   6.955   5.106   6.493
23474WAT     H270665   6.946   5.268   6.512
23475WAT      O70666   9.557   8.799   3.293
23475WAT     H170667   9.572   8.772   3.198
23475WAT     H270668   9.570   8.720   3.352
23476WAT      O70669   9.375   2.336   0.322
23476WAT     H170670   9.351   2.240   0.310
23476WAT     H270671   9.367   2.361   0.418
23477WAT      O70672   0.657   8.545   7.763
23477WAT     H170673   0.650   8.607   7.686
23477WAT     H270674   0.571   8.543   7.813
23478WAT      O70675   9.876   8.687   2.386
23478WAT     H170676   9.952   8.737   2.344
23478WAT     H270677   9.883   8.693   2.485
23479WAT      O70678   6.805   2.691   5.655
23479WAT     H170679   6.830   2.732   5.567
23479WAT     H270680   6.888   2.675   5.708
23480WAT      O70681   2.758   7.404   5.117
23480WAT     H170682   2.822   7.402   5.194
23480WAT     H270683   2.761   7.316   5.069
23481WAT      O70684   0.697   6.581   3.485
23481WAT     H170685   0.728   6.667   3.525
23481WAT     H270686   0.754   6.559   3.406
23482WAT      O70687   7.947   1.861   0.930
23482WAT     H170688   7.979   1.766   0.930
23482WAT     H270689   7.870   1.870   0.867
23483WAT      O70690   9.685   6.473   6.305
23483WAT     H170691   9.656   6.413   6.230
23483WAT     H270692   9.659   6.567   6.284
23484WAT      O70693   8.432   3.772   9.735
23484WAT     H170694   8.415   3.708   9.810
23484WAT     H270695   8.345   3.807   9.701
23485WAT      O70696   6.380   5.923   3.365
23485WAT     H170697   6.438   5.990   3.412
23485WAT     H270698   6.291   5.964   3.346
23486WAT      O70699   2.144   6.902   1.848
23486WAT     H170700   2.203   6.947   1.781
23486WAT     H270701   2.163   6.939   1.939
23487WAT      O70702   1.186   8.208   5.084
23487WAT     H170703   1.106   8.167   5.039
23487WAT     H270704   1.182   8.308   5.072
23488WAT      O70705   2.695   7.295   8.404
23488WAT     H170706   2.681   7.244   8.320
23488WAT     H270707   2.725   7.232   8.476
23489WAT      O70708   1.447   8.768   5.910
23489WAT     H170709   1.455   8.861   5.874
23489WAT     H270710   1.370   8.763   5.973
23490WAT      O70711   9.779   4.626   8.258
23490WAT     H170712   9.735   4.584   8.337
23490WAT     H270713   9.724   4.703   8.226
23491WAT      O70714   7.047   5.830   0.869
23491WAT     H170715   7.140   5.794   0.876
23491WAT     H270716   7.049   5.930   0.867
23492WAT      O70717   7.051   5.690   2.444
23492WAT     H170718   6.979   5.642   2.495
23492WAT     H270719   7.103   5.748   2.507
23493WAT      O70720   8.382   9.783   6.649
23493WAT     H170721   8.394   9.816   6.556
23493WAT     H270722   8.467   9.742   6.681
23494WAT      O70723   4.701   7.122   6.544
23494WAT     H170724   4.732   7.163   6.629
23494WAT     H270725   4.722   7.183   6.467
23495WAT      O70726   2.768   0.810   7.813
23495WAT     H170727   2.730   0.807   7.906
23495WAT     H270728   2.866   0.827   7.818
23496WAT      O70729   6.185   9.521   0.468
23496WAT     H170730   6.135   9.608   0.465
23496WAT     H270731   6.129   9.449   0.426
23497WAT      O70732   4.475   3.864   5.212
23497WAT     H170733   4.519   3.950   5.237
23497WAT     H270734   4.442   3.869   5.118
23498WAT      O70735   0.326   4.953   3.088
23498WAT     H170736   0.232   4.988   3.088
23498WAT     H270737   0.356   4.940   2.994
23499WAT      O70738   5.247   3.854   5.835
23499WAT     H170739   5.215   3.944   5.864
23499WAT     H270740   5.329   3.864   5.780
23500WAT      O70741   4.050   3.455   8.789
23500WAT     H170742   4.009   3.378   8.839
23500WAT     H270743   4.022   3.451   8.693
23501WAT      O70744   7.151   4.825   0.270
23501WAT     H170745   7.074   4.851   0.329
23501WAT     H270746   7.217   4.773   0.322
23502WAT      O70747   0.071   1.896   9.341
23502WAT     H170748   0.038   1.887   9.248
23502WAT     H270749   0.150   1.956   9.344
23503WAT      O70750   5.386   1.422   8.271
23503WAT     H170751   5.357   1.329   8.295
23503WAT     H270752   5.432   1.464   8.349
23504WAT      O70753   3.385   7.753   2.987
23504WAT     H170754   3.431   7.739   3.075
23504WAT     H270755   3.409   7.678   2.925
23505WAT      O70756   0.486   9.783   5.614
23505WAT     H170757   0.480   9.822   5.521
23505WAT     H270758   0.443   9.846   5.679
23506WAT      O70759   0.250   2.726   5.632
23506WAT     H170760   0.196   2.782   5.569
23506WAT     H270761   0.194   2.652   5.668
23507WAT      O70762   9.832   6.721   3.259
23507WAT     H170763   9.826   6.710   3.160
23507WAT     H270764   9.886   6.646   3.297
23508WAT      O70765   2.238   0.571   9.372
23508WAT     H170766   2.162   0.510   9.391
23508WAT     H270767   2.271   0.557   9.279
23509WAT      O70768   1.887   3.548   1.630
23509WAT     H170769   1.882   3.546   1.530
23509WAT     H270770   1.976   3.514   1.660
23510WAT      O70771   7.271   4.680   2.509
23510WAT     H170772   7.280   4.716   2.416
23510WAT     H270773   7.350   4.623   2.530
23511WAT      O70774   9.008   9.556   7.182
23511WAT     H170775   8.909   9.567   7.195
23511WAT     H270776   9.039   9.473   7.226
23512WAT      O70777   8.193   1.245   3.450
23512WAT     H170778   8.104   1.202   3.466
23512WAT     H270779   8.216   1.240   3.353
23513WAT      O70780   2.993   5.300   5.865
23513WAT     H170781   2.907   5.297   5.915
23513WAT     H270782   3.026   5.207   5.851
23514WAT      O70783   5.984   0.369   8.263
23514WAT     H170784   6.025   0.279   8.280
23514WAT     H270785   5.892   0.356   8.226
23515WAT      O70786   3.512   7.516   8.898
23515WAT     H170787   3.538   7.591   8.958
23515WAT     H270788   3.519   7.545   8.803
23516WAT      O70789   2.722   7.897   2.054
23516WAT     H170790   2.705   7.857   2.144
23516WAT     H270791   2.722   7.826   1.984
23517WAT      O70792   9.343   5.295   2.007
23517WAT     H170793   9.319   5.379   1.959
23517WAT     H270794   9.261   5.255   2.047
23518WAT      O70795   4.337   9.084   9.412
23518WAT     H170796   4.387   9.122   9.333
23518WAT     H270797   4.303   9.159   9.468
23519WAT      O70798   7.461   3.464   4.767
23519WAT     H170799   7.554   3.485   4.736
23519WAT     H270800   7.434   3.374   4.733
23520WAT      O70801   5.232   7.058   9.409
23520WAT     H170802   5.220   7.007   9.494
23520WAT     H270803   5.144   7.067   9.362
23521WAT      O70804   6.177   1.412   7.744
23521WAT     H170805   6.190   1.508   7.772
23521WAT     H270806   6.264   1.375   7.711
23522WAT      O70807   2.726   5.101   8.054
23522WAT     H170808   2.630   5.126   8.070
23522WAT     H270809   2.751   5.026   8.115
23523WAT      O70810   7.903   1.905   8.145
23523WAT     H170811   7.972   1.835   8.127
23523WAT     H270812   7.893   1.917   8.244
23524WAT      O70813   8.902   3.999   6.076
23524WAT     H170814   8.895   3.915   6.130
23524WAT     H270815   8.946   4.070   6.131
23525WAT      O70816   9.057   1.576   1.799
23525WAT     H170817   9.022   1.641   1.731
23525WAT     H270818   9.125   1.622   1.856
23526WAT      O70819   5.224   5.536   8.335
23526WAT     H170820   5.266   5.528   8.425
23526WAT     H270821   5.127   5.561   8.345
23527WAT      O70822   3.594   7.490   3.311
23527WAT     H170823   3.528   7.562   3.289
23527WAT     H270824   3.685   7.519   3.282
23528WAT      O70825   0.832   6.545   4.278
23528WAT     H170826   0.761   6.566   4.345
23528WAT     H270827   0.902   6.487   4.320
23529WAT      O70828   3.632   5.716   3.412
23529WAT     H170829   3.706   5.759   3.360
23529WAT     H270830   3.609   5.628   3.372
23530WAT      O70831   3.024   7.581   7.235
23530WAT     H170832   3.031   7.499   7.178
23530WAT     H270833   2.953   7.566   7.305
23531WAT      O70834   2.202   1.280   2.833
23531WAT     H170835   2.283   1.223   2.820
23531WAT     H270836   2.179   1.326   2.747
23532WAT      O70837   4.463   7.919   3.962
23532WAT     H170838   4.479   7.833   3.913
23532WAT     H270839   4.532   7.986   3.935
23533WAT      O70840   3.793   5.208   5.285
23533WAT     H170841   3.847   5.285   5.320
23533WAT     H270842   3.852   5.147   5.232
23534WAT      O70843   8.407   1.070   2.850
23534WAT     H170844   8.374   1.164   2.854
23534WAT     H270845   8.479   1.063   2.781
23535WAT      O70846   7.868   7.735   5.813
23535WAT     H170847   7.823   7.701   5.730
23535WAT     H270848   7.862   7.665   5.885
23536WAT      O70849   5.238   9.220   0.901
23536WAT     H170850   5.185   9.176   0.828
23536WAT     H270851   5.176   9.247   0.975
23537WAT      O70852   3.792   0.401   9.662
23537WAT     H170853   3.856   0.478   9.663
23537WAT     H270854   3.765   0.380   9.568
23538WAT      O70855   4.994   2.031   3.488
23538WAT     H170856   4.921   1.993   3.545
23538WAT     H270857   5.008   2.127   3.513
23539WAT      O70858   3.549   6.767   8.679
23539WAT     H170859   3.648   6.757   8.670
23539WAT     H270860   3.523   6.761   8.775
23540WAT      O70861   2.835   0.921   4.069
23540WAT     H170862   2.801   0.875   3.987
23540WAT     H270863   2.818   1.020   4.061
23541WAT      O70864   1.358   0.757   9.566
23541WAT     H170865   1.363   0.853   9.540
23541WAT     H270866   1.442   0.710   9.540
23542WAT      O70867   2.664   8.921   9.184
23542WAT     H170868   2.707   8.945   9.271
23542WAT     H270869   2.596   8.990   9.159
23543WAT      O70870   3.380   7.548   5.147
23543WAT     H170871   3.424   7.554   5.237
23543WAT     H270872   3.389   7.636   5.100
23544WAT      O70873   8.741   5.935   6.760
23544WAT     H170874   8.665   5.873   6.779
23544WAT     H270875   8.721   5.988   6.678
23545WAT      O70876   1.717   7.534   9.060
23545WAT     H170877   1.660   7.462   9.100
23545WAT     H270878   1.805   7.496   9.033
23546WAT      O70879   6.910   3.467   6.712
23546WAT     H170880   6.891   3.446   6.808
23546WAT     H270881   7.004   3.499   6.702
23547WAT      O70882   5.521   8.826   8.659
23547WAT     H170883   5.424   8.810   8.676
23547WAT     H270884   5.554   8.897   8.722
23548WAT      O70885   2.735   4.556   8.861
23548WAT     H170886   2.708   4.616   8.786
23548WAT     H270887   2.798   4.605   8.921
23549WAT      O70888   9.545   2.450   0.724
23549WAT     H170889   9.636   2.468   0.688
23549WAT     H270890   9.551   2.427   0.822
23550WAT      O70891   1.231   8.767   1.852
23550WAT     H170892   1.254   8.857   1.817
23550WAT     H270893   1.299   8.739   1.920
23551WAT      O70894   1.440   5.199   4.506
23551WAT     H170895   1.449   5.282   4.561
23551WAT     H270896   1.397   5.221   4.419
23552WAT      O70897   3.013   7.234   2.393
23552WAT     H170898   3.112   7.246   2.381
23552WAT     H270899   2.975   7.314   2.439
23553WAT      O70900   2.279   4.891   9.056
23553WAT     H170901   2.340   4.812   9.062
23553WAT     H270902   2.331   4.975   9.064
23554WAT      O70903   3.572   7.009   9.642
23554WAT     H170904   3.658   6.963   9.619
23554WAT     H270905   3.574   7.102   9.605
23555WAT      O70906   9.174   6.273   8.340
23555WAT     H170907   9.145   6.362   8.305
23555WAT     H270908   9.134   6.259   8.431
23556WAT      O70909   8.510   8.004   2.851
23556WAT     H170910   8.514   8.079   2.917
23556WAT     H270911   8.519   8.041   2.759
23557WAT      O70912   4.627   0.455   2.485
23557WAT     H170913   4.629   0.462   2.385
23557WAT     H270914   4.715   0.485   2.522
23558WAT      O70915   3.779   0.856   5.376
23558WAT     H170916   3.785   0.925   5.448
23558WAT     H270917   3.853   0.789   5.387
23559WAT      O70918   3.627   0.130   1.383
23559WAT     H170919   3.558   0.126   1.455
23559WAT     H270920   3.668   0.039   1.371
23560WAT      O70921   6.823   3.433   1.151
23560WAT     H170922   6.852   3.462   1.243
23560WAT     H270923   6.745   3.371   1.159
23561WAT      O70924   4.928   5.288   9.090
23561WAT     H170925   4.851   5.224   9.091
23561WAT     H270926   4.966   5.294   8.998
23562WAT      O70927   3.182   7.052   1.485
23562WAT     H170928   3.279   7.034   1.500
23562WAT     H270929   3.135   7.056   1.573
23563WAT      O70930   4.651   1.884   0.643
23563WAT     H170931   4.554   1.891   0.668
23563WAT     H270932   4.672   1.789   0.618
23564WAT      O70933   6.073   3.913   1.171
23564WAT     H170934   6.090   3.948   1.263
23564WAT     H270935   5.980   3.938   1.142
23565WAT      O70936   8.793   5.018   6.290
23565WAT     H170937   8.718   4.954   6.274
23565WAT     H270938   8.771   5.076   6.368
23566WAT      O70939   1.854   6.874   3.827
23566WAT     H170940   1.910   6.935   3.883
23566WAT     H270941   1.772   6.849   3.878
23567WAT      O70942   0.359   1.383   8.082
23567WAT     H170943   0.367   1.386   8.182
23567WAT     H270944   0.326   1.471   8.049
23568WAT      O70945   1.740   0.729   8.848
23568WAT     H170946   1.737   0.783   8.932
23568WAT     H270947   1.738   0.631   8.871
23569WAT      O70948   9.841   8.819   7.271
23569WAT     H170949   9.812   8.839   7.364
23569WAT     H270950   9.855   8.720   7.261
23570WAT      O70951   1.360   1.372   5.767
23570WAT     H170952   1.335   1.344   5.674
23570WAT     H270953   1.459   1.370   5.776
23571WAT      O70954   1.677   6.096   5.000
23571WAT     H170955   1.598   6.036   4.986
23571WAT     H270956   1.689   6.113   5.098
23572WAT      O70957   2.718   9.647   8.315
23572WAT     H170958   2.723   9.618   8.219
23572WAT     H270959   2.650   9.591   8.363
23573WAT      O70960   7.519   6.671   5.986
23573WAT     H170961   7.497   6.734   6.061
23573WAT     H270962   7.607   6.695   5.947
23574WAT      O70963   8.842   2.552   8.902
23574WAT     H170964   8.900   2.632   8.885
23574WAT     H270965   8.757   2.562   8.849
23575WAT      O70966   1.620   6.092   4.174
23575WAT     H170967   1.684   6.122   4.104
23575WAT     H270968   1.542   6.046   4.132
23576WAT      O70969   3.598   9.102   1.780
23576WAT     H170970   3.672   9.156   1.740
23576WAT     H270971   3.546   9.058   1.706
23577WAT      O70972   5.250   9.085   9.856
23577WAT     H170973   5.193   9.014   9.815
23577WAT     H270974   5.197   9.136   9.924
23578WAT      O70975   4.532   2.797   0.869
23578WAT     H170976   4.585   2.870   0.826
23578WAT     H270977   4.439   2.829   0.885
23579WAT      O70978   0.403   8.889   7.533
23579WAT     H170979   0.376   8.974   7.577
23579WAT     H270980   0.375   8.891   7.437
23580WAT      O70981   8.022   5.616   4.261
23580WAT     H170982   8.097   5.560   4.225
23580WAT     H270983   7.943   5.557   4.279
23581WAT      O70984   0.502   7.522   5.588
23581WAT     H170985   0.448   7.515   5.504
23581WAT     H270986   0.465   7.597   5.644
23582WAT      O70987   8.951   1.896   9.515
23582WAT     H170988   8.869   1.953   9.510
23582WAT     H270989   9.017   1.938   9.576
23583WAT      O70990   6.271   4.254   3.529
23583WAT     H170991   6.201   4.217   3.590
23583WAT     H270992   6.230   4.316   3.463
23584WAT      O70993   4.418   8.952   9.071
23584WAT     H170994   4.320   8.966   9.087
23584WAT     H270995   4.454   9.030   9.020
23585WAT      O70996   5.742   0.436   6.082
23585WAT     H170997   5.769   0.408   5.990
23585WAT     H270998   5.643   0.435   6.089
23586WAT      O70999   0.455   4.064   9.818
23586WAT     H171000   0.452   3.986   9.880
23586WAT     H271001   0.550   4.095   9.809
23587WAT      O71002   4.122   5.864   8.459
23587WAT     H171003   4.129   5.808   8.376
23587WAT     H271004   4.180   5.826   8.531
23588WAT      O71005   7.062   3.844   5.784
23588WAT     H171006   7.137   3.780   5.802
23588WAT     H271007   7.060   3.914   5.856
23589WAT      O71008   1.180   5.069   9.616
23589WAT     H171009   1.193   4.975   9.583
23589WAT     H271010   1.268   5.106   9.644
23590WAT      O71011   5.319   7.120   0.933
23590WAT     H171012   5.232   7.169   0.930
23590WAT     H271013   5.386   7.174   0.983
23591WAT      O71014   9.104   1.541   6.325
23591WAT     H171015   9.162   1.477   6.376
23591WAT     H271016   9.066   1.495   6.245
23592WAT      O71017   7.909   5.737   3.991
23592WAT     H171018   7.915   5.836   3.998
23592WAT     H271019   7.948   5.695   4.073
23593WAT      O71020   4.782   7.112   1.578
23593WAT     H171021   4.757   7.016   1.566
23593WAT     H271022   4.701   7.165   1.601
23594WAT      O71023   9.442   6.065   7.286
23594WAT     H171024   9.482   6.104   7.203
23594WAT     H271025   9.357   6.113   7.308
23595WAT      O71026   9.451   7.587   8.563
23595WAT     H171027   9.376   7.597   8.629
23595WAT     H271028   9.477   7.677   8.529
23596WAT      O71029   3.516   2.697   1.386
23596WAT     H171030   3.436   2.677   1.329
23596WAT     H271031   3.559   2.781   1.354
23597WAT      O71032   7.155   8.026   1.911
23597WAT     H171033   7.061   8.026   1.877
23597WAT     H271034   7.168   7.948   1.972
23598WAT      O71035   7.336   7.097   1.744
23598WAT     H171036   7.369   7.154   1.668
23598WAT     H271037   7.411   7.041   1.778
23599WAT      O71038   2.499   3.305   7.685
23599WAT     H171039   2.523   3.380   7.623
23599WAT     H271040   2.545   3.319   7.773
23600WAT      O71041   2.483   5.210   5.810
23600WAT     H171042   2.483   5.113   5.833
23600WAT     H271043   2.534   5.224   5.725
23601WAT      O71044   3.610   4.856   9.389
23601WAT     H171045   3.618   4.933   9.451
23601WAT     H271046   3.584   4.774   9.440
23602WAT      O71047   0.563   3.002   1.184
23602WAT     H171048   0.617   3.046   1.256
23602WAT     H271049   0.584   3.044   1.096
23603WAT      O71050   7.707   7.526   4.343
23603WAT     H171051   7.724   7.623   4.357
23603WAT     H271052   7.789   7.473   4.365
23604WAT      O71053   6.287   6.548   9.062
23604WAT     H171054   6.288   6.450   9.080
23604WAT     H271055   6.250   6.565   8.971
23605WAT      O71056   0.011   7.771   3.650
23605WAT     H171057  -0.075   7.821   3.643
23605WAT     H271058   0.052   7.787   3.739
23606WAT      O71059   5.650   8.773   7.808
23606WAT     H171060   5.733   8.789   7.861
23606WAT     H271061   5.616   8.681   7.826
23607WAT      O71062   1.074   7.876   3.301
23607WAT     H171063   1.052   7.958   3.355
23607WAT     H271064   1.004   7.806   3.316
23608WAT      O71065   0.891   8.919   1.606
23608WAT     H171066   0.819   8.852   1.623
23608WAT     H271067   0.927   8.906   1.513
23609WAT      O71068   7.569   8.283   4.631
23609WAT     H171069   7.539   8.326   4.717
23609WAT     H271070   7.508   8.313   4.557
23610WAT      O71071   6.053   5.866   3.569
23610WAT     H171072   6.112   5.938   3.605
23610WAT     H271073   5.991   5.834   3.640
23611WAT      O71074   8.999   8.527   7.489
23611WAT     H171075   8.975   8.570   7.402
23611WAT     H271076   8.920   8.479   7.526
23612WAT      O71077   2.705   9.643   0.783
23612WAT     H171078   2.733   9.548   0.794
23612WAT     H271079   2.638   9.667   0.853
23613WAT      O71080   2.621   7.771   2.282
23613WAT     H171081   2.613   7.749   2.379
23613WAT     H271082   2.552   7.720   2.231
23614WAT      O71083   6.665   2.473   6.689
23614WAT     H171084   6.668   2.415   6.607
23614WAT     H271085   6.702   2.422   6.767
23615WAT      O71086   5.432   6.069   9.545
23615WAT     H171087   5.335   6.056   9.521
23615WAT     H271088   5.468   6.149   9.498
23616WAT      O71089   7.208   5.369   3.325
23616WAT     H171090   7.216   5.360   3.226
23616WAT     H271091   7.172   5.459   3.347
23617WAT      O71092   6.986   3.738   7.144
23617WAT     H171093   6.939   3.780   7.066
23617WAT     H271094   7.054   3.802   7.180
23618WAT      O71095   7.241   1.324   8.476
23618WAT     H171096   7.238   1.238   8.527
23618WAT     H271097   7.311   1.384   8.516
23619WAT      O71098   8.710   2.184   7.937
23619WAT     H171099   8.761   2.260   7.896
23619WAT     H271100   8.773   2.108   7.955
23620WAT      O71101   8.515   7.752   3.264
23620WAT     H171102   8.609   7.761   3.297
23620WAT     H271103   8.460   7.705   3.333
23621WAT      O71104   2.056   9.200   9.136
23621WAT     H171105   1.967   9.162   9.109
23621WAT     H271106   2.094   9.252   9.060
23622WAT      O71107   8.914   2.144   2.752
23622WAT     H171108   8.890   2.131   2.656
23622WAT     H271109   8.853   2.212   2.793
23623WAT      O71110   6.917   0.202   8.749
23623WAT     H171111   6.853   0.277   8.766
23623WAT     H271112   6.876   0.136   8.686
23624WAT      O71113   3.196   1.281   2.001
23624WAT     H171114   3.186   1.254   2.096
23624WAT     H271115   3.217   1.379   1.996
23625WAT      O71116   7.978   0.748   2.794
23625WAT     H171117   7.890   0.755   2.842
23625WAT     H271118   8.048   0.715   2.857
23626WAT      O71119   4.205   9.557   9.559
23626WAT     H171120   4.237   9.573   9.652
23626WAT     H271121   4.229   9.635   9.502
23627WAT      O71122   7.216   8.663   8.513
23627WAT     H171123   7.210   8.647   8.414
23627WAT     H271124   7.137   8.717   8.543
23628WAT      O71125   9.041   2.717   1.519
23628WAT     H171126   8.997   2.670   1.442
23628WAT     H271127   9.140   2.713   1.508
23629WAT      O71128   8.910   3.373   3.506
23629WAT     H171129   8.939   3.295   3.449
23629WAT     H271130   8.844   3.342   3.574
23630WAT      O71131   8.069   4.186   5.722
23630WAT     H171132   8.021   4.188   5.810
23630WAT     H271133   8.160   4.146   5.734
23631WAT      O71134   4.615   7.090   7.105
23631WAT     H171135   4.528   7.107   7.151
23631WAT     H271136   4.598   7.079   7.007
23632WAT      O71137   3.212   2.203   3.228
23632WAT     H171138   3.304   2.216   3.266
23632WAT     H271139   3.178   2.113   3.255
23633WAT      O71140   5.778   7.406   2.553
23633WAT     H171141   5.772   7.421   2.454
23633WAT     H271142   5.709   7.340   2.581
23634WAT      O71143   9.196   3.868   8.689
23634WAT     H171144   9.283   3.834   8.727
23634WAT     H271145   9.182   3.962   8.718
23635WAT      O71146   2.438   3.951   9.019
23635WAT     H171147   2.524   3.902   9.004
23635WAT     H271148   2.367   3.911   8.962
23636WAT      O71149   2.827   4.588   5.598
23636WAT     H171150   2.910   4.536   5.579
23636WAT     H271151   2.765   4.581   5.520
23637WAT      O71152   8.131   0.910   5.153
23637WAT     H171153   8.122   0.819   5.114
23637WAT     H271154   8.228   0.929   5.170
23638WAT      O71155   3.120   7.150   2.676
23638WAT     H171156   3.181   7.084   2.633
23638WAT     H271157   3.139   7.241   2.639
23639WAT      O71158   5.188   4.570   5.618
23639WAT     H171159   5.177   4.636   5.543
23639WAT     H271160   5.207   4.480   5.580
23640WAT      O71161   5.778   8.340   1.934
23640WAT     H171162   5.697   8.399   1.928
23640WAT     H271163   5.823   8.337   1.845
23641WAT      O71164   2.510   8.703   1.323
23641WAT     H171165   2.497   8.670   1.417
23641WAT     H271166   2.424   8.699   1.274
23642WAT      O71167   0.556   8.606   5.307
23642WAT     H171168   0.547   8.705   5.315
23642WAT     H271169   0.489   8.562   5.367
23643WAT      O71170   2.575   3.879   1.223
23643WAT     H171171   2.638   3.801   1.221
23643WAT     H271172   2.541   3.897   1.131
23644WAT      O71173   9.440   9.006   3.015
23644WAT     H171174   9.403   9.098   3.008
23644WAT     H271175   9.371   8.939   2.987
23645WAT      O71176   1.014   0.347   1.319
23645WAT     H171177   1.067   0.377   1.239
23645WAT     H271178   0.917   0.367   1.304
23646WAT      O71179   5.995   6.599   9.274
23646WAT     H171180   5.983   6.641   9.363
23646WAT     H271181   5.981   6.500   9.281
23647WAT      O71182   6.000   8.049   0.054
23647WAT     H171183   5.949   8.086   0.132
23647WAT     H271184   6.089   8.017   0.084
23648WAT      O71185   4.781   4.401   0.565
23648WAT     H171186   4.857   4.336   0.555
23648WAT     H271187   4.700   4.365   0.519
23649WAT      O71188   6.848   8.391   4.987
23649WAT     H171189   6.781   8.441   5.042
23649WAT     H271190   6.853   8.433   4.896
23650WAT      O71191   3.838   7.090   3.338
23650WAT     H171192   3.770   7.144   3.388
23650WAT     H271193   3.930   7.115   3.368
23651WAT      O71194   4.695   0.459   4.413
23651WAT     H171195   4.676   0.361   4.404
23651WAT     H271196   4.633   0.499   4.480
23652WAT      O71197   1.594   8.599   9.085
23652WAT     H171198   1.583   8.513   9.133
23652WAT     H271199   1.587   8.675   9.150
23653WAT      O71200   6.440   6.704   3.880
23653WAT     H171201   6.393   6.765   3.815
23653WAT     H271202   6.376   6.633   3.910
23654WAT      O71203   7.021   8.700   7.830
23654WAT     H171204   6.938   8.734   7.875
23654WAT     H271205   6.997   8.658   7.743
23655WAT      O71206   0.411   7.942   2.705
23655WAT     H171207   0.456   7.992   2.630
23655WAT     H271208   0.478   7.882   2.749
23656WAT      O71209   1.077   8.976   4.057
23656WAT     H171210   1.131   8.993   4.139
23656WAT     H271211   1.039   9.062   4.024
23657WAT      O71212   7.064   6.865   7.347
23657WAT     H171213   6.972   6.840   7.317
23657WAT     H271214   7.131   6.805   7.302
23658WAT      O71215   9.713   9.171   3.954
23658WAT     H171216   9.783   9.242   3.960
23658WAT     H271217   9.636   9.196   4.012
23659WAT      O71218   8.392   5.514   8.704
23659WAT     H171219   8.398   5.414   8.697
23659WAT     H271220   8.428   5.556   8.621
23660WAT      O71221   4.547   2.693   5.749
23660WAT     H171222   4.491   2.610   5.745
23660WAT     H271223   4.644   2.669   5.746
23661WAT      O71224   7.204   7.762   9.235
23661WAT     H171225   7.200   7.824   9.313
23661WAT     H271226   7.259   7.803   9.163
23662WAT      O71227   0.929   7.025   1.508
23662WAT     H171228   0.958   7.090   1.578
23662WAT     H271229   0.836   7.047   1.477
23663WAT      O71230   0.158   8.913   5.812
23663WAT     H171231   0.249   8.899   5.851
23663WAT     H271232   0.102   8.832   5.827
23664WAT      O71233   7.376   0.633   6.856
23664WAT     H171234   7.334   0.567   6.794
23664WAT     H271235   7.475   0.624   6.853
23665WAT      O71236   1.588   3.073   6.399
23665WAT     H171237   1.553   3.004   6.336
23665WAT     H271238   1.533   3.073   6.483
23666WAT      O71239   0.457   8.900   5.250
23666WAT     H171240   0.391   8.844   5.200
23666WAT     H271241   0.428   8.996   5.247
23667WAT      O71242   8.432   0.735   0.598
23667WAT     H171243   8.480   0.718   0.684
23667WAT     H271244   8.460   0.824   0.561
23668WAT      O71245   8.846   8.849   0.009
23668WAT     H171246   8.825   8.947   0.017
23668WAT     H271247   8.776   8.806  -0.048
23669WAT      O71248   3.625   2.732   2.893
23669WAT     H171249   3.634   2.813   2.836
23669WAT     H271250   3.552   2.746   2.960
23670WAT      O71251   5.866   1.184   3.480
23670WAT     H171252   5.947   1.205   3.534
23670WAT     H271253   5.861   1.086   3.463
23671WAT      O71254   5.416   0.730   6.975
23671WAT     H171255   5.414   0.637   6.940
23671WAT     H271256   5.322   0.764   6.984
23672WAT      O71257   7.869   2.022   1.112
23672WAT     H171258   7.908   1.950   1.054
23672WAT     H271259   7.920   2.107   1.097
23673WAT      O71260   3.878   1.575   5.299
23673WAT     H171261   3.782   1.601   5.311
23673WAT     H271262   3.883   1.482   5.263
23674WAT      O71263   9.847   1.696   4.411
23674WAT     H171264   9.778   1.719   4.480
23674WAT     H271265   9.880   1.603   4.426
23675WAT      O71266   2.044   3.674   9.290
23675WAT     H171267   2.133   3.629   9.290
23675WAT     H271268   2.013   3.686   9.196
23676WAT      O71269   5.082   4.104   3.893
23676WAT     H171270   5.036   4.150   3.817
23676WAT     H271271   5.181   4.102   3.876
23677WAT      O71272   5.487   0.879   3.410
23677WAT     H171273   5.522   0.928   3.330
23677WAT     H271274   5.432   0.802   3.379
23678WAT      O71275   3.434   2.988   0.087
23678WAT     H171276   3.367   2.921   0.117
23678WAT     H271277   3.526   2.959   0.114
23679WAT      O71278   6.737   1.276   6.060
23679WAT     H171279   6.816   1.261   6.119
23679WAT     H271280   6.653   1.272   6.115
23680WAT      O71281   6.266   3.866   5.105
23680WAT     H171282   6.219   3.937   5.157
23680WAT     H271283   6.263   3.780   5.156
23681WAT      O71284   3.525   1.400   6.929
23681WAT     H171285   3.431   1.431   6.945
23681WAT     H271286   3.561   1.445   6.847
23682WAT      O71287   3.349   4.971   2.669
23682WAT     H171288   3.320   4.931   2.757
23682WAT     H271289   3.297   5.054   2.652
23683WAT      O71290   3.458   8.125   7.512
23683WAT     H171291   3.534   8.164   7.563
23683WAT     H271292   3.476   8.028   7.496
23684WAT      O71293   7.057   4.549   7.450
23684WAT     H171294   7.145   4.587   7.420
23684WAT     H271295   7.072   4.459   7.490
23685WAT      O71296   7.552   1.343   2.781
23685WAT     H171297   7.454   1.359   2.784
23685WAT     H271298   7.574   1.259   2.831
23686WAT      O71299   7.321   7.739   4.111
23686WAT     H171300   7.246   7.732   4.176
23686WAT     H271301   7.384   7.662   4.124
23687WAT      O71302   6.020   1.183   4.244
23687WAT     H171303   6.055   1.256   4.302
23687WAT     H271304   6.082   1.105   4.248
23688WAT      O71305   9.643   8.594   9.145
23688WAT     H171306   9.656   8.555   9.054
23688WAT     H271307   9.617   8.690   9.136
23689WAT      O71308   2.418   5.636   2.320
23689WAT     H171309   2.351   5.670   2.386
23689WAT     H271310   2.479   5.572   2.366
23690WAT      O71311   3.626   7.858   4.362
23690WAT     H171312   3.624   7.874   4.461
23690WAT     H271313   3.669   7.936   4.317
23691WAT      O71314   2.837   3.538   0.494
23691WAT     H171315   2.885   3.571   0.575
23691WAT     H271316   2.891   3.468   0.449
23692WAT      O71317   9.210   4.292   0.317
23692WAT     H171318   9.234   4.368   0.257
23692WAT     H271319   9.190   4.327   0.408
23693WAT      O71320   4.044   3.072   3.695
23693WAT     H171321   4.107   3.149   3.692
23693WAT     H271322   4.014   3.057   3.789
23694WAT      O71323   0.865   3.537   4.245
23694WAT     H171324   0.783   3.580   4.207
23694WAT     H271325   0.875   3.564   4.340
23695WAT      O71326   5.270   9.371   7.065
23695WAT     H171327   5.369   9.379   7.051
23695WAT     H271328   5.251   9.294   7.126
23696WAT      O71329   7.430   8.653   2.448
23696WAT     H171330   7.419   8.686   2.541
23696WAT     H271331   7.479   8.565   2.449
23697WAT      O71332   5.569   1.848   4.435
23697WAT     H171333   5.512   1.768   4.413
23697WAT     H271334   5.524   1.931   4.402
23698WAT      O71335   3.653   9.311   8.538
23698WAT     H171336   3.702   9.257   8.606
23698WAT     H271337   3.690   9.291   8.447
23699WAT      O71338   4.050   6.877   5.540
23699WAT     H171339   4.088   6.834   5.623
23699WAT     H271340   4.048   6.811   5.466
23700WAT      O71341   7.866   6.832   2.625
23700WAT     H171342   7.905   6.921   2.601
23700WAT     H271343   7.939   6.763   2.630
23701WAT      O71344   9.151   6.118   2.992
23701WAT     H171345   9.234   6.158   2.954
23701WAT     H271346   9.130   6.162   3.079
23702WAT      O71347   0.456   1.908   2.830
23702WAT     H171348   0.520   1.972   2.788
23702WAT     H271349   0.408   1.856   2.759
23703WAT      O71350   8.174   7.039   1.419
23703WAT     H171351   8.121   7.012   1.338
23703WAT     H271352   8.124   7.015   1.502
23704WAT      O71353   3.521   0.741   7.214
23704WAT     H171354   3.593   0.671   7.207
23704WAT     H271355   3.478   0.736   7.304
23705WAT      O71356   8.912   2.536   4.983
23705WAT     H171357   8.879   2.449   4.948
23705WAT     H271358   8.847   2.609   4.958
23706WAT      O71359   6.154   7.404   6.525
23706WAT     H171360   6.082   7.472   6.530
23706WAT     H271361   6.119   7.321   6.481
23707WAT      O71362   0.943   4.738   3.303
23707WAT     H171363   1.014   4.706   3.240
23707WAT     H271364   0.857   4.690   3.282
23708WAT      O71365   9.383   5.629   6.343
23708WAT     H171366   9.460   5.617   6.280
23708WAT     H271367   9.418   5.645   6.435
23709WAT      O71368   1.263   7.418   5.126
23709WAT     H171369   1.176   7.460   5.101
23709WAT     H271370   1.247   7.340   5.185
23710WAT      O71371   8.775   4.954   0.094
23710WAT     H171372   8.861   4.936   0.142
23710WAT     H271373   8.773   4.901   0.009
23711WAT      O71374   7.364   8.106   2.755
23711WAT     H171375   7.266   8.106   2.733
23711WAT     H271376   7.407   8.027   2.713
23712WAT      O71377   2.246   5.101   2.993
23712WAT     H171378   2.203   5.182   2.953
23712WAT     H271379   2.256   5.113   3.092
23713WAT      O71380   8.141   0.669   3.702
23713WAT     H171381   8.213   0.609   3.737
23713WAT     H271382   8.145   0.756   3.750
23714WAT      O71383   8.001   2.264   5.701
23714WAT     H171384   8.064   2.194   5.735
23714WAT     H271385   8.022   2.351   5.746
23715WAT      O71386   7.271   8.087   1.281
23715WAT     H171387   7.364   8.096   1.247
23715WAT     H271388   7.273   8.071   1.380
23716WAT      O71389   4.936   4.913   1.809
23716WAT     H171390   4.914   4.886   1.903
23716WAT     H271391   4.890   4.851   1.745
23717WAT      O71392   6.932   1.578   8.570
23717WAT     H171393   6.900   1.492   8.611
23717WAT     H271394   6.997   1.557   8.496
23718WAT      O71395   1.074   3.195   1.209
23718WAT     H171396   1.102   3.176   1.115
23718WAT     H271397   1.026   3.116   1.247
23719WAT      O71398   5.805   2.881   9.083
23719WAT     H171399   5.784   2.799   9.136
23719WAT     H271400   5.834   2.854   8.991
23720WAT      O71401   1.078   8.758   6.750
23720WAT     H171402   1.165   8.747   6.701
23720WAT     H271403   1.010   8.797   6.688
23721WAT      O71404   4.065   5.205   6.026
23721WAT     H171405   4.012   5.146   6.086
23721WAT     H271406   4.005   5.274   5.985
23722WAT      O71407   6.453   9.179   4.122
23722WAT     H171408   6.361   9.143   4.140
23722WAT     H271409   6.460   9.271   4.162
23723WAT      O71410   0.169   9.254   0.055
23723WAT     H171411   0.212   9.227   0.141
23723WAT     H271412   0.178   9.179  -0.011
23724WAT      O71413   1.307   9.070   6.874
23724WAT     H171414   1.317   9.145   6.940
23724WAT     H271415   1.228   9.014   6.898
23725WAT      O71416   4.562   0.430   7.859
23725WAT     H171417   4.475   0.394   7.827
23725WAT     H271418   4.571   0.413   7.958
23726WAT      O71419   6.802   7.333   2.072
23726WAT     H171420   6.863   7.274   2.019
23726WAT     H271421   6.767   7.283   2.151
23727WAT      O71422   7.089   0.345   7.754
23727WAT     H171423   7.131   0.352   7.664
23727WAT     H271424   7.137   0.277   7.809
23728WAT      O71425   1.612   9.167   7.624
23728WAT     H171426   1.548   9.154   7.548
23728WAT     H271427   1.648   9.079   7.654
23729WAT      O71428   8.598   4.812   6.253
23729WAT     H171429   8.545   4.791   6.171
23729WAT     H271430   8.540   4.801   6.334
23730WAT      O71431   2.021   2.681   9.824
23730WAT     H171432   1.956   2.676   9.748
23730WAT     H271433   1.970   2.678   9.910
23731WAT      O71434   8.685   0.443   3.050
23731WAT     H171435   8.698   0.415   3.145
23731WAT     H271436   8.741   0.386   2.990
23732WAT      O71437   3.934   1.036   2.079
23732WAT     H171438   3.960   1.076   1.991
23732WAT     H271439   3.888   0.948   2.063
23733WAT      O71440   4.205   1.019   9.800
23733WAT     H171441   4.227   0.995   9.705
23733WAT     H271442   4.172   1.113   9.803
23734WAT      O71443   7.223   7.944   5.025
23734WAT     H171444   7.158   7.874   4.995
23734WAT     H271445   7.315   7.917   4.998
23735WAT      O71446   4.456   3.445   8.326
23735WAT     H171447   4.416   3.533   8.301
23735WAT     H271448   4.451   3.383   8.247
23736WAT      O71449   8.617   7.816   4.406
23736WAT     H171450   8.649   7.853   4.493
23736WAT     H271451   8.647   7.875   4.332
23737WAT      O71452   2.551   5.998   2.805
23737WAT     H171453   2.576   5.909   2.843
23737WAT     H271454   2.452   6.007   2.803
23738WAT      O71455   2.360   7.738   9.502
23738WAT     H171456   2.399   7.809   9.560
23738WAT     H271457   2.261   7.738   9.509
23739WAT      O71458   8.628   1.681   8.539
23739WAT     H171459   8.565   1.730   8.478
23739WAT     H271460   8.598   1.691   8.633
23740WAT      O71461   6.403   9.355   1.190
23740WAT     H171462   6.491   9.307   1.193
23740WAT     H271463   6.357   9.336   1.103
23741WAT      O71464   3.998   8.626   0.649
23741WAT     H171465   3.913   8.600   0.602
23741WAT     H271466   4.032   8.712   0.611
23742WAT      O71467   6.895   4.505   1.416
23742WAT     H171468   6.963   4.570   1.380
23742WAT     H271469   6.877   4.435   1.347
23743WAT      O71470   1.855   3.563   2.549
23743WAT     H171471   1.809   3.483   2.589
23743WAT     H271472   1.890   3.621   2.622
23744WAT      O71473   8.089   4.201   5.190
23744WAT     H171474   8.063   4.286   5.145
23744WAT     H271475   8.140   4.222   5.273
23745WAT      O71476   4.833   1.900   2.322
23745WAT     H171477   4.862   1.995   2.328
23745WAT     H271478   4.887   1.852   2.253
23746WAT      O71479   0.973   9.256   4.959
23746WAT     H171480   1.050   9.256   5.022
23746WAT     H271481   0.967   9.167   4.914
23747WAT      O71482   2.881   1.821   3.749
23747WAT     H171483   2.894   1.919   3.734
23747WAT     H271484   2.829   1.807   3.833
23748WAT      O71485   2.627   2.985   2.609
23748WAT     H171486   2.557   3.050   2.582
23748WAT     H271487   2.681   3.023   2.684
23749WAT      O71488   0.552   8.822   5.600
23749WAT     H171489   0.505   8.878   5.532
23749WAT     H271490   0.650   8.837   5.593
23750WAT      O71491   9.376   5.179   0.109
23750WAT     H171492   9.344   5.146   0.198
23750WAT     H271493   9.449   5.245   0.122
23751WAT      O71494   8.179   2.620   9.760
23751WAT     H171495   8.113   2.548   9.739
23751WAT     H271496   8.269   2.579   9.778
23752WAT      O71497   0.259   9.844   2.217
23752WAT     H171498   0.311   9.830   2.133
23752WAT     H271499   0.276   9.767   2.279
23753WAT      O71500   9.583   6.769   1.056
23753WAT     H171501   9.614   6.756   0.962
23753WAT     H271502   9.503   6.710   1.073
23754WAT      O71503   1.754   4.485   0.188
23754WAT     H171504   1.834   4.487   0.249
23754WAT     H271505   1.682   4.431   0.230
23755WAT      O71506   4.477   4.847   2.819
23755WAT     H171507   4.552   4.787   2.849
23755WAT     H271508   4.452   4.826   2.725
23756WAT      O71509   4.131   7.502   8.835
23756WAT     H171510   4.049   7.473   8.785
23756WAT     H271511   4.167   7.586   8.794
23757WAT      O71512   8.410   0.942   4.553
23757WAT     H171513   8.410   0.910   4.648
23757WAT     H271514   8.451   1.033   4.549
23758WAT      O71515   7.975   1.838   6.574
23758WAT     H171516   7.988   1.740   6.567
23758WAT     H271517   7.882   1.857   6.608
23759WAT      O71518   3.613   4.117   9.227
23759WAT     H171519   3.607   4.035   9.170
23759WAT     H271520   3.658   4.094   9.313
23760WAT      O71521   3.630   9.126   7.994
23760WAT     H171522   3.706   9.189   7.981
23760WAT     H271523   3.543   9.175   7.988
23761WAT      O71524   0.962   3.573   2.015
23761WAT     H171525   1.047   3.569   2.067
23761WAT     H271526   0.979   3.544   1.921
23762WAT      O71527   8.937   7.590   0.209
23762WAT     H171528   8.866   7.581   0.279
23762WAT     H271529   8.931   7.514   0.145
23763WAT      O71530   6.457   3.287   1.514
23763WAT     H171531   6.412   3.377   1.515
23763WAT     H271532   6.550   3.297   1.479
23764WAT      O71533   8.679   4.617   4.590
23764WAT     H171534   8.770   4.595   4.626
23764WAT     H271535   8.631   4.533   4.567
23765WAT      O71536   5.074   1.713   1.581
23765WAT     H171537   4.985   1.758   1.587
23765WAT     H271538   5.090   1.658   1.663
23766WAT      O71539   0.775   0.209   3.089
23766WAT     H171540   0.707   0.139   3.115
23766WAT     H271541   0.863   0.164   3.073
23767WAT      O71542   8.780   8.166   3.940
23767WAT     H171543   8.771   8.090   3.876
23767WAT     H271544   8.830   8.136   4.021
23768WAT      O71545   0.730   5.942   0.648
23768WAT     H171546   0.703   5.862   0.594
23768WAT     H271547   0.776   6.008   0.589
23769WAT      O71548   6.128   9.052   2.207
23769WAT     H171549   6.202   9.102   2.253
23769WAT     H271550   6.081   9.114   2.145
23770WAT      O71551   5.143   3.255   0.717
23770WAT     H171552   5.220   3.192   0.711
23770WAT     H271553   5.122   3.291   0.626
23771WAT      O71554   7.039   0.213   1.774
23771WAT     H171555   6.988   0.298   1.758
23771WAT     H271556   6.981   0.134   1.752
23772WAT      O71557   1.189   2.446   3.353
23772WAT     H171558   1.233   2.465   3.265
23772WAT     H271559   1.130   2.366   3.343
23773WAT      O71560   9.850   2.496   4.134
23773WAT     H171561   9.918   2.459   4.071
23773WAT     H271562   9.760   2.493   4.092
23774WAT      O71563   1.184   3.852   9.858
23774WAT     H171564   1.125   3.791   9.912
23774WAT     H271565   1.279   3.822   9.868
23775WAT      O71566   6.203   5.702   3.170
23775WAT     H171567   6.167   5.773   3.231
23775WAT     H271568   6.278   5.654   3.215
23776WAT      O71569   2.272   8.634   5.895
23776WAT     H171570   2.346   8.585   5.940
23776WAT     H271571   2.238   8.707   5.955
23777WAT      O71572   9.658   0.669   5.205
23777WAT     H171573   9.625   0.654   5.298
23777WAT     H271574   9.742   0.723   5.208
23778WAT      O71575   9.690   9.049   6.154
23778WAT     H171576   9.738   9.094   6.079
23778WAT     H271577   9.703   8.950   6.146
23779WAT      O71578   1.402   7.932   0.904
23779WAT     H171579   1.385   7.976   0.992
23779WAT     H271580   1.332   7.863   0.887
23780WAT      O71581   7.897   7.973   7.256
23780WAT     H171582   7.915   7.884   7.297
23780WAT     H271583   7.932   8.046   7.315
23781WAT      O71584   3.013   4.894   9.060
23781WAT     H171585   3.086   4.936   9.114
23781WAT     H271586   2.924   4.927   9.093
23782WAT      O71587   4.105   6.325   5.186
23782WAT     H171588   4.066   6.273   5.110
23782WAT     H271589   4.080   6.282   5.272
23783WAT      O71590   6.809   5.750   2.723
23783WAT     H171591   6.818   5.680   2.652
23783WAT     H271592   6.750   5.824   2.690
23784WAT      O71593   3.406   7.242   7.359
23784WAT     H171594   3.427   7.148   7.384
23784WAT     H271595   3.466   7.304   7.409
23785WAT      O71596   0.547   1.755   0.884
23785WAT     H171597   0.472   1.752   0.949
23785WAT     H271598   0.634   1.768   0.933
23786WAT      O71599   7.543   2.990   8.233
23786WAT     H171600   7.637   3.020   8.215
23786WAT     H271601   7.492   2.984   8.147
23787WAT      O71602   3.985   9.508   0.630
23787WAT     H171603   4.028   9.431   0.678
23787WAT     H271604   4.010   9.504   0.533
23788WAT      O71605   4.285   4.620   0.951
23788WAT     H171606   4.355   4.630   1.022
23788WAT     H271607   4.224   4.699   0.952
23789WAT      O71608   4.622   3.379   8.056
23789WAT     H171609   4.669   3.296   8.085
23789WAT     H271610   4.681   3.458   8.071
23790WAT      O71611   6.979   8.017   8.562
23790WAT     H171612   6.999   8.073   8.481
23790WAT     H271613   6.918   8.068   8.623
23791WAT      O71614   2.560   5.413   4.534
23791WAT     H171615   2.474   5.437   4.489
23791WAT     H271616   2.637   5.448   4.480
23792WAT      O71617   5.567   7.881   1.173
23792WAT     H171618   5.542   7.975   1.200
23792WAT     H271619   5.615   7.837   1.249
23793WAT      O71620   4.323   9.160   1.538
23793WAT     H171621   4.254   9.233   1.538
23793WAT     H271622   4.292   9.086   1.598
23794WAT      O71623   3.308   3.853   1.113
23794WAT     H171624   3.247   3.781   1.081
23794WAT     H271625   3.341   3.832   1.205
23795WAT      O71626   4.629   8.788   3.080
23795WAT     H171627   4.554   8.723   3.092
23795WAT     H271628   4.614   8.868   3.137
23796WAT      O71629   6.937   8.583   1.682
23796WAT     H171630   6.860   8.562   1.620
23796WAT     H271631   6.913   8.661   1.739
23797WAT      O71632   2.535   1.785   4.219
23797WAT     H171633   2.602   1.713   4.199
23797WAT     H271634   2.575   1.874   4.196
23798WAT      O71635   3.095   6.893   1.873
23798WAT     H171636   3.179   6.917   1.923
23798WAT     H271637   3.067   6.971   1.816
23799WAT      O71638   8.614   3.462   1.351
23799WAT     H171639   8.683   3.525   1.319
23799WAT     H271640   8.568   3.419   1.273
23800WAT      O71641   1.986   7.111   5.469
23800WAT     H171642   1.988   7.142   5.374
23800WAT     H271643   1.945   7.182   5.526
23801WAT      O71644   0.023   0.255   5.445
23801WAT     H171645  -0.064   0.304   5.433
23801WAT     H271646   0.030   0.183   5.376
23802WAT      O71647   2.834   9.371   8.809
23802WAT     H171648   2.787   9.459   8.806
23802WAT     H271649   2.820   9.328   8.898
23803WAT      O71650   0.793   0.954   9.737
23803WAT     H171651   0.710   1.007   9.753
23803WAT     H271652   0.870   1.015   9.722
23804WAT      O71653   1.276   6.704   3.249
23804WAT     H171654   1.352   6.762   3.276
23804WAT     H271655   1.310   6.624   3.199
23805WAT      O71656   1.448   9.530   7.871
23805WAT     H171657   1.382   9.559   7.801
23805WAT     H271658   1.477   9.436   7.852
23806WAT      O71659   3.289   9.435   9.270
23806WAT     H171660   3.382   9.424   9.234
23806WAT     H271661   3.290   9.505   9.342
23807WAT      O71662   3.574   1.624   4.080
23807WAT     H171663   3.583   1.524   4.078
23807WAT     H271664   3.477   1.648   4.074
23808WAT      O71665   3.484   7.749   8.055
23808WAT     H171666   3.570   7.699   8.069
23808WAT     H271667   3.444   7.771   8.144
23809WAT      O71668   6.684   7.575   6.478
23809WAT     H171669   6.642   7.656   6.436
23809WAT     H271670   6.612   7.511   6.504
23810WAT      O71671   0.759   1.395   9.469
23810WAT     H171672   0.795   1.391   9.562
23810WAT     H271673   0.670   1.441   9.469
23811WAT      O71674   9.348   3.861   3.970
23811WAT     H171675   9.328   3.958   3.989
23811WAT     H271676   9.307   3.805   4.042
23812WAT      O71677   0.057   2.755   6.503
23812WAT     H171678   0.117   2.831   6.529
23812WAT     H271679  -0.006   2.786   6.432
23813WAT      O71680   8.335   2.509   0.817
23813WAT     H171681   8.254   2.455   0.797
23813WAT     H271682   8.368   2.487   0.909
23814WAT      O71683   1.796   8.064   7.617
23814WAT     H171684   1.861   7.995   7.585
23814WAT     H271685   1.824   8.154   7.583
23815WAT      O71686   3.004   3.138   6.863
23815WAT     H171687   2.914   3.101   6.883
23815WAT     H271688   3.008   3.234   6.892
23816WAT      O71689   9.655   1.345   0.353
23816WAT     H171690   9.701   1.425   0.389
23816WAT     H271691   9.688   1.327   0.260
23817WAT      O71692   6.696   2.544   9.666
23817WAT     H171693   6.771   2.520   9.605
23817WAT     H271694   6.731   2.558   9.758
23818WAT      O71695   5.823   3.027   9.335
23818WAT     H171696   5.881   2.979   9.402
23818WAT     H271697   5.811   2.969   9.254
23819WAT      O71698   1.322   9.729   5.475
23819WAT     H171699   1.228   9.762   5.469
23819WAT     H271700   1.376   9.791   5.532
23820WAT      O71701   6.060   5.185   4.327
23820WAT     H171702   6.154   5.160   4.350
23820WAT     H271703   6.000   5.106   4.339
23821WAT      O71704   2.917   8.801   1.385
23821WAT     H171705   2.936   8.823   1.290
23821WAT     H271706   2.878   8.881   1.432
23822WAT      O71707   3.504   7.584   5.383
23822WAT     H171708   3.587   7.640   5.389
23822WAT     H271709   3.475   7.557   5.474
23823WAT      O71710   9.610   2.944   9.106
23823WAT     H171711   9.589   2.980   9.015
23823WAT     H271712   9.707   2.956   9.125
23824WAT      O71713   5.042   8.937   0.309
23824WAT     H171714   5.018   8.939   0.406
23824WAT     H271715   5.044   8.842   0.277
23825WAT      O71716   9.509   9.238   1.208
23825WAT     H171717   9.505   9.306   1.281
23825WAT     H271718   9.556   9.276   1.129
23826WAT      O71719   7.372   2.900   1.523
23826WAT     H171720   7.429   2.924   1.601
23826WAT     H271721   7.396   2.958   1.445
23827WAT      O71722   6.864   6.067   4.803
23827WAT     H171723   6.872   5.980   4.852
23827WAT     H271724   6.768   6.095   4.801
23828WAT      O71725   6.999   4.519   2.752
23828WAT     H171726   6.908   4.543   2.787
23828WAT     H271727   6.992   4.491   2.657
23829WAT      O71728   2.643   5.351   7.826
23829WAT     H171729   2.739   5.347   7.853
23829WAT     H271730   2.598   5.425   7.875
23830WAT      O71731   3.801   5.695   6.991
23830WAT     H171732   3.811   5.599   6.965
23830WAT     H271733   3.709   5.710   7.027
23831WAT      O71734   1.938   5.781   7.120
23831WAT     H171735   1.982   5.692   7.129
23831WAT     H271736   2.002   5.846   7.078
23832WAT      O71737   4.089   4.929   9.419
23832WAT     H171738   4.034   4.854   9.381
23832WAT     H271739   4.143   4.894   9.496
23833WAT      O71740   5.474   5.712   6.638
23833WAT     H171741   5.472   5.734   6.736
23833WAT     H271742   5.564   5.676   6.615
23834WAT      O71743   3.827   3.756   4.203
23834WAT     H171744   3.767   3.757   4.283
23834WAT     H271745   3.892   3.832   4.208
23835WAT      O71746   3.984   9.571   8.112
23835WAT     H171747   4.074   9.549   8.075
23835WAT     H271748   3.991   9.589   8.210
23836WAT      O71749   8.170   2.182   2.570
23836WAT     H171750   8.251   2.224   2.613
23836WAT     H271751   8.090   2.200   2.626
23837WAT      O71752   0.593   5.320   8.721
23837WAT     H171753   0.588   5.245   8.788
23837WAT     H271754   0.504   5.365   8.716
23838WAT      O71755   2.974   1.818   8.133
23838WAT     H171756   3.024   1.842   8.050
23838WAT     H271757   2.930   1.729   8.121
23839WAT      O71758   8.429   1.410   9.882
23839WAT     H171759   8.368   1.369   9.814
23839WAT     H271760   8.494   1.342   9.915
23840WAT      O71761   6.417   5.664   0.639
23840WAT     H171762   6.329   5.700   0.670
23840WAT     H271763   6.478   5.740   0.615
23841WAT      O71764   4.117   2.685   1.961
23841WAT     H171765   4.047   2.688   1.889
23841WAT     H271766   4.131   2.590   1.989
23842WAT      O71767   6.528   8.786   5.794
23842WAT     H171768   6.600   8.842   5.834
23842WAT     H271769   6.559   8.691   5.790
23843WAT      O71770   9.306   7.909   1.562
23843WAT     H171771   9.248   7.859   1.627
23843WAT     H271772   9.316   8.004   1.592
23844WAT      O71773   8.543   8.437   7.175
23844WAT     H171774   8.476   8.438   7.249
23844WAT     H271775   8.609   8.363   7.191
23845WAT      O71776   2.096   7.269   2.677
23845WAT     H171777   2.028   7.202   2.706
23845WAT     H271778   2.092   7.280   2.577
23846WAT      O71779   7.802   4.212   0.162
23846WAT     H171780   7.741   4.138   0.191
23846WAT     H271781   7.807   4.214   0.062
23847WAT      O71782   4.822   1.995   7.115
23847WAT     H171783   4.806   2.094   7.112
23847WAT     H271784   4.831   1.966   7.210
23848WAT      O71785   9.854   8.698   5.886
23848WAT     H171786   9.874   8.600   5.894
23848WAT     H271787   9.767   8.710   5.837
23849WAT      O71788   1.723   8.663   7.827
23849WAT     H171789   1.749   8.643   7.732
23849WAT     H271790   1.647   8.604   7.853
23850WAT      O71791   0.862   6.033   2.104
23850WAT     H171792   0.852   6.096   2.181
23850WAT     H271793   0.771   6.005   2.073
23851WAT      O71794   1.806   3.865   3.374
23851WAT     H171795   1.748   3.795   3.333
23851WAT     H271796   1.749   3.928   3.427
23852WAT      O71797   4.863   1.658   6.870
23852WAT     H171798   4.787   1.594   6.855
23852WAT     H271799   4.932   1.615   6.929
23853WAT      O71800   9.684   5.553   0.322
23853WAT     H171801   9.753   5.575   0.391
23853WAT     H271802   9.715   5.585   0.233
23854WAT      O71803   2.120   2.750   2.181
23854WAT     H171804   2.200   2.718   2.231
23854WAT     H271805   2.039   2.701   2.212
23855WAT      O71806   1.245   5.747   0.214
23855WAT     H171807   1.202   5.659   0.190
23855WAT     H271808   1.189   5.794   0.282
23856WAT      O71809   2.831   8.961   2.741
23856WAT     H171810   2.737   8.957   2.775
23856WAT     H271811   2.866   9.054   2.747
23857WAT      O71812   2.081   3.172   4.230
23857WAT     H171813   1.988   3.194   4.260
23857WAT     H271814   2.132   3.133   4.306
23858WAT      O71815   0.736   1.271   6.439
23858WAT     H171816   0.691   1.200   6.386
23858WAT     H271817   0.835   1.253   6.442
23859WAT      O71818   1.801   1.973   5.897
23859WAT     H171819   1.726   1.995   5.960
23859WAT     H271820   1.888   1.975   5.946
23860WAT      O71821   1.944   7.872   9.192
23860WAT     H171822   1.902   7.954   9.231
23860WAT     H271823   1.884   7.793   9.208
23861WAT      O71824   0.083   9.498   4.635
23861WAT     H171825   0.007   9.506   4.700
23861WAT     H271826   0.046   9.478   4.544
23862WAT      O71827   8.774   0.077   9.048
23862WAT     H171828   8.841   0.010   9.015
23862WAT     H271829   8.812   0.126   9.126
23863WAT      O71830   2.040   1.621   3.136
23863WAT     H171831   1.987   1.706   3.133
23863WAT     H271832   2.051   1.592   3.231
23864WAT      O71833   6.623   3.767   0.053
23864WAT     H171834   6.683   3.825  -0.002
23864WAT     H271835   6.545   3.821   0.086
23865WAT      O71836   8.178   7.060   6.073
23865WAT     H171837   8.183   7.007   6.158
23865WAT     H271838   8.229   7.013   6.001
23866WAT      O71839   1.291   6.763   3.956
23866WAT     H171840   1.242   6.845   3.928
23866WAT     H271841   1.279   6.691   3.888
23867WAT      O71842   4.577   3.306   3.661
23867WAT     H171843   4.585   3.292   3.759
23867WAT     H271844   4.558   3.219   3.616
23868WAT      O71845   2.630   2.413   0.965
23868WAT     H171846   2.615   2.321   1.003
23868WAT     H271847   2.657   2.475   1.039
23869WAT      O71848   1.212   5.632   8.268
23869WAT     H171849   1.262   5.590   8.343
23869WAT     H271850   1.275   5.685   8.211
23870WAT      O71851   6.595   2.224   5.123
23870WAT     H171852   6.592   2.261   5.030
23870WAT     H271853   6.554   2.290   5.187
23871WAT      O71854   1.277   9.314   8.111
23871WAT     H171855   1.374   9.333   8.125
23871WAT     H271856   1.244   9.364   8.031
23872WAT      O71857   5.000   2.768   7.381
23872WAT     H171858   5.076   2.832   7.387
23872WAT     H271859   4.916   2.817   7.356
23873WAT      O71860   3.349   9.112   3.992
23873WAT     H171861   3.287   9.062   4.052
23873WAT     H271862   3.417   9.160   4.048
23874WAT      O71863   3.504   5.812   9.069
23874WAT     H171864   3.530   5.773   8.980
23874WAT     H271865   3.482   5.738   9.132
23875WAT      O71866   4.409   2.944   1.582
23875WAT     H171867   4.504   2.940   1.551
23875WAT     H271868   4.378   2.852   1.607
23876WAT      O71869   2.893   1.200   2.274
23876WAT     H171870   2.991   1.183   2.284
23876WAT     H271871   2.850   1.205   2.364
23877WAT      O71872   8.776   8.991   1.325
23877WAT     H171873   8.699   9.016   1.266
23877WAT     H271874   8.778   8.892   1.338
23878WAT      O71875   6.452   4.012   4.960
23878WAT     H171876   6.407   4.016   4.871
23878WAT     H271877   6.397   3.958   5.023
23879WAT      O71878   3.155   9.206   1.500
23879WAT     H171879   3.095   9.170   1.428
23879WAT     H271880   3.128   9.299   1.524
23880WAT      O71881   5.493   7.951   2.168
23880WAT     H171882   5.428   7.946   2.244
23880WAT     H271883   5.465   8.024   2.105
23881WAT      O71884   1.020   5.849   9.632
23881WAT     H171885   1.046   5.798   9.551
23881WAT     H271886   0.969   5.931   9.605
23882WAT      O71887   7.306   3.901   7.972
23882WAT     H171888   7.234   3.864   8.030
23882WAT     H271889   7.269   3.921   7.882
23883WAT      O71890   3.397   0.603   4.950
23883WAT     H171891   3.454   0.628   5.028
23883WAT     H271892   3.421   0.511   4.919
23884WAT      O71893   1.023   0.727   0.377
23884WAT     H171894   0.943   0.708   0.320
23884WAT     H271895   1.040   0.650   0.438
23885WAT      O71896   0.359   6.017   3.150
23885WAT     H171897   0.432   5.969   3.104
23885WAT     H271898   0.271   5.976   3.125
23886WAT      O71899   6.614   3.424   8.032
23886WAT     H171900   6.679   3.500   8.029
23886WAT     H271901   6.646   3.351   7.972
23887WAT      O71902   1.377   2.243   8.507
23887WAT     H171903   1.327   2.300   8.572
23887WAT     H271904   1.320   2.225   8.427
23888WAT      O71905   2.723   2.430   6.827
23888WAT     H171906   2.647   2.399   6.885
23888WAT     H271907   2.687   2.471   6.743
23889WAT      O71908   6.825   3.258   9.058
23889WAT     H171909   6.823   3.318   8.979
23889WAT     H271910   6.907   3.200   9.054
23890WAT      O71911   8.284   4.534   0.342
23890WAT     H171912   8.239   4.497   0.261
23890WAT     H271913   8.364   4.478   0.365
23891WAT      O71914   2.396   7.267   9.594
23891WAT     H171915   2.428   7.352   9.553
23891WAT     H271916   2.459   7.239   9.667
23892WAT      O71917   9.423   2.569   2.601
23892WAT     H171918   9.481   2.647   2.623
23892WAT     H271919   9.415   2.509   2.680
23893WAT      O71920   0.787   1.649   8.218
23893WAT     H171921   0.773   1.646   8.119
23893WAT     H271922   0.774   1.742   8.251
23894WAT      O71923   0.223   3.485   8.454
23894WAT     H171924   0.268   3.425   8.520
23894WAT     H271925   0.291   3.546   8.413
23895WAT      O71926   0.326   2.073   1.042
23895WAT     H171927   0.290   2.092   0.951
23895WAT     H271928   0.322   2.156   1.098
23896WAT      O71929   9.417   5.208   2.976
23896WAT     H171930   9.440   5.265   3.055
23896WAT     H271931   9.332   5.159   2.994
23897WAT      O71932   4.979   7.887   5.991
23897WAT     H171933   5.049   7.817   5.978
23897WAT     H271934   5.016   7.977   5.967
23898WAT      O71935   3.826   2.740   3.406
23898WAT     H171936   3.811   2.751   3.307
23898WAT     H271937   3.825   2.830   3.449
23899WAT      O71938   1.905   6.735   9.315
23899WAT     H171939   1.868   6.698   9.230
23899WAT     H271940   1.854   6.697   9.393
23900WAT      O71941   1.767   8.318   7.972
23900WAT     H171942   1.859   8.357   7.979
23900WAT     H271943   1.741   8.310   7.876
23901WAT      O71944   4.344   4.328   6.845
23901WAT     H171945   4.245   4.344   6.852
23901WAT     H271946   4.364   4.284   6.757
23902WAT      O71947   2.887   1.363   4.877
23902WAT     H171948   2.851   1.448   4.915
23902WAT     H271949   2.986   1.359   4.890
23903WAT      O71950   1.001   7.363   8.561
23903WAT     H171951   1.006   7.461   8.579
23903WAT     H271952   0.910   7.340   8.527
23904WAT      O71953   5.394   6.847   9.075
23904WAT     H171954   5.302   6.815   9.050
23904WAT     H271955   5.429   6.791   9.149
23905WAT      O71956   1.670   1.054   8.876
23905WAT     H171957   1.684   1.094   8.967
23905WAT     H271958   1.754   1.010   8.846
23906WAT      O71959   5.118   2.166   7.435
23906WAT     H171960   5.067   2.140   7.353
23906WAT     H271961   5.121   2.089   7.498
23907WAT      O71962   4.099   4.512   9.084
23907WAT     H171963   4.098   4.603   9.127
23907WAT     H271964   4.010   4.468   9.098
23908WAT      O71965   0.077   5.484   0.717
23908WAT     H171966   0.094   5.415   0.646
23908WAT     H271967   0.015   5.553   0.683
23909WAT      O71968   4.776   0.852   5.365
23909WAT     H171969   4.826   0.794   5.428
23909WAT     H271970   4.799   0.826   5.271
23910WAT      O71971   0.541   5.590   9.182
23910WAT     H171972   0.453   5.544   9.193
23910WAT     H271973   0.526   5.689   9.177
23911WAT      O71974   9.191   9.423   2.733
23911WAT     H171975   9.273   9.416   2.790
23911WAT     H271976   9.205   9.372   2.648
23912WAT      O71977   2.678   6.815   9.431
23912WAT     H171978   2.768   6.772   9.435
23912WAT     H271979   2.617   6.772   9.498
23913WAT      O71980   0.468   7.269   7.747
23913WAT     H171981   0.526   7.307   7.819
23913WAT     H271982   0.403   7.340   7.717
23914WAT      O71983   9.730   6.173   2.281
23914WAT     H171984   9.717   6.271   2.267
23914WAT     H271985   9.658   6.138   2.342
23915WAT      O71986   0.276   3.228   8.647
23915WAT     H171987   0.313   3.198   8.734
23915WAT     H271988   0.176   3.229   8.652
23916WAT      O71989   5.009   9.757   2.685
23916WAT     H171990   4.946   9.830   2.660
23916WAT     H271991   4.963   9.695   2.749
23917WAT      O71992   5.821   2.601   5.413
23917WAT     H171993   5.865   2.540   5.347
23917WAT     H271994   5.738   2.558   5.447
23918WAT      O71995   5.415   5.444   6.625
23918WAT     H171996   5.442   5.541   6.618
23918WAT     H271997   5.357   5.420   6.547
23919WAT      O71998   4.855   5.226   1.264
23919WAT     H171999   4.954   5.215   1.265
23919WAT     H272000   4.812   5.143   1.229
23920WAT      O72001   7.875   6.119   4.000
23920WAT     H172002   7.875   6.175   4.082
23920WAT     H272003   7.965   6.124   3.956
23921WAT      O72004   7.912   2.416   6.967
23921WAT     H172005   7.879   2.365   7.047
23921WAT     H272006   7.840   2.476   6.934
23922WAT      O72007   7.353   9.488   2.211
23922WAT     H172008   7.334   9.585   2.225
23922WAT     H272009   7.401   9.476   2.124
23923WAT      O72010   8.792   5.069   0.415
23923WAT     H172011   8.788   5.117   0.503
23923WAT     H272012   8.703   5.075   0.370
23924WAT      O72013   8.207   7.346   3.824
23924WAT     H172014   8.220   7.247   3.834
23924WAT     H272015   8.283   7.394   3.869
23925WAT      O72016   9.191   7.026   2.542
23925WAT     H172017   9.206   6.980   2.629
23925WAT     H272018   9.208   6.963   2.467
23926WAT      O72019   8.823   3.999   3.657
23926WAT     H172020   8.832   4.001   3.558
23926WAT     H272021   8.898   4.050   3.699
23927WAT      O72022   4.447   6.768   2.409
23927WAT     H172023   4.506   6.813   2.342
23927WAT     H272024   4.472   6.799   2.501
23928WAT      O72025   6.683   0.399   1.094
23928WAT     H172026   6.740   0.433   1.019
23928WAT     H272027   6.628   0.322   1.061
23929WAT      O72028   4.600   7.326   5.023
23929WAT     H172029   4.584   7.364   5.114
23929WAT     H272030   4.600   7.226   5.029
23930WAT      O72031   2.508   2.720   6.894
23930WAT     H172032   2.523   2.760   6.984
23930WAT     H272033   2.467   2.630   6.904
23931WAT      O72034   4.619   9.151   8.585
23931WAT     H172035   4.615   9.232   8.526
23931WAT     H272036   4.532   9.141   8.634
23932WAT      O72037   8.739   8.879   6.934
23932WAT     H172038   8.697   8.800   6.890
23932WAT     H272039   8.675   8.919   7.000
23933WAT      O72040   5.059   9.101   1.361
23933WAT     H172041   5.010   9.031   1.412
23933WAT     H272042   5.001   9.135   1.287
23934WAT      O72043   2.789   3.282   0.244
23934WAT     H172044   2.789   3.185   0.221
23934WAT     H272045   2.729   3.331   0.181
23935WAT      O72046   0.332   8.172   2.036
23935WAT     H172047   0.311   8.078   2.008
23935WAT     H272048   0.283   8.193   2.120
23936WAT      O72049   1.275   5.349   0.952
23936WAT     H172050   1.206   5.405   0.998
23936WAT     H272051   1.361   5.354   1.002
23937WAT      O72052   4.576   2.098   8.008
23937WAT     H172053   4.659   2.138   8.046
23937WAT     H272054   4.562   2.006   8.046
23938WAT      O72055   5.658   9.700   3.213
23938WAT     H172056   5.707   9.619   3.183
23938WAT     H272057   5.671   9.713   3.311
23939WAT      O72058   7.457   3.030   8.672
23939WAT     H172059   7.487   2.944   8.632
23939WAT     H272060   7.358   3.040   8.659
23940WAT      O72061   7.232   7.986   6.923
23940WAT     H172062   7.174   7.909   6.947
23940WAT     H272063   7.199   8.069   6.969
23941WAT      O72064   9.262   9.843   2.965
23941WAT     H172065   9.283   9.825   2.869
23941WAT     H272066   9.165   9.827   2.981
23942WAT      O72067   4.941   8.644   6.354
23942WAT     H172068   4.967   8.561   6.304
23942WAT     H272069   4.897   8.619   6.440
23943WAT      O72070   6.177   3.894   4.490
23943WAT     H172071   6.266   3.899   4.445
23943WAT     H272072   6.138   3.986   4.497
23944WAT      O72073   3.037   2.798   4.791
23944WAT     H172074   2.961   2.737   4.815
23944WAT     H272075   3.018   2.842   4.703
23945WAT      O72076   7.496   3.141   7.124
23945WAT     H172077   7.593   3.162   7.129
23945WAT     H272078   7.455   3.192   7.048
23946WAT      O72079   0.298   4.117   5.573
23946WAT     H172080   0.330   4.106   5.667
23946WAT     H272081   0.213   4.170   5.573
23947WAT      O72082   7.549   5.315   5.349
23947WAT     H172083   7.649   5.316   5.355
23947WAT     H272084   7.522   5.313   5.253
23948WAT      O72085   6.619   4.981   4.707
23948WAT     H172086   6.604   5.048   4.780
23948WAT     H272087   6.703   4.930   4.725
23949WAT      O72088   9.684   2.385   5.651
23949WAT     H172089   9.608   2.325   5.624
23949WAT     H272090   9.716   2.358   5.742
23950WAT      O72091   5.465   2.697   3.778
23950WAT     H172092   5.401   2.677   3.852
23950WAT     H272093   5.544   2.637   3.785
23951WAT      O72094   9.065   7.128   0.405
23951WAT     H172095   9.136   7.106   0.337
23951WAT     H272096   8.977   7.138   0.359
23952WAT      O72097   3.147   0.294   7.346
23952WAT     H172098   3.077   0.274   7.277
23952WAT     H272099   3.104   0.304   7.435
23953WAT      O72100   2.011   4.882   5.140
23953WAT     H172101   1.936   4.893   5.205
23953WAT     H272102   1.988   4.810   5.074
23954WAT      O72103   3.683   0.807   8.494
23954WAT     H172104   3.718   0.882   8.438
23954WAT     H272105   3.751   0.782   8.562
23955WAT      O72106   5.582   0.182   8.450
23955WAT     H172107   5.663   0.129   8.477
23955WAT     H272108   5.500   0.132   8.476
23956WAT      O72109   6.109   2.557   5.783
23956WAT     H172110   6.205   2.583   5.779
23956WAT     H272111   6.068   2.594   5.867
23957WAT      O72112   8.023   4.982   6.514
23957WAT     H172113   8.065   5.073   6.506
23957WAT     H272114   7.924   4.991   6.514
23958WAT      O72115   2.084   5.943   4.830
23958WAT     H172116   2.107   5.909   4.739
23958WAT     H272117   2.162   5.994   4.867
23959WAT      O72118   4.199   2.445   4.054
23959WAT     H172119   4.269   2.469   3.988
23959WAT     H272120   4.224   2.478   4.145
23960WAT      O72121   7.005   4.380   6.656
23960WAT     H172122   7.047   4.322   6.725
23960WAT     H272123   7.052   4.469   6.654
23961WAT      O72124   3.269   9.074   7.453
23961WAT     H172125   3.320   9.157   7.475
23961WAT     H272126   3.320   8.994   7.485
23962WAT      O72127   3.352   1.249   5.556
23962WAT     H172128   3.363   1.222   5.461
23962WAT     H272129   3.442   1.268   5.596
23963WAT      O72130   6.265   8.804   5.308
23963WAT     H172131   6.334   8.846   5.367
23963WAT     H272132   6.266   8.705   5.322
23964WAT      O72133   1.361   3.942   3.330
23964WAT     H172134   1.309   4.027   3.336
23964WAT     H272135   1.412   3.939   3.244
23965WAT      O72136   6.800   7.590   3.471
23965WAT     H172137   6.807   7.643   3.555
23965WAT     H272138   6.756   7.645   3.400
23966WAT      O72139   8.184   9.592   7.882
23966WAT     H172140   8.107   9.645   7.920
23966WAT     H272141   8.175   9.497   7.910
23967WAT      O72142   2.846   2.671   0.554
23967WAT     H172143   2.881   2.591   0.505
23967WAT     H272144   2.899   2.683   0.638
23968WAT      O72145   7.073   7.243   4.410
23968WAT     H172146   7.109   7.160   4.455
23968WAT     H272147   6.997   7.279   4.464
23969WAT      O72148   6.455   1.133   9.407
23969WAT     H172149   6.425   1.142   9.312
23969WAT     H272150   6.431   1.042   9.441
23970WAT      O72151   1.864   1.143   0.390
23970WAT     H172152   1.887   1.051   0.419
23970WAT     H272153   1.843   1.144   0.293
23971WAT      O72154   2.897   5.402   8.617
23971WAT     H172155   2.818   5.399   8.555
23971WAT     H272156   2.977   5.366   8.569
23972WAT      O72157   9.645   3.343   8.635
23972WAT     H172158   9.570   3.384   8.582
23972WAT     H272159   9.647   3.384   8.726
23973WAT      O72160   0.317   2.929   0.031
23973WAT     H172161   0.277   2.884   0.111
23973WAT     H272162   0.374   2.863  -0.018
23974WAT      O72163   6.028   6.212   8.805
23974WAT     H172164   6.090   6.145   8.845
23974WAT     H272165   6.064   6.241   8.716
23975WAT      O72166   4.244   8.388   4.670
23975WAT     H172167   4.280   8.298   4.649
23975WAT     H272168   4.232   8.440   4.585
23976WAT      O72169   2.375   1.019   5.867
23976WAT     H172170   2.416   0.933   5.835
23976WAT     H272171   2.351   1.010   5.963
23977WAT      O72172   2.524   4.953   6.580
23977WAT     H172173   2.557   4.944   6.486
23977WAT     H272174   2.592   5.002   6.634
23978WAT      O72175   7.944   2.324   1.052
23978WAT     H172176   8.024   2.365   1.007
23978WAT     H272177   7.951   2.338   1.151
23979WAT      O72178   6.772   1.082   7.758
23979WAT     H172179   6.828   1.006   7.723
23979WAT     H272180   6.747   1.142   7.683
23980WAT      O72181   4.400   3.666   1.956
23980WAT     H172182   4.460   3.736   1.996
23980WAT     H272183   4.427   3.650   1.861
23981WAT      O72184   3.589   6.434   6.491
23981WAT     H172185   3.671   6.491   6.496
23981WAT     H272186   3.544   6.432   6.580
23982WAT      O72187   2.989   8.067   7.642
23982WAT     H172188   2.921   8.046   7.712
23982WAT     H272189   3.029   7.982   7.607
23983WAT      O72190   0.673   0.688   5.586
23983WAT     H172191   0.749   0.747   5.559
23983WAT     H272192   0.613   0.672   5.508
23984WAT      O72193   3.324   9.589   4.071
23984WAT     H172194   3.384   9.584   4.151
23984WAT     H272195   3.250   9.654   4.090
23985WAT      O72196   7.911   5.077   8.342
23985WAT     H172197   7.838   5.144   8.357
23985WAT     H272198   7.892   5.024   8.260
23986WAT      O72199   1.537   8.599   5.713
23986WAT     H172200   1.637   8.603   5.706
23986WAT     H272201   1.508   8.650   5.793
23987WAT      O72202   3.682   2.515   2.263
23987WAT     H172203   3.739   2.572   2.323
23987WAT     H272204   3.724   2.426   2.252
23988WAT      O72205   0.527   1.031   4.381
23988WAT     H172206   0.483   0.958   4.329
23988WAT     H272207   0.626   1.026   4.367
23989WAT      O72208   9.746   4.790   2.206
23989WAT     H172209   9.842   4.780   2.182
23989WAT     H272210   9.689   4.777   2.125
23990WAT      O72211   3.380   3.513   0.857
23990WAT     H172212   3.298   3.469   0.820
23990WAT     H272213   3.411   3.584   0.794
23991WAT      O72214   5.139   0.566   8.820
23991WAT     H172215   5.212   0.555   8.753
23991WAT     H272216   5.054   0.527   8.783
23992WAT      O72217   7.034   2.618   6.864
23992WAT     H172218   7.035   2.543   6.798
23992WAT     H272219   7.006   2.703   6.819
23993WAT      O72220   1.086   8.665   8.756
23993WAT     H172221   1.095   8.573   8.718
23993WAT     H272222   0.997   8.675   8.800
23994WAT      O72223   3.163   7.468   2.594
23994WAT     H172224   3.223   7.409   2.539
23994WAT     H272225   3.215   7.545   2.630
23995WAT      O72226   0.058   5.629   5.668
23995WAT     H172227   0.012   5.542   5.685
23995WAT     H272228  -0.005   5.693   5.625
23996WAT      O72229   5.125   7.678   7.595
23996WAT     H172230   5.203   7.690   7.533
23996WAT     H272231   5.074   7.596   7.569
23997WAT      O72232   9.685   8.283   2.144
23997WAT     H172233   9.593   8.247   2.160
23997WAT     H272234   9.752   8.223   2.188
23998WAT      O72235   2.497   8.267   7.691
23998WAT     H172236   2.480   8.359   7.655
23998WAT     H272237   2.415   8.233   7.737
23999WAT      O72238   9.697   3.613   6.406
23999WAT     H172239   9.741   3.685   6.353
23999WAT     H272240   9.681   3.645   6.500
24000WAT      O72241   9.272   7.260   8.290
24000WAT     H172242   9.343   7.290   8.354
24000WAT     H272243   9.248   7.336   8.229
24001WAT      O72244   6.147   3.810   7.414
24001WAT     H172245   6.062   3.806   7.360
24001WAT     H272246   6.217   3.755   7.369
24002WAT      O72247   7.923   4.792   5.849
24002WAT     H172248   7.863   4.741   5.911
24002WAT     H272249   7.901   4.768   5.754
24003WAT      O72250   3.467   7.243   3.268
24003WAT     H172251   3.529   7.321   3.267
24003WAT     H272252   3.373   7.275   3.281
24004WAT      O72253   1.117   4.299   0.896
24004WAT     H172254   1.215   4.279   0.886
24004WAT     H272255   1.090   4.291   0.992
24005WAT      O72256   7.103   0.617   5.332
24005WAT     H172257   7.084   0.713   5.310
24005WAT     H272258   7.147   0.574   5.253
24006WAT      O72259   5.107   3.005   4.181
24006WAT     H172260   5.022   3.037   4.137
24006WAT     H272261   5.088   2.979   4.275
24007WAT      O72262   2.605   6.754   7.087
24007WAT     H172263   2.517   6.773   7.132
24007WAT     H272264   2.668   6.830   7.105
24008WAT      O72265   6.327   2.271   5.415
24008WAT     H172266   6.288   2.341   5.356
24008WAT     H272267   6.401   2.224   5.367
24009WAT      O72268   7.748   2.192   7.960
24009WAT     H172269   7.727   2.237   8.047
24009WAT     H272270   7.683   2.223   7.891
24010WAT      O72271   5.832   6.780   5.288
24010WAT     H172272   5.773   6.727   5.227
24010WAT     H272273   5.852   6.869   5.246
24011WAT      O72274   4.931   8.060   4.449
24011WAT     H172275   4.986   8.014   4.519
24011WAT     H272276   4.984   8.065   4.364
24012WAT      O72277   6.511   5.648   9.392
24012WAT     H172278   6.559   5.561   9.380
24012WAT     H272279   6.576   5.718   9.417
24013WAT      O72280   8.256   4.736   8.669
24013WAT     H172281   8.159   4.725   8.687
24013WAT     H272282   8.274   4.721   8.572
24014WAT      O72283   5.410   8.952   0.308
24014WAT     H172284   5.334   8.975   0.368
24014WAT     H272285   5.467   9.033   0.295
24015WAT      O72286   6.138   0.135   8.205
24015WAT     H172287   6.155   0.125   8.106
24015WAT     H272288   6.182   0.059   8.253
24016WAT      O72289   1.507   2.353   4.256
24016WAT     H172290   1.502   2.387   4.162
24016WAT     H272291   1.542   2.260   4.256
24017WAT      O72292   6.135   2.425   3.207
24017WAT     H172293   6.075   2.468   3.139
24017WAT     H272294   6.213   2.484   3.225
24018WAT      O72295   1.311   0.309   2.001
24018WAT     H172296   1.311   0.408   2.018
24018WAT     H272297   1.393   0.284   1.950
24019WAT      O72298   8.906   9.601   9.173
24019WAT     H172299   8.833   9.581   9.108
24019WAT     H272300   8.875   9.671   9.237
24020WAT      O72301   7.740   6.358   5.968
24020WAT     H172302   7.805   6.427   5.938
24020WAT     H272303   7.681   6.332   5.891
24021WAT      O72304   4.663   7.915   8.644
24021WAT     H172305   4.738   7.972   8.613
24021WAT     H272306   4.600   7.898   8.567
24022WAT      O72307   8.018   4.528   3.815
24022WAT     H172308   8.098   4.523   3.755
24022WAT     H272309   8.037   4.478   3.900
24023WAT      O72310   0.928   8.301   9.503
24023WAT     H172311   0.896   8.383   9.457
24023WAT     H272312   1.023   8.314   9.531
24024WAT      O72313   8.007   1.937   9.244
24024WAT     H172314   7.909   1.922   9.256
24024WAT     H272315   8.022   2.026   9.200
24025WAT      O72316   1.212   8.723   4.353
24025WAT     H172317   1.249   8.759   4.439
24025WAT     H272318   1.266   8.757   4.277
24026WAT      O72319   1.397   2.568   7.396
24026WAT     H172320   1.485   2.535   7.362
24026WAT     H272321   1.403   2.580   7.495
24027WAT      O72322   2.473   2.162   0.045
24027WAT     H172323   2.385   2.120   0.063
24027WAT     H272324   2.466   2.223  -0.034
24028WAT      O72325   6.673   1.461   8.894
24028WAT     H172326   6.706   1.552   8.922
24028WAT     H272327   6.726   1.430   8.816
24029WAT      O72328   8.223   7.374   9.170
24029WAT     H172329   8.319   7.354   9.190
24029WAT     H272330   8.169   7.363   9.253
24030WAT      O72331   7.697   2.693   4.862
24030WAT     H172332   7.692   2.792   4.880
24030WAT     H272333   7.618   2.649   4.904
24031WAT      O72334   4.492   7.831   7.289
24031WAT     H172335   4.541   7.895   7.347
24031WAT     H272336   4.519   7.737   7.312
24032WAT      O72337   0.606   9.304   3.476
24032WAT     H172338   0.681   9.240   3.490
24032WAT     H272339   0.614   9.346   3.385
24033WAT      O72340   7.383   1.608   9.535
24033WAT     H172341   7.409   1.554   9.615
24033WAT     H272342   7.362   1.547   9.459
24034WAT      O72343   0.777   1.633   7.950
24034WAT     H172344   0.818   1.643   7.859
24034WAT     H272345   0.695   1.576   7.943
24035WAT      O72346   2.118   6.548   2.961
24035WAT     H172347   2.209   6.539   3.003
24035WAT     H272348   2.129   6.563   2.863
24036WAT      O72349   0.353   3.387   1.913
24036WAT     H172350   0.398   3.366   1.826
24036WAT     H272351   0.422   3.409   1.982
24037WAT      O72352   7.663   0.279   3.585
24037WAT     H172353   7.645   0.281   3.487
24037WAT     H272354   7.708   0.364   3.613
24038WAT      O72355   2.157   1.175   2.082
24038WAT     H172356   2.254   1.164   2.058
24038WAT     H272357   2.100   1.130   2.013
24039WAT      O72358   5.000   0.755   7.099
24039WAT     H172359   4.985   0.711   7.187
24039WAT     H272360   5.045   0.690   7.037
24040WAT      O72361   3.314   5.867   9.335
24040WAT     H172362   3.370   5.850   9.416
24040WAT     H272363   3.310   5.784   9.279
24041WAT      O72364   2.141   6.328   3.742
24041WAT     H172365   2.155   6.255   3.809
24041WAT     H272366   2.048   6.365   3.753
24042WAT      O72367   5.426   6.556   9.427
24042WAT     H172368   5.442   6.529   9.522
24042WAT     H272369   5.353   6.624   9.423
24043WAT      O72370   4.803   2.585   6.274
24043WAT     H172371   4.890   2.539   6.295
24043WAT     H272372   4.782   2.652   6.345
24044WAT      O72373   0.897   8.346   2.776
24044WAT     H172374   0.931   8.259   2.741
24044WAT     H272375   0.897   8.414   2.703
24045WAT      O72376   2.449   6.242   7.513
24045WAT     H172377   2.438   6.301   7.593
24045WAT     H272378   2.440   6.146   7.540
24046WAT      O72379   7.690   6.539   1.084
24046WAT     H172380   7.682   6.476   1.161
24046WAT     H272381   7.751   6.615   1.109
24047WAT      O72382   0.772   4.946   7.998
24047WAT     H172383   0.731   5.005   7.928
24047WAT     H272384   0.784   4.998   8.083
24048WAT      O72385   6.845   3.204   7.873
24048WAT     H172386   6.882   3.229   7.783
24048WAT     H272387   6.745   3.200   7.868
24049WAT      O72388   6.271   9.530   6.977
24049WAT     H172389   6.253   9.570   6.887
24049WAT     H272390   6.197   9.555   7.040
24050WAT      O72391   9.620   4.300   1.781
24050WAT     H172392   9.616   4.203   1.758
24050WAT     H272393   9.580   4.353   1.706
24051WAT      O72394   6.254   0.495   2.843
24051WAT     H172395   6.284   0.427   2.777
24051WAT     H272396   6.157   0.483   2.863
24052WAT      O72397   6.265   6.474   8.121
24052WAT     H172398   6.167   6.482   8.139
24052WAT     H272399   6.314   6.549   8.167
24053WAT      O72400   9.185   5.555   7.360
24053WAT     H172401   9.109   5.620   7.362
24053WAT     H272402   9.160   5.474   7.414
24054WAT      O72403   4.135   3.661   4.270
24054WAT     H172404   4.102   3.697   4.358
24054WAT     H272405   4.099   3.569   4.256
24055WAT      O72406   0.988   3.028   5.581
24055WAT     H172407   0.964   2.945   5.633
24055WAT     H272408   0.924   3.101   5.605
24056WAT      O72409   5.019   3.294   4.396
24056WAT     H172410   4.990   3.388   4.415
24056WAT     H272411   4.944   3.232   4.418
24057WAT      O72412   4.249   2.121   3.725
24057WAT     H172413   4.231   2.129   3.823
24057WAT     H272414   4.310   2.195   3.697
24058WAT      O72415   0.707   2.870   1.995
24058WAT     H172416   0.790   2.898   2.044
24058WAT     H272417   0.725   2.786   1.945
24059WAT      O72418   7.931   3.525   2.557
24059WAT     H172419   7.992   3.604   2.565
24059WAT     H272420   7.836   3.556   2.564
24060WAT      O72421   2.792   6.612   3.773
24060WAT     H172422   2.709   6.586   3.725
24060WAT     H272423   2.870   6.562   3.735
24061WAT      O72424   9.642   0.633   6.997
24061WAT     H172425   9.697   0.634   6.914
24061WAT     H272426   9.676   0.703   7.060
24062WAT      O72427   2.523   3.097   6.517
24062WAT     H172428   2.450   3.153   6.480
24062WAT     H272429   2.485   3.033   6.585
24063WAT      O72430   1.940   3.503   1.373
24063WAT     H172431   1.842   3.484   1.364
24063WAT     H272432   1.989   3.463   1.295
24064WAT      O72433   5.033   4.494   3.852
24064WAT     H172434   5.075   4.535   3.771
24064WAT     H272435   4.955   4.550   3.880
24065WAT      O72436   4.004   0.642   3.805
24065WAT     H172437   3.918   0.652   3.856
24065WAT     H272438   4.042   0.551   3.824
24066WAT      O72439   9.280   1.695   6.927
24066WAT     H172440   9.373   1.723   6.905
24066WAT     H272441   9.279   1.647   7.015
24067WAT      O72442   0.042   2.536   5.758
24067WAT     H172443  -0.001   2.606   5.815
24067WAT     H272444  -0.026   2.498   5.696
24068WAT      O72445   3.729   3.698   8.454
24068WAT     H172446   3.779   3.763   8.512
24068WAT     H272447   3.739   3.725   8.358
24069WAT      O72448   5.059   1.955   6.398
24069WAT     H172449   4.973   1.941   6.447
24069WAT     H272450   5.045   1.938   6.301
24070WAT      O72451   1.876   9.131   7.311
24070WAT     H172452   1.780   9.124   7.287
24070WAT     H272453   1.900   9.227   7.326
24071WAT      O72454   4.944   7.514   6.610
24071WAT     H172455   4.877   7.471   6.672
24071WAT     H272456   5.036   7.497   6.645
24072WAT      O72457   5.267   5.853   9.276
24072WAT     H172458   5.342   5.816   9.331
24072WAT     H272459   5.218   5.922   9.328
24073WAT      O72460   8.319   6.344   0.618
24073WAT     H172461   8.365   6.273   0.671
24073WAT     H272462   8.227   6.360   0.655
24074WAT      O72463   9.488   5.144   4.829
24074WAT     H172464   9.549   5.066   4.848
24074WAT     H272465   9.445   5.132   4.740
24075WAT      O72466   1.245   7.675   6.295
24075WAT     H172467   1.205   7.732   6.367
24075WAT     H272468   1.181   7.603   6.269
24076WAT      O72469   7.636   9.625   1.285
24076WAT     H172470   7.622   9.630   1.383
24076WAT     H272471   7.549   9.606   1.239
24077WAT      O72472   4.494   5.715   9.641
24077WAT     H172473   4.510   5.668   9.728
24077WAT     H272474   4.478   5.648   9.569
24078WAT      O72475   1.678   3.043   8.760
24078WAT     H172476   1.738   3.039   8.681
24078WAT     H272477   1.726   3.007   8.840
24079WAT      O72478   5.785   5.231   2.105
24079WAT     H172479   5.781   5.316   2.053
24079WAT     H272480   5.851   5.169   2.061
24080WAT      O72481   9.250   2.341   7.773
24080WAT     H172482   9.181   2.358   7.844
24080WAT     H272483   9.337   2.382   7.801
24081WAT      O72484   4.853   4.726   9.068
24081WAT     H172485   4.808   4.692   8.985
24081WAT     H272486   4.926   4.663   9.095
24082WAT      O72487   2.370   4.603   7.758
24082WAT     H172488   2.417   4.625   7.673
24082WAT     H272489   2.345   4.506   7.758
24083WAT      O72490   6.135   8.425   9.777
24083WAT     H172491   6.091   8.338   9.753
24083WAT     H272492   6.077   8.475   9.840
24084WAT      O72493   4.647   3.656   1.080
24084WAT     H172494   4.640   3.557   1.065
24084WAT     H272495   4.742   3.681   1.098
24085WAT      O72496   8.866   4.958   0.899
24085WAT     H172497   8.923   5.040   0.907
24085WAT     H272498   8.786   4.967   0.959
24086WAT      O72499   1.733   4.670   3.455
24086WAT     H172500   1.811   4.629   3.502
24086WAT     H272501   1.763   4.750   3.404
24087WAT      O72502   0.517   0.765   7.650
24087WAT     H172503   0.519   0.855   7.693
24087WAT     H272504   0.422   0.733   7.644
24088WAT      O72505   5.198   3.040   6.473
24088WAT     H172506   5.267   3.090   6.421
24088WAT     H272507   5.134   3.105   6.514
24089WAT      O72508   4.393   4.579   3.243
24089WAT     H172509   4.316   4.533   3.287
24089WAT     H272510   4.416   4.662   3.293
24090WAT      O72511   9.550   1.966   2.193
24090WAT     H172512   9.648   1.976   2.175
24090WAT     H272513   9.527   1.869   2.199
24091WAT      O72514   0.028   1.982   7.711
24091WAT     H172515   0.063   2.062   7.662
24091WAT     H272516   0.086   1.963   7.790
24092WAT      O72517   1.629   4.732   1.689
24092WAT     H172518   1.683   4.662   1.735
24092WAT     H272519   1.572   4.780   1.756
24093WAT      O72520   5.140   0.048   7.850
24093WAT     H172521   5.041   0.057   7.864
24093WAT     H272522   5.174  -0.030   7.902
24094WAT      O72523   8.849   0.327   5.339
24094WAT     H172524   8.866   0.256   5.409
24094WAT     H272525   8.763   0.306   5.292
24095WAT      O72526   5.443   8.740   2.831
24095WAT     H172527   5.412   8.797   2.907
24095WAT     H272528   5.471   8.799   2.755
24096WAT      O72529   0.815   1.169   8.184
24096WAT     H172530   0.812   1.240   8.113
24096WAT     H272531   0.905   1.169   8.227
24097WAT      O72532   3.501   4.263   3.055
24097WAT     H172533   3.507   4.176   3.007
24097WAT     H272534   3.527   4.251   3.151
24098WAT      O72535   0.343   7.134   9.825
24098WAT     H172536   0.441   7.138   9.846
24098WAT     H272537   0.295   7.201   9.881
24099WAT      O72538   4.937   7.772   3.814
24099WAT     H172539   5.025   7.759   3.860
24099WAT     H272540   4.868   7.715   3.858
24100WAT      O72541   5.275   1.608   4.124
24100WAT     H172542   5.231   1.523   4.093
24100WAT     H272543   5.232   1.686   4.080
24101WAT      O72544   9.558   3.224   2.121
24101WAT     H172545   9.656   3.207   2.108
24101WAT     H272546   9.538   3.235   2.218
24102WAT      O72547   2.434   1.885   0.770
24102WAT     H172548   2.500   1.944   0.723
24102WAT     H272549   2.350   1.880   0.717
24103WAT      O72550   9.615   1.944   7.060
24103WAT     H172551   9.679   1.956   7.135
24103WAT     H272552   9.613   1.847   7.033
24104WAT      O72553   2.496   8.284   3.818
24104WAT     H172554   2.445   8.199   3.827
24104WAT     H272555   2.434   8.359   3.796
24105WAT      O72556   9.587   8.721   7.419
24105WAT     H172557   9.508   8.668   7.449
24105WAT     H272558   9.556   8.810   7.385
24106WAT      O72559   2.806   1.513   5.431
24106WAT     H172560   2.901   1.481   5.426
24106WAT     H272561   2.793   1.563   5.517
24107WAT      O72562   6.027   1.278   3.846
24107WAT     H172563   6.122   1.264   3.817
24107WAT     H272564   6.003   1.374   3.834
24108WAT      O72565   7.871   5.926   9.851
24108WAT     H172566   7.966   5.941   9.823
24108WAT     H272567   7.814   5.910   9.771
24109WAT      O72568   3.185   7.267   6.394
24109WAT     H172569   3.234   7.238   6.312
24109WAT     H272570   3.250   7.304   6.461
24110WAT      O72571   2.645   5.490   0.405
24110WAT     H172572   2.578   5.531   0.343
24110WAT     H272573   2.664   5.396   0.377
24111WAT      O72574   4.138   2.297   2.178
24111WAT     H172575   4.142   2.351   2.094
24111WAT     H272576   4.045   2.299   2.215
24112WAT      O72577   6.769   6.369   8.272
24112WAT     H172578   6.769   6.433   8.195
24112WAT     H272579   6.814   6.411   8.351
24113WAT      O72580   4.556   6.886   6.701
24113WAT     H172581   4.600   6.848   6.782
24113WAT     H272582   4.595   6.844   6.619
24114WAT      O72583   5.416   7.554   9.090
24114WAT     H172584   5.509   7.555   9.051
24114WAT     H272585   5.403   7.635   9.147
24115WAT      O72586   5.230   2.355   0.175
24115WAT     H172587   5.223   2.338   0.274
24115WAT     H272588   5.290   2.286   0.135
24116WAT      O72589   1.811   2.812   2.401
24116WAT     H172590   1.871   2.736   2.374
24116WAT     H272591   1.720   2.776   2.423
24117WAT      O72592   6.680   6.145   4.052
24117WAT     H172593   6.624   6.062   4.058
24117WAT     H272594   6.766   6.124   4.005
24118WAT      O72595   2.499   7.340   4.190
24118WAT     H172596   2.427   7.398   4.151
24118WAT     H272597   2.564   7.316   4.119
24119WAT      O72598   3.492   5.227   2.794
24119WAT     H172599   3.484   5.270   2.884
24119WAT     H272600   3.568   5.162   2.794
24120WAT      O72601   9.691   8.329   5.945
24120WAT     H172602   9.762   8.398   5.959
24120WAT     H272603   9.693   8.265   6.022
24121WAT      O72604   4.775   4.552   2.957
24121WAT     H172605   4.684   4.587   2.934
24121WAT     H272606   4.821   4.616   3.019
24122WAT      O72607   8.322   0.363   2.492
24122WAT     H172608   8.336   0.447   2.545
24122WAT     H272609   8.411   0.320   2.475
24123WAT      O72610   4.115   5.538   5.546
24123WAT     H172611   4.186   5.500   5.487
24123WAT     H272612   4.025   5.520   5.506
24124WAT      O72613   7.069   0.257   0.461
24124WAT     H172614   7.083   0.173   0.409
24124WAT     H272615   6.972   0.279   0.463
24125WAT      O72616   9.497   3.455   3.692
24125WAT     H172617   9.493   3.552   3.717
24125WAT     H272618   9.406   3.415   3.697
24126WAT      O72619   7.779   8.170   8.531
24126WAT     H172620   7.847   8.097   8.525
24126WAT     H272621   7.718   8.165   8.452
24127WAT      O72622   1.367   9.813   8.332
24127WAT     H172623   1.273   9.842   8.351
24127WAT     H272624   1.366   9.739   8.264
24128WAT      O72625   5.917   0.264   4.248
24128WAT     H172626   5.934   0.357   4.279
24128WAT     H272627   5.848   0.264   4.176
24129WAT      O72628   1.061   2.726   4.341
24129WAT     H172629   1.051   2.796   4.270
24129WAT     H272630   1.096   2.642   4.300
24130WAT      O72631   0.073   0.892   9.322
24130WAT     H172632   0.018   0.809   9.314
24130WAT     H272633   0.125   0.890   9.408
24131WAT      O72634   7.833   5.416   1.623
24131WAT     H172635   7.916   5.455   1.663
24131WAT     H272636   7.856   5.366   1.539
24132WAT      O72637   1.778   1.699   5.004
24132WAT     H172638   1.869   1.660   5.003
24132WAT     H272639   1.711   1.629   5.028
24133WAT      O72640   1.473   6.610   7.328
24133WAT     H172641   1.399   6.664   7.288
24133WAT     H272642   1.526   6.667   7.390
24134WAT      O72643   5.053   0.264   8.918
24134WAT     H172644   5.145   0.305   8.916
24134WAT     H272645   5.042   0.204   8.839
24135WAT      O72646   0.184   6.930   3.590
24135WAT     H172647   0.108   6.938   3.525
24135WAT     H272648   0.173   6.998   3.662
24136WAT      O72649   2.048   7.160   2.372
24136WAT     H172650   1.968   7.165   2.432
24136WAT     H272651   2.027   7.206   2.285
24137WAT      O72652   7.777   9.021   4.959
24137WAT     H172653   7.745   9.048   4.869
24137WAT     H272654   7.699   8.995   5.016
24138WAT      O72655   1.287   3.191   1.941
24138WAT     H172656   1.386   3.181   1.950
24138WAT     H272657   1.266   3.262   1.874
24139WAT      O72658   3.452   9.121   6.808
24139WAT     H172659   3.540   9.101   6.849
24139WAT     H272660   3.379   9.107   6.875
24140WAT      O72661   7.179   0.255   3.351
24140WAT     H172662   7.255   0.216   3.299
24140WAT     H272663   7.193   0.353   3.364
24141WAT      O72664   1.303   1.702   3.760
24141WAT     H172665   1.272   1.796   3.770
24141WAT     H272666   1.302   1.677   3.663
24142WAT      O72667   9.396   0.728   5.104
24142WAT     H172668   9.345   0.650   5.067
24142WAT     H272669   9.491   0.700   5.121
24143WAT      O72670   9.715   7.808   2.544
24143WAT     H172671   9.724   7.896   2.591
24143WAT     H272672   9.670   7.822   2.456
24144WAT      O72673   9.131   7.872   8.316
24144WAT     H172674   9.127   7.773   8.324
24144WAT     H272675   9.170   7.911   8.400
24145WAT      O72676   2.002   1.255   6.134
24145WAT     H172677   1.923   1.207   6.170
24145WAT     H272678   1.986   1.279   6.038
24146WAT      O72679   6.148   9.556   4.822
24146WAT     H172680   6.202   9.575   4.740
24146WAT     H272681   6.059   9.518   4.796
24147WAT      O72682   8.765   1.494   4.687
24147WAT     H172683   8.849   1.519   4.735
24147WAT     H272684   8.734   1.404   4.718
24148WAT      O72685   3.582   2.361   9.048
24148WAT     H172686   3.498   2.411   9.072
24148WAT     H272687   3.633   2.414   8.980
24149WAT      O72688   9.070   7.267   4.944
24149WAT     H172689   9.107   7.216   5.022
24149WAT     H272690   9.105   7.228   4.859
24150WAT      O72691   3.918   9.371   4.563
24150WAT     H172692   4.007   9.395   4.526
24150WAT     H272693   3.899   9.426   4.644
24151WAT      O72694   3.021   2.369   3.376
24151WAT     H172695   2.962   2.305   3.425
24151WAT     H272696   3.080   2.319   3.313
24152WAT      O72697   3.831   6.712   9.444
24152WAT     H172698   3.809   6.648   9.370
24152WAT     H272699   3.924   6.695   9.476
24153WAT      O72700   2.771   9.252   7.988
24153WAT     H172701   2.833   9.174   7.991
24153WAT     H272702   2.769   9.296   8.078
24154WAT      O72703   0.920   3.207   7.109
24154WAT     H172704   0.837   3.217   7.053
24154WAT     H272705   1.000   3.227   7.053
24155WAT      O72706   3.921   3.076   2.342
24155WAT     H172707   3.901   2.983   2.312
24155WAT     H272708   3.944   3.133   2.263
24156WAT      O72709   6.792   6.026   9.761
24156WAT     H172710   6.695   6.000   9.755
24156WAT     H272711   6.843   5.953   9.807
24157WAT      O72712   8.733   5.282   3.568
24157WAT     H172713   8.749   5.354   3.635
24157WAT     H272714   8.708   5.197   3.615
24158WAT      O72715   2.385   3.913   3.770
24158WAT     H172716   2.328   3.859   3.709
24158WAT     H272717   2.349   4.006   3.775
24159WAT      O72718   6.453   8.735   1.208
24159WAT     H172719   6.365   8.688   1.219
24159WAT     H272720   6.469   8.794   1.287
24160WAT      O72721   3.961   7.368   4.356
24160WAT     H172722   3.994   7.458   4.327
24160WAT     H272723   3.980   7.355   4.453
24161WAT      O72724   3.144   4.151   8.186
24161WAT     H172725   3.145   4.124   8.283
24161WAT     H272726   3.164   4.248   8.178
24162WAT      O72727   3.070   1.276   8.563
24162WAT     H172728   3.114   1.190   8.587
24162WAT     H272729   3.103   1.348   8.624
24163WAT      O72730   1.024   4.192   9.693
24163WAT     H172731   1.070   4.187   9.781
24163WAT     H272732   1.048   4.277   9.646
24164WAT      O72733   6.705   1.285   5.131
24164WAT     H172734   6.691   1.356   5.063
24164WAT     H272735   6.652   1.204   5.107
24165WAT      O72736   9.633   4.774   1.951
24165WAT     H172737   9.659   4.693   1.898
24165WAT     H272738   9.533   4.776   1.960
24166WAT      O72739   2.426   2.087   8.659
24166WAT     H172740   2.402   2.093   8.562
24166WAT     H272741   2.498   2.018   8.672
24167WAT      O72742   8.089   0.974   8.363
24167WAT     H172743   8.069   0.980   8.461
24167WAT     H272744   8.182   0.939   8.351
24168WAT      O72745   3.323   0.490   0.871
24168WAT     H172746   3.237   0.454   0.834
24168WAT     H272747   3.309   0.523   0.964
24169WAT      O72748   0.451   0.055   3.725
24169WAT     H172749   0.456   0.078   3.822
24169WAT     H272750   0.409   0.131   3.675
24170WAT      O72751   5.076   6.949   2.205
24170WAT     H172752   5.081   6.853   2.233
24170WAT     H272753   5.045   7.005   2.282
24171WAT      O72754   0.480   8.874   6.442
24171WAT     H172755   0.433   8.939   6.501
24171WAT     H272756   0.508   8.794   6.495
24172WAT      O72757   6.882   9.012   6.679
24172WAT     H172758   6.935   8.987   6.598
24172WAT     H272759   6.838   8.930   6.717
24173WAT      O72760   8.010   2.154   6.143
24173WAT     H172761   8.063   2.232   6.177
24173WAT     H272762   7.978   2.100   6.221
24174WAT      O72763   8.239   4.773   5.765
24174WAT     H172764   8.290   4.842   5.815
24174WAT     H272765   8.147   4.808   5.744
24175WAT      O72766   9.453   5.273   3.447
24175WAT     H172767   9.369   5.324   3.425
24175WAT     H272768   9.483   5.299   3.539
24176WAT      O72769   7.775   4.432   8.654
24176WAT     H172770   7.712   4.447   8.578
24176WAT     H272771   7.816   4.519   8.681
24177WAT      O72772   6.637   0.321   2.847
24177WAT     H172773   6.735   0.312   2.830
24177WAT     H272774   6.601   0.395   2.791
24178WAT      O72775   8.521   3.383   4.566
24178WAT     H172776   8.599   3.446   4.568
24178WAT     H272777   8.481   3.383   4.474
24179WAT      O72778   5.354   4.789   7.993
24179WAT     H172779   5.364   4.690   7.978
24179WAT     H272780   5.269   4.820   7.951
24180WAT      O72781   0.168   5.165   2.120
24180WAT     H172782   0.135   5.200   2.032
24180WAT     H272783   0.260   5.128   2.109
24181WAT      O72784   5.086   1.037   0.291
24181WAT     H172785   5.082   1.098   0.370
24181WAT     H272786   4.994   1.017   0.259
24182WAT      O72787   9.594   9.843   2.717
24182WAT     H172788   9.623   9.889   2.801
24182WAT     H272789   9.499   9.813   2.727
24183WAT      O72790   4.134   0.262   9.105
24183WAT     H172791   4.131   0.273   9.005
24183WAT     H272792   4.215   0.307   9.141
24184WAT      O72793   2.331   7.433   5.854
24184WAT     H172794   2.371   7.459   5.766
24184WAT     H272795   2.290   7.342   5.847
24185WAT      O72796   2.811   1.709   0.596
24185WAT     H172797   2.718   1.695   0.563
24185WAT     H272798   2.841   1.801   0.572
24186WAT      O72799   6.951   7.697   9.160
24186WAT     H172800   6.930   7.748   9.077
24186WAT     H272801   7.048   7.707   9.181
24187WAT      O72802   0.152   8.931   8.210
24187WAT     H172803   0.115   8.954   8.120
24187WAT     H272804   0.101   8.980   8.281
24188WAT      O72805   5.025   1.588   4.712
24188WAT     H172806   4.965   1.587   4.632
24188WAT     H272807   5.118   1.613   4.684
24189WAT      O72808   7.911   1.401   0.882
24189WAT     H172809   7.838   1.336   0.859
24189WAT     H272810   7.934   1.455   0.801
24190WAT      O72811   4.495   5.265   4.043
24190WAT     H172812   4.582   5.308   4.069
24190WAT     H272813   4.420   5.311   4.092
24191WAT      O72814   7.950   7.913   7.627
24191WAT     H172815   7.978   8.008   7.639
24191WAT     H272816   7.884   7.888   7.699
24192WAT      O72817   1.120   0.413   9.398
24192WAT     H172818   1.051   0.350   9.432
24192WAT     H272819   1.128   0.491   9.462
24193WAT      O72820   3.096   5.886   6.381
24193WAT     H172821   3.074   5.978   6.413
24193WAT     H272822   3.188   5.886   6.340
24194WAT      O72823   7.853   2.069   3.466
24194WAT     H172824   7.894   2.079   3.556
24194WAT     H272825   7.790   1.991   3.467
24195WAT      O72826   2.311   4.661   5.327
24195WAT     H172827   2.272   4.570   5.314
24195WAT     H272828   2.242   4.722   5.365
24196WAT      O72829   7.699   4.660   9.305
24196WAT     H172830   7.685   4.572   9.351
24196WAT     H272831   7.725   4.729   9.372
24197WAT      O72832   3.870   6.298   1.473
24197WAT     H172833   3.939   6.326   1.539
24197WAT     H272834   3.912   6.242   1.401
24198WAT      O72835   0.925   1.247   0.529
24198WAT     H172836   0.863   1.205   0.595
24198WAT     H272837   0.982   1.176   0.487
24199WAT      O72838   7.714   5.817   0.573
24199WAT     H172839   7.666   5.756   0.509
24199WAT     H272840   7.765   5.761   0.639
24200WAT      O72841   5.001   5.641   0.917
24200WAT     H172842   5.077   5.702   0.939
24200WAT     H272843   5.034   5.547   0.910
24201WAT      O72844   6.891   4.698   9.267
24201WAT     H172845   6.932   4.773   9.318
24201WAT     H272846   6.796   4.685   9.297
24202WAT      O72847   5.983   9.332   0.334
24202WAT     H172848   6.032   9.331   0.247
24202WAT     H272849   5.889   9.363   0.319
24203WAT      O72850   5.407   2.266   9.150
24203WAT     H172851   5.463   2.188   9.177
24203WAT     H272852   5.349   2.241   9.073
24204WAT      O72853   3.952   2.505   5.352
24204WAT     H172854   4.034   2.528   5.405
24204WAT     H272855   3.955   2.408   5.328
24205WAT      O72856   6.770   6.067   7.222
24205WAT     H172857   6.697   6.104   7.165
24205WAT     H272858   6.762   5.967   7.225
24206WAT      O72859   9.810   9.352   0.399
24206WAT     H172860   9.843   9.263   0.367
24206WAT     H272861   9.727   9.338   0.453
24207WAT      O72862   6.411   6.963   9.602
24207WAT     H172863   6.391   6.867   9.618
24207WAT     H272864   6.329   7.010   9.570
24208WAT      O72865   6.936   2.186   6.432
24208WAT     H172866   6.950   2.093   6.466
24208WAT     H272867   6.980   2.197   6.343
24209WAT      O72868   7.905   6.205   6.610
24209WAT     H172869   7.974   6.153   6.659
24209WAT     H272870   7.832   6.144   6.580
24210WAT      O72871   8.694   8.831   6.094
24210WAT     H172872   8.757   8.835   6.171
24210WAT     H272873   8.710   8.909   6.033
24211WAT      O72874   7.085   3.537   0.459
24211WAT     H172875   7.085   3.626   0.505
24211WAT     H272876   7.001   3.489   0.480
24212WAT      O72877   7.364   5.952   1.434
24212WAT     H172878   7.391   6.038   1.477
24212WAT     H272879   7.264   5.946   1.430
24213WAT      O72880   0.947   7.853   7.894
24213WAT     H172881   0.942   7.900   7.806
24213WAT     H272882   0.883   7.896   7.958
24214WAT      O72883   2.599   4.531   3.707
24214WAT     H172884   2.523   4.544   3.643
24214WAT     H272885   2.578   4.457   3.770
24215WAT      O72886   7.452   8.658   7.899
24215WAT     H172887   7.474   8.625   7.807
24215WAT     H272888   7.532   8.648   7.958
24216WAT      O72889   4.201   5.001   5.907
24216WAT     H172890   4.219   5.017   5.811
24216WAT     H272891   4.147   5.077   5.944
24217WAT      O72892   6.078   4.064   3.198
24217WAT     H172893   6.029   4.061   3.285
24217WAT     H272894   6.059   4.151   3.152
24218WAT      O72895   2.622   5.420   1.996
24218WAT     H172896   2.564   5.393   1.920
24218WAT     H272897   2.621   5.349   2.066
24219WAT      O72898   4.959   5.229   7.190
24219WAT     H172899   4.895   5.216   7.113
24219WAT     H272900   4.924   5.181   7.270
24220WAT      O72901   3.170   8.935   0.629
24220WAT     H172902   3.258   8.956   0.673
24220WAT     H272903   3.185   8.867   0.557
24221WAT      O72904   3.514   3.064   2.448
24221WAT     H172905   3.506   2.967   2.472
24221WAT     H272906   3.505   3.119   2.530
24222WAT      O72907   1.501   7.999   3.486
24222WAT     H172908   1.554   7.919   3.460
24222WAT     H272909   1.448   8.032   3.407
24223WAT      O72910   1.796   8.089   6.252
24223WAT     H172911   1.827   8.067   6.159
24223WAT     H272912   1.866   8.063   6.318
24224WAT      O72913   7.466   0.418   7.122
24224WAT     H172914   7.386   0.477   7.130
24224WAT     H272915   7.490   0.408   7.025
24225WAT      O72916   5.964   2.148   3.797
24225WAT     H172917   5.885   2.124   3.854
24225WAT     H272918   6.013   2.064   3.773
24226WAT      O72919   3.325   3.061   7.340
24226WAT     H172920   3.374   3.142   7.371
24226WAT     H272921   3.235   3.087   7.306
24227WAT      O72922   0.240   3.467   2.860
24227WAT     H172923   0.266   3.487   2.955
24227WAT     H272924   0.267   3.544   2.802
24228WAT      O72925   8.414   5.998   4.385
24228WAT     H172926   8.467   5.966   4.306
24228WAT     H272927   8.331   6.044   4.352
24229WAT      O72928   8.755   3.777   9.340
24229WAT     H172929   8.846   3.754   9.375
24229WAT     H272930   8.686   3.724   9.389
24230WAT      O72931   8.841   8.663   8.543
24230WAT     H172932   8.798   8.617   8.620
24230WAT     H272933   8.772   8.716   8.494
24231WAT      O72934   2.340   9.516   2.056
24231WAT     H172935   2.398   9.581   2.104
24231WAT     H272936   2.360   9.423   2.087
24232WAT      O72937   3.088   4.623   8.598
24232WAT     H172938   3.073   4.525   8.583
24232WAT     H272939   3.032   4.653   8.676
24233WAT      O72940   6.431   2.181   9.754
24233WAT     H172941   6.400   2.103   9.809
24233WAT     H272942   6.531   2.180   9.749
24234WAT      O72943   9.352   8.071   7.915
24234WAT     H172944   9.269   8.026   7.946
24234WAT     H272945   9.424   8.002   7.901
24235WAT      O72946   2.688   5.068   6.194
24235WAT     H172947   2.686   5.005   6.117
24235WAT     H272948   2.672   5.161   6.161
24236WAT      O72949   6.267   8.960   7.284
24236WAT     H172950   6.213   9.042   7.302
24236WAT     H272951   6.312   8.967   7.195
24237WAT      O72952   4.851   4.008   0.077
24237WAT     H172953   4.764   4.046   0.108
24237WAT     H272954   4.858   4.018  -0.022
24238WAT      O72955   6.300   6.272   9.088
24238WAT     H172956   6.311   6.266   8.989
24238WAT     H272957   6.323   6.184   9.130
24239WAT      O72958   5.942   9.121   3.789
24239WAT     H172959   5.877   9.154   3.721
24239WAT     H272960   5.921   9.162   3.878
24240WAT      O72961   3.153   5.753   3.859
24240WAT     H172962   3.172   5.841   3.817
24240WAT     H272963   3.215   5.738   3.936
24241WAT      O72964   8.117   6.007   9.758
24241WAT     H172965   8.164   5.978   9.841
24241WAT     H272966   8.132   6.105   9.743
24242WAT      O72967   1.084   6.525   9.607
24242WAT     H172968   1.170   6.569   9.631
24242WAT     H272969   1.014   6.550   9.675
24243WAT      O72970   7.613   9.617   7.046
24243WAT     H172971   7.712   9.622   7.038
24243WAT     H272972   7.572   9.704   7.020
24244WAT      O72973   9.517   8.848   1.357
24244WAT     H172974   9.563   8.762   1.338
24244WAT     H272975   9.581   8.912   1.400
24245WAT      O72976   5.648   9.179   8.252
24245WAT     H172977   5.731   9.124   8.251
24245WAT     H272978   5.606   9.175   8.342
24246WAT      O72979   6.207   1.896   3.139
24246WAT     H172980   6.265   1.823   3.174
24246WAT     H272981   6.201   1.970   3.206
24247WAT      O72982   4.069   2.372   6.805
24247WAT     H172983   4.001   2.442   6.823
24247WAT     H272984   4.149   2.414   6.762
24248WAT      O72985   5.239   3.696   2.426
24248WAT     H172986   5.198   3.768   2.483
24248WAT     H272987   5.232   3.722   2.329
24249WAT      O72988   2.918   1.902   4.462
24249WAT     H172989   2.926   1.892   4.561
24249WAT     H272990   2.910   1.999   4.439
24250WAT      O72991   3.320   3.397   8.359
24250WAT     H172992   3.347   3.302   8.378
24250WAT     H272993   3.376   3.433   8.284
24251WAT      O72994   8.808   0.209   4.570
24251WAT     H172995   8.710   0.201   4.551
24251WAT     H272996   8.843   0.293   4.527
24252WAT      O72997   5.554   7.164   8.307
24252WAT     H172998   5.646   7.196   8.327
24252WAT     H272999   5.546   7.144   8.209
24253WAT      O73000   5.174   3.120   7.213
24253WAT     H173001   5.181   3.215   7.245
24253WAT     H273002   5.231   3.109   7.131
24254WAT      O73003   8.282   0.590   2.711
24254WAT     H173004   8.344   0.564   2.785
24254WAT     H273005   8.205   0.526   2.708
24255WAT      O73006   8.627   8.069   0.438
24255WAT     H173007   8.682   8.052   0.356
24255WAT     H273008   8.596   8.164   0.438
24256WAT      O73009   4.542   2.610   2.268
24256WAT     H173010   4.555   2.519   2.227
24256WAT     H273011   4.461   2.653   2.229
24257WAT      O73012   2.193   6.031   3.597
24257WAT     H173013   2.248   6.111   3.575
24257WAT     H273014   2.242   5.948   3.569
24258WAT      O73015   9.669   3.089   6.732
24258WAT     H173016   9.594   3.047   6.782
24258WAT     H273017   9.653   3.080   6.634
24259WAT      O73018   4.391   5.502   1.385
24259WAT     H173019   4.361   5.581   1.330
24259WAT     H273020   4.335   5.496   1.467
24260WAT      O73021   6.221   6.498   6.939
24260WAT     H173022   6.143   6.445   6.905
24260WAT     H273023   6.296   6.491   6.873
24261WAT      O73024   4.964   2.754   8.572
24261WAT     H173025   5.021   2.672   8.563
24261WAT     H273026   4.889   2.737   8.636
24262WAT      O73027   6.641   6.918   0.091
24262WAT     H173028   6.590   6.992   0.048
24262WAT     H273029   6.612   6.908   0.186
24263WAT      O73030   6.161   6.503   2.013
24263WAT     H173031   6.180   6.566   2.087
24263WAT     H273032   6.176   6.549   1.925
24264WAT      O73033   3.520   4.688   7.056
24264WAT     H173034   3.527   4.749   6.977
24264WAT     H273035   3.435   4.635   7.049
24265WAT      O73036   4.360   4.886   4.560
24265WAT     H173037   4.351   4.882   4.660
24265WAT     H273038   4.315   4.807   4.519
24266WAT      O73039   8.838   7.583   3.515
24266WAT     H173040   8.884   7.502   3.551
24266WAT     H273041   8.741   7.562   3.501
24267WAT      O73042   2.686   6.182   0.626
24267WAT     H173043   2.624   6.253   0.592
24267WAT     H273044   2.780   6.202   0.596
24268WAT      O73045   8.729   2.292   8.396
24268WAT     H173046   8.776   2.308   8.483
24268WAT     H273047   8.729   2.194   8.376
24269WAT      O73048   0.377   8.380   4.694
24269WAT     H173049   0.355   8.436   4.773
24269WAT     H273050   0.329   8.415   4.613
24270WAT      O73051   4.477   9.495   2.583
24270WAT     H173052   4.382   9.522   2.570
24270WAT     H273053   4.490   9.462   2.676
24271WAT      O73054   2.131   1.183   5.241
24271WAT     H173055   2.204   1.128   5.200
24271WAT     H273056   2.147   1.191   5.340
24272WAT      O73057   8.697   5.676   5.081
24272WAT     H173058   8.775   5.628   5.122
24272WAT     H273059   8.715   5.690   4.984
24273WAT      O73060   4.733   7.957   8.043
24273WAT     H173061   4.736   8.057   8.044
24273WAT     H273062   4.767   7.923   7.955
24274WAT      O73063   4.599   6.054   9.091
24274WAT     H173064   4.656   6.122   9.045
24274WAT     H273065   4.656   5.975   9.116
24275WAT      O73066   6.585   4.940   9.060
24275WAT     H173067   6.670   4.920   9.011
24275WAT     H273068   6.507   4.919   9.001
24276WAT      O73069   7.544   8.875   4.811
24276WAT     H173070   7.598   8.791   4.801
24276WAT     H273071   7.508   8.902   4.722
24277WAT      O73072   2.551   5.175   1.344
24277WAT     H173073   2.631   5.116   1.334
24277WAT     H273074   2.572   5.267   1.310
24278WAT      O73075   6.814   5.990   1.871
24278WAT     H173076   6.774   6.074   1.908
24278WAT     H273077   6.744   5.920   1.864
24279WAT      O73078   1.492   5.804   2.718
24279WAT     H173079   1.451   5.778   2.630
24279WAT     H273080   1.421   5.810   2.788
24280WAT      O73081   5.367   2.649   9.098
24280WAT     H173082   5.273   2.651   9.065
24280WAT     H273083   5.368   2.642   9.198
24281WAT      O73084   3.826   4.557   8.863
24281WAT     H173085   3.899   4.499   8.826
24281WAT     H273086   3.737   4.520   8.836
24282WAT      O73087   8.754   8.828   3.123
24282WAT     H173088   8.781   8.835   3.219
24282WAT     H273089   8.758   8.918   3.080
24283WAT      O73090   8.305   7.148   8.615
24283WAT     H173091   8.292   7.187   8.706
24283WAT     H273092   8.235   7.079   8.598
24284WAT      O73093   4.658   1.379   8.155
24284WAT     H173094   4.745   1.398   8.108
24284WAT     H273095   4.663   1.411   8.249
24285WAT      O73096   3.062   1.420   7.590
24285WAT     H173097   3.108   1.492   7.641
24285WAT     H273098   3.103   1.331   7.612
24286WAT      O73099   9.193   9.746   9.867
24286WAT     H173100   9.267   9.790   9.817
24286WAT     H273101   9.106   9.769   9.825
24287WAT      O73102   3.766   9.231   3.851
24287WAT     H173103   3.727   9.219   3.760
24287WAT     H273104   3.721   9.309   3.896
24288WAT      O73105   2.892   2.188   0.699
24288WAT     H173106   2.796   2.206   0.676
24288WAT     H273107   2.915   2.234   0.785
24289WAT      O73108   6.673   8.155   8.998
24289WAT     H173109   6.596   8.218   8.987
24289WAT     H273110   6.663   8.079   8.934
24290WAT      O73111   5.045   5.891   3.316
24290WAT     H173112   4.991   5.882   3.399
24290WAT     H273113   5.119   5.823   3.317
24291WAT      O73114   3.492   0.206   2.630
24291WAT     H173115   3.427   0.282   2.635
24291WAT     H273116   3.585   0.240   2.643
24292WAT      O73117   0.335   7.600   0.906
24292WAT     H173118   0.388   7.665   0.960
24292WAT     H273119   0.238   7.615   0.922
24293WAT      O73120   4.354   7.044   8.317
24293WAT     H173121   4.287   7.030   8.390
24293WAT     H273122   4.402   7.130   8.332
24294WAT      O73123   9.167   9.569   9.263
24294WAT     H173124   9.076   9.585   9.225
24294WAT     H273125   9.162   9.498   9.333
24295WAT      O73126   1.326   9.403   7.150
24295WAT     H173127   1.413   9.392   7.101
24295WAT     H273128   1.306   9.320   7.202
24296WAT      O73129   6.073   6.890   5.636
24296WAT     H173130   6.100   6.797   5.611
24296WAT     H273131   6.141   6.928   5.700
24297WAT      O73132   4.274   6.237   4.466
24297WAT     H173133   4.277   6.261   4.369
24297WAT     H273134   4.245   6.141   4.475
24298WAT      O73135   2.618   3.267   5.580
24298WAT     H173136   2.645   3.212   5.501
24298WAT     H273137   2.689   3.333   5.601
24299WAT      O73138   8.196   7.047   7.974
24299WAT     H173139   8.286   7.014   8.001
24299WAT     H273140   8.188   7.144   7.994
24300WAT      O73141   0.099   8.823   9.704
24300WAT     H173142   0.187   8.791   9.668
24300WAT     H273143   0.028   8.755   9.685
24301WAT      O73144   0.020   0.429   4.805
24301WAT     H173145   0.094   0.402   4.742
24301WAT     H273146  -0.064   0.445   4.753
24302WAT      O73147   8.174   2.824   1.898
24302WAT     H173148   8.121   2.802   1.979
24302WAT     H273149   8.205   2.739   1.855
24303WAT      O73150   0.040   0.402   9.114
24303WAT     H173151  -0.018   0.457   9.054
24303WAT     H273152   0.119   0.456   9.144
24304WAT      O73153   3.678   2.727   0.941
24304WAT     H173154   3.741   2.739   1.018
24304WAT     H273155   3.646   2.632   0.939
24305WAT      O73156   1.741   9.067   5.396
24305WAT     H173157   1.788   9.001   5.337
24305WAT     H273158   1.781   9.158   5.384
24306WAT      O73159   6.590   9.114   2.085
24306WAT     H173160   6.594   9.186   2.016
24306WAT     H273161   6.638   9.144   2.167
24307WAT      O73162   6.010   2.647   8.723
24307WAT     H173163   5.985   2.579   8.792
24307WAT     H273164   6.031   2.734   8.768
24308WAT      O73165   9.479   9.516   4.183
24308WAT     H173166   9.425   9.573   4.120
24308WAT     H273167   9.474   9.421   4.154
24309WAT      O73168   7.353   7.258   1.290
24309WAT     H173169   7.398   7.345   1.273
24309WAT     H273170   7.354   7.238   1.388
24310WAT      O73171   7.652   6.111   4.390
24310WAT     H173172   7.609   6.095   4.301
24310WAT     H273173   7.620   6.198   4.427
24311WAT      O73174   2.438   7.452   8.279
24311WAT     H173175   2.446   7.551   8.295
24311WAT     H273176   2.527   7.409   8.290
24312WAT      O73177   4.291   6.810   8.182
24312WAT     H173178   4.371   6.765   8.142
24312WAT     H273179   4.319   6.891   8.232
24313WAT      O73180   6.104   0.185   9.428
24313WAT     H173181   6.105   0.115   9.356
24313WAT     H273182   6.156   0.152   9.507
24314WAT      O73183   5.659   8.445   9.250
24314WAT     H173184   5.752   8.469   9.220
24314WAT     H273185   5.624   8.518   9.309
24315WAT      O73186   1.760   5.320   0.679
24315WAT     H173187   1.752   5.245   0.746
24315WAT     H273188   1.857   5.344   0.668
24316WAT      O73189   9.517   3.354   2.983
24316WAT     H173190   9.429   3.389   3.016
24316WAT     H273191   9.573   3.326   3.062
24317WAT      O73192   0.297   0.939   3.120
24317WAT     H173193   0.286   0.944   3.220
24317WAT     H273194   0.362   1.010   3.091
24318WAT      O73195   6.715   9.230   2.643
24318WAT     H173196   6.723   9.215   2.741
24318WAT     H273197   6.722   9.142   2.595
24319WAT      O73198   3.910   9.708   6.344
24319WAT     H173199   3.825   9.756   6.367
24319WAT     H273200   3.899   9.660   6.257
24320WAT      O73201   2.873   8.628   8.863
24320WAT     H173202   2.808   8.701   8.846
24320WAT     H273203   2.941   8.626   8.789
24321WAT      O73204   2.954   8.977   9.134
24321WAT     H173205   2.906   9.013   9.055
24321WAT     H273206   2.950   9.043   9.209
24322WAT      O73207   9.602   4.043   6.476
24322WAT     H173208   9.538   4.120   6.479
24322WAT     H273209   9.551   3.958   6.464
24323WAT      O73210   5.929   3.373   8.254
24323WAT     H173211   5.930   3.381   8.354
24323WAT     H273212   5.991   3.440   8.214
24324WAT      O73213   8.837   3.279   0.272
24324WAT     H173214   8.756   3.284   0.213
24324WAT     H273215   8.809   3.251   0.364
24325WAT      O73216   6.754   2.247   5.837
24325WAT     H173217   6.800   2.164   5.871
24325WAT     H273218   6.689   2.222   5.766
24326WAT      O73219   1.149   0.914   0.657
24326WAT     H173220   1.094   0.962   0.726
24326WAT     H273221   1.124   0.947   0.566
24327WAT      O73222   4.881   9.533   7.256
24327WAT     H173223   4.967   9.527   7.308
24327WAT     H273224   4.810   9.480   7.303
24328WAT      O73225   2.195   2.405   3.505
24328WAT     H173226   2.204   2.423   3.603
24328WAT     H273227   2.098   2.408   3.479
24329WAT      O73228   2.213   7.974   1.198
24329WAT     H173229   2.200   7.879   1.168
24329WAT     H273230   2.124   8.019   1.205
24330WAT      O73231   8.363   6.839   8.489
24330WAT     H173232   8.303   6.905   8.535
24330WAT     H273233   8.457   6.872   8.492
24331WAT      O73234   8.063   0.581   7.783
24331WAT     H173235   8.077   0.482   7.791
24331WAT     H273236   7.965   0.602   7.791
24332WAT      O73237   3.460   6.548   7.201
24332WAT     H173238   3.512   6.462   7.205
24332WAT     H273239   3.518   6.621   7.165
24333WAT      O73240   6.829   2.554   5.037
24333WAT     H173241   6.867   2.646   5.045
24333WAT     H273242   6.774   2.548   4.954
24334WAT      O73243   1.974   0.815   8.450
24334WAT     H173244   1.973   0.751   8.373
24334WAT     H273245   1.882   0.821   8.489
24335WAT      O73246   3.408   3.155   6.046
24335WAT     H173247   3.358   3.233   6.008
24335WAT     H273248   3.505   3.162   6.021
24336WAT      O73249   1.427   0.864   6.405
24336WAT     H173250   1.468   0.840   6.317
24336WAT     H273251   1.470   0.948   6.440
24337WAT      O73252   7.513   3.083   7.405
24337WAT     H173253   7.526   3.087   7.306
24337WAT     H273254   7.421   3.052   7.426
24338WAT      O73255   7.295   0.075   4.581
24338WAT     H173256   7.374   0.119   4.538
24338WAT     H273257   7.234   0.145   4.619
24339WAT      O73258   5.557   8.589   4.334
24339WAT     H173259   5.656   8.601   4.341
24339WAT     H273260   5.511   8.673   4.364
24340WAT      O73261   7.070   7.259   1.339
24340WAT     H173262   7.146   7.272   1.276
24340WAT     H273263   7.065   7.162   1.365
24341WAT      O73264   5.404   0.737   5.158
24341WAT     H173265   5.391   0.682   5.240
24341WAT     H273266   5.492   0.715   5.116
24342WAT      O73267   6.059   9.317   2.115
24342WAT     H173268   5.984   9.270   2.068
24342WAT     H273269   6.131   9.339   2.049
24343WAT      O73270   4.702   7.635   8.367
24343WAT     H173271   4.698   7.576   8.287
24343WAT     H273272   4.751   7.720   8.344
24344WAT      O73273   3.975   3.460   8.078
24344WAT     H173274   3.914   3.508   8.015
24344WAT     H273275   4.037   3.402   8.026
24345WAT      O73276   4.835   1.215   0.437
24345WAT     H173277   4.812   1.121   0.409
24345WAT     H273278   4.932   1.219   0.462
24346WAT      O73279   1.337   7.762   3.711
24346WAT     H173280   1.408   7.747   3.642
24346WAT     H273281   1.257   7.803   3.668
24347WAT      O73282   9.835   1.762   7.215
24347WAT     H173283   9.869   1.757   7.121
24347WAT     H273284   9.854   1.853   7.253
24348WAT      O73285   4.188   5.489   7.245
24348WAT     H173286   4.275   5.515   7.287
24348WAT     H273287   4.137   5.572   7.221
24349WAT      O73288   0.586   1.799   3.388
24349WAT     H173289   0.664   1.827   3.445
24349WAT     H273290   0.503   1.795   3.445
24350WAT      O73291   1.383   5.009   6.762
24350WAT     H173292   1.421   4.919   6.744
24350WAT     H273293   1.287   5.001   6.788
24351WAT      O73294   7.660   4.026   4.320
24351WAT     H173295   7.599   3.952   4.347
24351WAT     H273296   7.671   4.027   4.221
24352WAT      O73297   4.954   3.142   4.994
24352WAT     H173298   4.897   3.212   4.952
24352WAT     H273299   5.012   3.100   4.924
24353WAT      O73300   7.290   4.027   0.892
24353WAT     H173301   7.324   3.935   0.875
24353WAT     H273302   7.305   4.084   0.810
24354WAT      O73303   4.609   2.427   8.001
24354WAT     H173304   4.626   2.331   7.979
24354WAT     H273305   4.511   2.445   7.998
24355WAT      O73306   8.659   6.054   7.743
24355WAT     H173307   8.579   5.993   7.747
24355WAT     H273308   8.730   6.011   7.687
24356WAT      O73309   4.257   8.752   5.510
24356WAT     H173310   4.271   8.749   5.411
24356WAT     H273311   4.343   8.775   5.555
24357WAT      O73312   6.341   0.230   1.272
24357WAT     H173313   6.319   0.306   1.332
24357WAT     H273314   6.302   0.145   1.308
24358WAT      O73315   0.960   7.459   7.304
24358WAT     H173316   0.929   7.478   7.397
24358WAT     H273317   0.984   7.362   7.296
24359WAT      O73318   1.230   6.674   7.190
24359WAT     H173319   1.189   6.712   7.273
24359WAT     H273320   1.183   6.589   7.165
24360WAT      O73321   7.393   4.805   0.107
24360WAT     H173322   7.310   4.828   0.157
24360WAT     H273323   7.439   4.728   0.152
24361WAT      O73324   9.620   0.158   2.504
24361WAT     H173325   9.557   0.236   2.502
24361WAT     H273326   9.593   0.096   2.578
24362WAT      O73327   5.616   8.544   8.056
24362WAT     H173328   5.595   8.624   8.112
24362WAT     H273329   5.542   8.478   8.063
24363WAT      O73330   3.184   7.315   1.372
24363WAT     H173331   3.090   7.348   1.381
24363WAT     H273332   3.193   7.227   1.419
24364WAT      O73333   4.620   5.524   8.103
24364WAT     H173334   4.614   5.527   8.003
24364WAT     H273335   4.653   5.434   8.132
24365WAT      O73336   5.857   1.993   2.037
24365WAT     H173337   5.925   1.921   2.024
24365WAT     H273338   5.771   1.967   1.994
24366WAT      O73339   6.430   4.467   6.702
24366WAT     H173340   6.403   4.525   6.625
24366WAT     H273341   6.519   4.497   6.737
24367WAT      O73342   8.375   0.404   7.566
24367WAT     H173343   8.408   0.347   7.491
24367WAT     H273344   8.411   0.369   7.653
24368WAT      O73345   4.991   0.588   6.833
24368WAT     H173346   4.937   0.668   6.808
24368WAT     H273347   5.072   0.582   6.775
24369WAT      O73348   1.991   3.431   9.737
24369WAT     H173349   1.991   3.387   9.827
24369WAT     H273350   1.901   3.419   9.695
24370WAT      O73351   8.972   2.500   2.630
24370WAT     H173352   9.037   2.432   2.664
24370WAT     H273353   8.946   2.562   2.704
24371WAT      O73354   4.587   3.506   3.421
24371WAT     H173355   4.654   3.562   3.472
24371WAT     H273356   4.563   3.426   3.475
24372WAT      O73357   9.487   0.841   1.188
24372WAT     H173358   9.500   0.940   1.193
24372WAT     H273359   9.536   0.797   1.263
24373WAT      O73360   0.941   5.486   1.603
24373WAT     H173361   0.926   5.523   1.512
24373WAT     H273362   1.028   5.437   1.606
24374WAT      O73363   9.565   5.881   6.063
24374WAT     H173364   9.619   5.800   6.088
24374WAT     H273365   9.513   5.911   6.143
24375WAT      O73366   4.140   5.309   5.016
24375WAT     H173367   4.042   5.325   5.008
24375WAT     H273368   4.162   5.277   5.108
24376WAT      O73369   3.681   0.248   4.054
24376WAT     H173370   3.647   0.334   4.017
24376WAT     H273371   3.625   0.219   4.131
24377WAT      O73372   9.647   3.219   1.211
24377WAT     H173373   9.639   3.123   1.241
24377WAT     H273374   9.561   3.267   1.232
24378WAT      O73375   2.903   4.828   6.500
24378WAT     H173376   2.874   4.915   6.460
24378WAT     H273377   2.963   4.780   6.437
24379WAT      O73378   1.013   1.887   8.871
24379WAT     H173379   1.049   1.979   8.855
24379WAT     H273380   1.052   1.824   8.802
24380WAT      O73381   7.450   9.831   9.595
24380WAT     H173382   7.468   9.866   9.686
24380WAT     H273383   7.528   9.777   9.564
24381WAT      O73384   7.178   3.511   1.186
24381WAT     H173385   7.144   3.516   1.092
24381WAT     H273386   7.172   3.416   1.218
24382WAT      O73387   6.695   1.435   4.864
24382WAT     H173388   6.663   1.353   4.818
24382WAT     H273389   6.759   1.484   4.805
24383WAT      O73390   8.448   6.123   5.951
24383WAT     H173391   8.446   6.190   5.876
24383WAT     H273392   8.439   6.031   5.913
24384WAT      O73393   8.279   4.549   9.110
24384WAT     H173394   8.310   4.544   9.205
24384WAT     H273395   8.358   4.558   9.049
24385WAT      O73396   5.931   4.733   4.958
24385WAT     H173397   6.003   4.725   5.026
24385WAT     H273398   5.854   4.673   4.983
24386WAT      O73399   0.801   9.507   8.745
24386WAT     H173400   0.731   9.557   8.695
24386WAT     H273401   0.820   9.420   8.699
24387WAT      O73402   8.806   8.256   3.564
24387WAT     H173403   8.899   8.291   3.555
24387WAT     H273404   8.740   8.327   3.538
24388WAT      O73405   2.055   4.951   2.455
24388WAT     H173406   2.051   4.857   2.420
24388WAT     H273407   2.004   4.957   2.540
24389WAT      O73408   7.463   7.731   6.965
24389WAT     H173409   7.494   7.688   6.881
24389WAT     H273410   7.430   7.823   6.945
24390WAT      O73411   6.254   4.007   8.306
24390WAT     H173412   6.229   4.053   8.221
24390WAT     H273413   6.321   4.062   8.356
24391WAT      O73414   8.300   5.110   0.617
24391WAT     H173415   8.236   5.098   0.541
24391WAT     H273416   8.380   5.052   0.603
24392WAT      O73417   8.728   5.664   9.550
24392WAT     H173418   8.691   5.681   9.641
24392WAT     H273419   8.828   5.675   9.552
24393WAT      O73420   2.583   0.365   4.257
24393WAT     H173421   2.617   0.272   4.241
24393WAT     H273422   2.620   0.426   4.187
24394WAT      O73423   9.248   4.759   7.627
24394WAT     H173424   9.326   4.780   7.687
24394WAT     H273425   9.165   4.751   7.682
24395WAT      O73426   8.902   7.650   9.786
24395WAT     H173427   8.909   7.554   9.759
24395WAT     H273428   8.994   7.687   9.800
24396WAT      O73429   9.038   2.743   1.221
24396WAT     H173430   9.121   2.784   1.183
24396WAT     H273431   8.959   2.770   1.167
24397WAT      O73432   2.817   9.271   1.158
24397WAT     H173433   2.737   9.214   1.176
24397WAT     H273434   2.840   9.266   1.061
24398WAT      O73435   6.113   3.616   6.589
24398WAT     H173436   6.132   3.627   6.491
24398WAT     H273437   6.014   3.621   6.604
24399WAT      O73438   7.924   2.512   9.250
24399WAT     H173439   7.954   2.430   9.298
24399WAT     H273440   7.978   2.590   9.281
24400WAT      O73441   3.594   3.217   1.515
24400WAT     H173442   3.498   3.246   1.509
24400WAT     H273443   3.598   3.125   1.553
24401WAT      O73444   7.945   3.830   2.815
24401WAT     H173445   7.941   3.841   2.915
24401WAT     H273446   7.892   3.903   2.772
24402WAT      O73447   9.059   4.915   3.214
24402WAT     H173448   9.129   4.952   3.275
24402WAT     H273449   9.086   4.929   3.119
24403WAT      O73450   3.761   0.682   3.944
24403WAT     H173451   3.668   0.685   3.908
24403WAT     H273452   3.776   0.761   4.003
24404WAT      O73453   5.094   0.553   8.251
24404WAT     H173454   5.158   0.604   8.193
24404WAT     H273455   5.009   0.604   8.259
24405WAT      O73456   5.883   4.048   7.080
24405WAT     H173457   5.785   4.055   7.064
24405WAT     H273458   5.911   4.115   7.148
24406WAT      O73459   4.954   8.471   7.924
24406WAT     H173460   4.939   8.471   7.825
24406WAT     H273461   4.960   8.376   7.956
24407WAT      O73462   2.380   8.353   2.652
24407WAT     H173463   2.452   8.333   2.719
24407WAT     H273464   2.323   8.428   2.687
24408WAT      O73465   2.269   1.871   9.166
24408WAT     H173466   2.347   1.835   9.217
24408WAT     H273467   2.298   1.894   9.073
24409WAT      O73468   3.943   6.391   0.347
24409WAT     H173469   3.977   6.416   0.256
24409WAT     H273470   3.843   6.397   0.347
24410WAT      O73471   3.549   1.323   4.842
24410WAT     H173472   3.618   1.266   4.796
24410WAT     H273473   3.462   1.275   4.842
24411WAT      O73474   5.383   0.427   4.728
24411WAT     H173475   5.388   0.328   4.726
24411WAT     H273476   5.306   0.456   4.785
24412WAT      O73477   3.052   1.944   1.199
24412WAT     H173478   2.960   1.934   1.237
24412WAT     H273479   3.096   1.855   1.193
24413WAT      O73480   0.013   2.614   9.186
24413WAT     H173481   0.034   2.541   9.121
24413WAT     H273482  -0.079   2.600   9.222
24414WAT      O73483   4.943   0.886   2.539
24414WAT     H173484   4.933   0.855   2.634
24414WAT     H273485   4.874   0.955   2.519
24415WAT      O73486   3.953   3.535   3.828
24415WAT     H173487   3.941   3.626   3.789
24415WAT     H273488   4.046   3.526   3.864
24416WAT      O73489   4.673   2.237   3.137
24416WAT     H173490   4.629   2.159   3.092
24416WAT     H273491   4.766   2.213   3.162
24417WAT      O73492   4.681   8.059   2.580
24417WAT     H173493   4.665   8.021   2.670
24417WAT     H273494   4.669   8.159   2.583
24418WAT      O73495   3.994   9.775   4.725
24418WAT     H173496   3.955   9.867   4.719
24418WAT     H273497   4.054   9.760   4.647
24419WAT      O73498   8.385   3.498   9.094
24419WAT     H173499   8.398   3.510   9.192
24419WAT     H273500   8.458   3.544   9.044
24420WAT      O73501   1.662   7.502   2.470
24420WAT     H173502   1.608   7.586   2.463
24420WAT     H273503   1.696   7.476   2.379
24421WAT      O73504   3.538   5.810   2.471
24421WAT     H173505   3.556   5.897   2.426
24421WAT     H273506   3.607   5.743   2.442
24422WAT      O73507   9.285   9.576   6.613
24422WAT     H173508   9.253   9.484   6.592
24422WAT     H273509   9.223   9.643   6.571
24423WAT      O73510   3.422   5.445   2.659
24423WAT     H173511   3.462   5.494   2.737
24423WAT     H273512   3.430   5.346   2.675
24424WAT      O73513   5.106   0.052   6.125
24424WAT     H173514   5.135  -0.042   6.106
24424WAT     H273515   5.134   0.111   6.049
24425WAT      O73516   5.162   1.947   0.047
24425WAT     H173517   5.133   1.951  -0.049
24425WAT     H273518   5.220   1.867   0.060
24426WAT      O73519   7.852   6.484   9.799
24426WAT     H173520   7.849   6.439   9.709
24426WAT     H273521   7.860   6.415   9.870
24427WAT      O73522   1.761   5.265   8.295
24427WAT     H173523   1.738   5.179   8.342
24427WAT     H273524   1.680   5.298   8.247
24428WAT      O73525   0.182   1.214   1.012
24428WAT     H173526   0.194   1.176   1.104
24428WAT     H273527   0.217   1.148   0.945
24429WAT      O73528   5.880   6.182   5.794
24429WAT     H173529   5.905   6.174   5.698
24429WAT     H273530   5.781   6.173   5.804
24430WAT      O73531   7.632   5.139   1.295
24430WAT     H173532   7.660   5.048   1.325
24430WAT     H273533   7.698   5.207   1.327
24431WAT      O73534   2.493   7.528   9.774
24431WAT     H173535   2.474   7.529   9.676
24431WAT     H273536   2.526   7.617   9.803
24432WAT      O73537   6.321   2.909   6.101
24432WAT     H173538   6.300   2.945   6.192
24432WAT     H273539   6.400   2.848   6.107
24433WAT      O73540   5.560   1.327   3.179
24433WAT     H173541   5.598   1.415   3.208
24433WAT     H273542   5.626   1.254   3.199
24434WAT      O73543   7.267   6.965   8.365
24434WAT     H173544   7.307   6.878   8.335
24434WAT     H273545   7.306   6.991   8.453
24435WAT      O73546   9.136   2.623   0.542
24435WAT     H173547   9.070   2.563   0.497
24435WAT     H273548   9.192   2.670   0.474
24436WAT      O73549   3.162   3.329   8.737
24436WAT     H173550   3.248   3.351   8.782
24436WAT     H273551   3.097   3.403   8.751
24437WAT      O73552   6.395   1.935   2.215
24437WAT     H173553   6.471   1.990   2.250
24437WAT     H273554   6.334   1.911   2.291
24438WAT      O73555   1.440   1.079   7.139
24438WAT     H173556   1.534   1.095   7.170
24438WAT     H273557   1.441   1.020   7.058
24439WAT      O73558   2.182   5.152   6.374
24439WAT     H173559   2.192   5.080   6.305
24439WAT     H273560   2.263   5.210   6.375
24440WAT      O73561   5.206   7.487   0.704
24440WAT     H173562   5.289   7.528   0.741
24440WAT     H273563   5.167   7.424   0.772
24441WAT      O73564   3.357   3.241   1.214
24441WAT     H173565   3.353   3.242   1.314
24441WAT     H273566   3.353   3.335   1.180
24442WAT      O73567   4.429   2.435   0.137
24442WAT     H173568   4.519   2.456   0.098
24442WAT     H273569   4.370   2.515   0.128
24443WAT      O73570   2.048   9.225   5.566
24443WAT     H173571   2.124   9.169   5.601
24443WAT     H273572   1.983   9.241   5.640
24444WAT      O73573   1.960   3.572   0.249
24444WAT     H173574   1.970   3.653   0.308
24444WAT     H273575   1.870   3.575   0.205
24445WAT      O73576   1.785   9.495   1.029
24445WAT     H173577   1.760   9.400   1.014
24445WAT     H273578   1.795   9.512   1.127
24446WAT      O73579   7.027   4.713   5.951
24446WAT     H173580   6.967   4.744   5.877
24446WAT     H273581   7.088   4.642   5.916
24447WAT      O73582   4.072   5.562   6.042
24447WAT     H173583   4.010   5.495   6.001
24447WAT     H273584   4.040   5.584   6.134
24448WAT      O73585   2.158   9.413   2.626
24448WAT     H173586   2.187   9.337   2.567
24448WAT     H273587   2.142   9.494   2.570
24449WAT      O73588   2.106   8.167   8.968
24449WAT     H173589   2.165   8.244   8.943
24449WAT     H273590   2.151   8.112   9.038
24450WAT      O73591   9.783   2.476   4.664
24450WAT     H173592   9.791   2.467   4.564
24450WAT     H273593   9.856   2.423   4.707
24451WAT      O73594   0.797   5.711   7.657
24451WAT     H173595   0.827   5.669   7.742
24451WAT     H273596   0.776   5.640   7.590
24452WAT      O73597   4.811   2.625   5.773
24452WAT     H173598   4.829   2.723   5.771
24452WAT     H273599   4.871   2.580   5.839
24453WAT      O73600   6.049   4.020   4.844
24453WAT     H173601   5.996   3.943   4.807
24453WAT     H273602   6.004   4.055   4.926
24454WAT      O73603   7.964   3.686   4.046
24454WAT     H173604   7.941   3.772   4.002
24454WAT     H273605   8.059   3.688   4.076
24455WAT      O73606   9.091   8.964   7.046
24455WAT     H173607   9.055   9.003   6.961
24455WAT     H273608   9.147   8.884   7.025
24456WAT      O73609   8.206   5.716   8.716
24456WAT     H173610   8.271   5.639   8.720
24456WAT     H273611   8.234   5.786   8.782
24457WAT      O73612   8.645   8.017   5.358
24457WAT     H173613   8.625   8.072   5.439
24457WAT     H273614   8.743   7.999   5.353
24458WAT      O73615   6.771   6.518   2.517
24458WAT     H173616   6.860   6.499   2.475
24458WAT     H273617   6.701   6.519   2.446
24459WAT      O73618   6.191   2.752   0.900
24459WAT     H173619   6.247   2.675   0.870
24459WAT     H273620   6.097   2.722   0.914
24460WAT      O73621   0.008   1.728   7.986
24460WAT     H173622   0.072   1.652   7.996
24460WAT     H273623  -0.074   1.697   7.938
24461WAT      O73624   5.190   1.614   9.125
24461WAT     H173625   5.196   1.609   9.225
24461WAT     H273626   5.234   1.698   9.093
24462WAT      O73627   5.109   1.920   8.402
24462WAT     H173628   5.161   1.837   8.423
24462WAT     H273629   5.172   1.993   8.378
24463WAT      O73630   5.970   5.438   4.302
24463WAT     H173631   5.999   5.344   4.286
24463WAT     H273632   5.904   5.440   4.377
24464WAT      O73633   1.465   5.771   1.505
24464WAT     H173634   1.436   5.866   1.499
24464WAT     H273635   1.510   5.744   1.420
24465WAT      O73636   6.893   5.780   9.874
24465WAT     H173637   6.957   5.756   9.947
24465WAT     H273638   6.829   5.704   9.859
24466WAT      O73639   6.198   5.589   4.350
24466WAT     H173640   6.188   5.682   4.315
24466WAT     H273641   6.112   5.539   4.338
24467WAT      O73642   7.295   3.497   8.053
24467WAT     H173643   7.357   3.422   8.076
24467WAT     H273644   7.275   3.551   8.135
24468WAT      O73645   3.858   7.094   5.095
24468WAT     H173646   3.767   7.077   5.134
24468WAT     H273647   3.918   7.016   5.115
24469WAT      O73648   2.522   8.416   7.153
24469WAT     H173649   2.487   8.362   7.229
24469WAT     H273650   2.466   8.400   7.072
24470WAT      O73651   0.555   4.027   6.600
24470WAT     H173652   0.491   3.967   6.647
24470WAT     H273653   0.525   4.122   6.612
24471WAT      O73654   4.204   2.240   9.513
24471WAT     H173655   4.132   2.172   9.496
24471WAT     H273656   4.292   2.202   9.485
24472WAT      O73657   0.595   3.040   8.594
24472WAT     H173658   0.678   3.013   8.643
24472WAT     H273659   0.515   3.015   8.648
24473WAT      O73660   5.243   7.851   4.326
24473WAT     H173661   5.235   7.759   4.366
24473WAT     H273662   5.306   7.906   4.380
24474WAT      O73663   1.069   1.371   7.613
24474WAT     H173664   1.044   1.346   7.707
24474WAT     H273665   1.065   1.290   7.555
24475WAT      O73666   0.380   8.340   6.881
24475WAT     H173667   0.353   8.311   6.972
24475WAT     H273668   0.301   8.377   6.832
24476WAT      O73669   1.498   2.591   6.299
24476WAT     H173670   1.404   2.621   6.311
24476WAT     H273671   1.552   2.620   6.378
24477WAT      O73672   2.390   0.765   7.347
24477WAT     H173673   2.427   0.853   7.377
24477WAT     H273674   2.364   0.771   7.250
24478WAT      O73675   8.333   8.950   7.264
24478WAT     H173676   8.263   9.011   7.300
24478WAT     H273677   8.308   8.855   7.285
24479WAT      O73678   5.048   9.710   0.028
24479WAT     H173679   5.037   9.715   0.127
24479WAT     H273680   5.016   9.620  -0.004
24480WAT      O73681   5.144   8.851   7.881
24480WAT     H173682   5.156   8.777   7.815
24480WAT     H273683   5.180   8.822   7.970
24481WAT      O73684   6.406   6.473   7.380
24481WAT     H173685   6.456   6.399   7.425
24481WAT     H273686   6.471   6.536   7.337
24482WAT      O73687   8.300   9.076   5.665
24482WAT     H173688   8.216   9.092   5.717
24482WAT     H273689   8.318   8.978   5.659
24483WAT      O73690   2.313   0.516   0.788
24483WAT     H173691   2.275   0.429   0.818
24483WAT     H273692   2.402   0.531   0.830
24484WAT      O73693   7.363   2.107   0.289
24484WAT     H173694   7.461   2.086   0.280
24484WAT     H273695   7.351   2.206   0.293
24485WAT      O73696   4.360   7.133   7.180
24485WAT     H173697   4.356   7.034   7.170
24485WAT     H273698   4.389   7.157   7.273
24486WAT      O73699   9.411   4.252   6.525
24486WAT     H173700   9.385   4.199   6.605
24486WAT     H273701   9.405   4.350   6.546
24487WAT      O73702   7.510   6.140   1.591
24487WAT     H173703   7.444   6.212   1.572
24487WAT     H273704   7.514   6.123   1.690
24488WAT      O73705   3.110   5.910   5.307
24488WAT     H173706   3.145   5.904   5.401
24488WAT     H273707   3.186   5.922   5.243
24489WAT      O73708   8.111   7.111   2.064
24489WAT     H173709   8.145   7.034   2.011
24489WAT     H273710   8.150   7.196   2.029
24490WAT      O73711   0.710   0.783   8.847
24490WAT     H173712   0.802   0.754   8.821
24490WAT     H273713   0.704   0.883   8.842
24491WAT      O73714   0.972   7.394   4.432
24491WAT     H173715   0.966   7.300   4.398
24491WAT     H273716   0.884   7.439   4.420
24492WAT      O73717   3.355   5.949   8.856
24492WAT     H173718   3.280   5.989   8.909
24492WAT     H273719   3.442   5.968   8.901
24493WAT      O73720   7.884   5.077   8.778
24493WAT     H173721   7.867   5.000   8.716
24493WAT     H273722   7.982   5.086   8.793
24494WAT      O73723   9.193   0.465   0.409
24494WAT     H173724   9.095   0.477   0.390
24494WAT     H273725   9.245   0.479   0.325
24495WAT      O73726   5.816   8.535   2.634
24495WAT     H173727   5.867   8.468   2.688
24495WAT     H273728   5.780   8.491   2.551
24496WAT      O73729   3.586   4.670   5.349
24496WAT     H173730   3.605   4.768   5.347
24496WAT     H273731   3.614   4.629   5.263
24497WAT      O73732   6.198   1.005   8.603
24497WAT     H173733   6.158   1.091   8.634
24497WAT     H273734   6.293   1.000   8.633
24498WAT      O73735   7.191   1.645   5.672
24498WAT     H173736   7.266   1.595   5.716
24498WAT     H273737   7.199   1.639   5.573
24499WAT      O73738   5.842   1.280   1.665
24499WAT     H173739   5.931   1.320   1.687
24499WAT     H273740   5.773   1.313   1.730
24500WAT      O73741   6.469   4.769   7.829
24500WAT     H173742   6.484   4.670   7.835
24500WAT     H273743   6.450   4.794   7.735
24501WAT      O73744   2.607   2.042   4.098
24501WAT     H173745   2.591   2.053   4.000
24501WAT     H273746   2.563   2.116   4.148
24502WAT      O73747   0.545   0.503   1.890
24502WAT     H173748   0.481   0.580   1.894
24502WAT     H273749   0.597   0.499   1.976
24503WAT      O73750   0.633   5.759   5.124
24503WAT     H173751   0.597   5.802   5.207
24503WAT     H273752   0.605   5.663   5.122
24504WAT      O73753   5.004   4.765   4.959
24504WAT     H173754   4.964   4.790   4.871
24504WAT     H273755   5.031   4.849   5.007
24505WAT      O73756   4.240   2.237   7.022
24505WAT     H173757   4.198   2.278   6.942
24505WAT     H273758   4.254   2.139   7.006
24506WAT      O73759   5.834   5.821   5.247
24506WAT     H173760   5.895   5.881   5.300
24506WAT     H273761   5.757   5.794   5.303
24507WAT      O73762   9.774   6.440   2.206
24507WAT     H173763   9.774   6.508   2.280
24507WAT     H273764   9.754   6.486   2.119
24508WAT      O73765   9.877   7.266   8.024
24508WAT     H173766   9.954   7.274   7.962
24508WAT     H273767   9.899   7.310   8.112
24509WAT      O73768   4.935   6.313   7.581
24509WAT     H173769   4.878   6.389   7.548
24509WAT     H273770   4.933   6.310   7.681
24510WAT      O73771   6.305   0.368   9.844
24510WAT     H173772   6.318   0.391   9.940
24510WAT     H273773   6.210   0.341   9.828
24511WAT      O73774   6.558   1.613   1.907
24511WAT     H173775   6.543   1.582   1.813
24511WAT     H273776   6.613   1.546   1.956
24512WAT      O73777   3.528   5.455   3.736
24512WAT     H173778   3.544   5.444   3.834
24512WAT     H273779   3.606   5.504   3.696
24513WAT      O73780   5.557   4.628   7.667
24513WAT     H173781   5.569   4.712   7.718
24513WAT     H273782   5.617   4.557   7.705
24514WAT      O73783   2.774   2.151   5.127
24514WAT     H173784   2.739   2.156   5.034
24514WAT     H273785   2.757   2.238   5.174
24515WAT      O73786   1.540   5.315   6.888
24515WAT     H173787   1.545   5.257   6.970
24515WAT     H273788   1.581   5.267   6.811
24516WAT      O73789   3.122   9.813   2.256
24516WAT     H173790   3.195   9.874   2.225
24516WAT     H273791   3.106   9.829   2.354
24517WAT      O73792   2.866   1.320   8.071
24517WAT     H173793   2.932   1.309   8.145
24517WAT     H273794   2.893   1.263   7.993
24518WAT      O73795   7.038   6.270   3.190
24518WAT     H173796   7.003   6.361   3.211
24518WAT     H273797   6.966   6.203   3.206
24519WAT      O73798   5.548   4.031   1.876
24519WAT     H173799   5.510   4.119   1.906
24519WAT     H273800   5.475   3.963   1.873
24520WAT      O73801   9.503   1.347   9.814
24520WAT     H173802   9.478   1.291   9.735
24520WAT     H273803   9.516   1.288   9.893
24521WAT      O73804   0.395   0.501   2.897
24521WAT     H173805   0.331   0.528   2.826
24521WAT     H273806   0.479   0.466   2.856
24522WAT      O73807   7.258   0.411   9.591
24522WAT     H173808   7.333   0.363   9.636
24522WAT     H273809   7.295   0.487   9.537
24523WAT      O73810   9.045   0.610   7.062
24523WAT     H173811   9.020   0.606   6.965
24523WAT     H273812   8.997   0.538   7.112
24524WAT      O73813   7.253   0.275   0.033
24524WAT     H173814   7.320   0.308  -0.034
24524WAT     H273815   7.290   0.195   0.081
24525WAT      O73816   2.132   1.980   5.536
24525WAT     H173817   2.230   1.968   5.518
24525WAT     H273818   2.107   1.927   5.617
24526WAT      O73819   8.914   6.034   3.083
24526WAT     H173820   8.835   6.014   3.025
24526WAT     H273821   8.987   6.073   3.027
24527WAT      O73822   0.141   4.292   4.773
24527WAT     H173823   0.237   4.310   4.751
24527WAT     H273824   0.119   4.197   4.753
24528WAT      O73825   3.017   0.293   1.725
24528WAT     H173826   2.938   0.235   1.741
24528WAT     H273827   3.022   0.363   1.797
24529WAT      O73828   9.630   2.786   4.307
24529WAT     H173829   9.694   2.855   4.341
24529WAT     H273830   9.609   2.721   4.380
24530WAT      O73831   6.605   9.130   1.176
24530WAT     H173832   6.650   9.132   1.087
24530WAT     H273833   6.543   9.052   1.181
24531WAT      O73834   6.725   6.522   2.803
24531WAT     H173835   6.712   6.519   2.704
24531WAT     H273836   6.773   6.439   2.833
24532WAT      O73837   1.886   3.189   4.409
24532WAT     H173838   1.874   3.287   4.422
24532WAT     H273839   1.969   3.159   4.456
24533WAT      O73840   5.926   1.676   4.818
24533WAT     H173841   5.851   1.711   4.761
24533WAT     H273842   5.976   1.752   4.859
24534WAT      O73843   1.516   1.249   8.777
24534WAT     H173844   1.566   1.176   8.822
24534WAT     H273845   1.558   1.337   8.800
24535WAT      O73846   7.112   1.841   5.882
24535WAT     H173847   7.158   1.929   5.895
24535WAT     H273848   7.137   1.804   5.793
24536WAT      O73849   0.353   1.784   3.513
24536WAT     H173850   0.315   1.874   3.493
24536WAT     H273851   0.314   1.750   3.599
24537WAT      O73852   6.089   8.789   1.420
24537WAT     H173853   6.109   8.835   1.333
24537WAT     H273854   6.127   8.843   1.495
24538WAT      O73855   1.069   8.209   1.529
24538WAT     H173856   1.056   8.134   1.594
24538WAT     H273857   0.993   8.274   1.538
24539WAT      O73858   5.917   1.330   3.022
24539WAT     H173859   5.985   1.293   2.959
24539WAT     H273860   5.852   1.258   3.047
24540WAT      O73861   7.911   2.664   0.460
24540WAT     H173862   7.876   2.726   0.389
24540WAT     H273863   7.961   2.718   0.528
24541WAT      O73864   7.052   5.943   1.242
24541WAT     H173865   6.977   5.966   1.182
24541WAT     H273866   7.120   5.889   1.192
24542WAT      O73867   0.980   4.214   3.671
24542WAT     H173868   0.894   4.204   3.721
24542WAT     H273869   0.977   4.297   3.616
24543WAT      O73870   4.008   0.712   5.390
24543WAT     H173871   4.013   0.614   5.371
24543WAT     H273872   4.094   0.743   5.431
24544WAT      O73873   5.774   6.776   2.548
24544WAT     H173874   5.822   6.769   2.636
24544WAT     H273875   5.700   6.709   2.545
24545WAT      O73876   5.600   1.562   9.391
24545WAT     H173877   5.615   1.537   9.486
24545WAT     H273878   5.539   1.642   9.386
24546WAT      O73879   1.632   3.313   6.681
24546WAT     H173880   1.650   3.387   6.616
24546WAT     H273881   1.536   3.284   6.672
24547WAT      O73882   5.989   3.482   0.416
24547WAT     H173883   5.977   3.418   0.492
24547WAT     H273884   6.064   3.545   0.436
24548WAT      O73885   9.094   8.533   0.905
24548WAT     H173886   9.149   8.461   0.862
24548WAT     H273887   9.035   8.576   0.836
24549WAT      O73888   0.734   3.664   1.899
24549WAT     H173889   0.701   3.580   1.855
24549WAT     H273890   0.820   3.645   1.945
24550WAT      O73891   0.676   1.319   4.350
24550WAT     H173892   0.725   1.242   4.392
24550WAT     H273893   0.585   1.290   4.324
24551WAT      O73894   2.762   3.978   0.947
24551WAT     H173895   2.808   3.977   0.858
24551WAT     H273896   2.821   3.936   1.016
24552WAT      O73897   2.707   3.502   3.416
24552WAT     H173898   2.711   3.586   3.470
24552WAT     H273899   2.622   3.500   3.364
24553WAT      O73900   5.035   0.899   4.057
24553WAT     H173901   4.999   0.979   4.007
24553WAT     H273902   5.086   0.841   3.994
24554WAT      O73903   5.465   4.656   3.871
24554WAT     H173904   5.375   4.695   3.850
24554WAT     H273905   5.509   4.712   3.941
24555WAT      O73906   3.270   4.894   1.646
24555WAT     H173907   3.288   4.826   1.717
24555WAT     H273908   3.186   4.943   1.668
24556WAT      O73909   0.295   0.526   8.216
24556WAT     H173910   0.270   0.622   8.204
24556WAT     H273911   0.270   0.474   8.134
24557WAT      O73912   5.775   3.927   2.286
24557WAT     H173913   5.870   3.934   2.318
24557WAT     H273914   5.743   4.018   2.258
24558WAT      O73915   0.991   8.288   0.327
24558WAT     H173916   1.064   8.330   0.381
24558WAT     H273917   0.982   8.191   0.352
24559WAT      O73918   9.309   3.817   8.430
24559WAT     H173919   9.303   3.718   8.421
24559WAT     H273920   9.272   3.845   8.519
24560WAT      O73921   6.436   4.103   3.992
24560WAT     H173922   6.351   4.154   4.005
24560WAT     H273923   6.503   4.160   3.944
24561WAT      O73924   1.057   6.454   3.839
24561WAT     H173925   0.981   6.501   3.883
24561WAT     H273926   1.029   6.425   3.748
24562WAT      O73927   1.602   7.959   7.774
24562WAT     H173928   1.657   8.014   7.711
24562WAT     H273929   1.514   8.005   7.789
24563WAT      O73930   1.594   2.430   3.051
24563WAT     H173931   1.646   2.381   2.982
24563WAT     H273932   1.579   2.371   3.131
24564WAT      O73933   1.944   0.013   7.230
24564WAT     H173934   1.853  -0.025   7.240
24564WAT     H273935   1.967   0.067   7.311
24565WAT      O73936   0.082   6.536   3.382
24565WAT     H173937   0.064   6.458   3.321
24565WAT     H273938   0.147   6.508   3.452
24566WAT      O73939   6.332   6.521   8.642
24566WAT     H173940   6.283   6.587   8.699
24566WAT     H273941   6.267   6.459   8.598
24567WAT      O73942   6.453   4.828   0.019
24567WAT     H173943   6.397   4.767   0.076
24567WAT     H273944   6.533   4.858   0.071
24568WAT      O73945   1.366   6.343   4.773
24568WAT     H173946   1.424   6.342   4.855
24568WAT     H273947   1.301   6.268   4.778
24569WAT      O73948   0.371   7.433   9.268
24569WAT     H173949   0.333   7.515   9.226
24569WAT     H273950   0.297   7.372   9.296
24570WAT      O73951   2.305   0.044   2.483
24570WAT     H173952   2.331  -0.039   2.433
24570WAT     H273953   2.232   0.091   2.434
24571WAT      O73954   8.058   1.215   9.070
24571WAT     H173955   8.094   1.276   9.141
24571WAT     H273956   8.134   1.168   9.025
24572WAT      O73957   7.037   8.323   0.634
24572WAT     H173958   7.053   8.323   0.733
24572WAT     H273959   6.976   8.398   0.611
24573WAT      O73960   5.836   8.393   3.304
24573WAT     H173961   5.909   8.457   3.279
24573WAT     H273962   5.848   8.307   3.256
24574WAT      O73963   2.650   1.374   1.668
24574WAT     H173964   2.704   1.405   1.589
24574WAT     H273965   2.611   1.284   1.647
24575WAT      O73966   0.189   4.058   9.041
24575WAT     H173967   0.151   3.966   9.051
24575WAT     H273968   0.285   4.052   9.016
24576WAT      O73969   7.449   1.418   7.553
24576WAT     H173970   7.529   1.367   7.522
24576WAT     H273971   7.460   1.443   7.649
24577WAT      O73972   3.907   0.745   0.383
24577WAT     H173973   3.963   0.774   0.460
24577WAT     H273974   3.955   0.765   0.298
24578WAT      O73975   0.607   6.527   6.472
24578WAT     H173976   0.638   6.436   6.502
24578WAT     H273977   0.687   6.582   6.446
24579WAT      O73978   7.584   8.565   1.740
24579WAT     H173979   7.531   8.591   1.659
24579WAT     H273980   7.528   8.579   1.822
24580WAT      O73981   3.127   1.379   3.683
24580WAT     H173982   3.217   1.383   3.641
24580WAT     H273983   3.061   1.425   3.624
24581WAT      O73984   0.868   3.918   0.654
24581WAT     H173985   0.878   3.837   0.711
24581WAT     H273986   0.880   4.000   0.711
24582WAT      O73987   1.872   4.792   4.198
24582WAT     H173988   1.954   4.828   4.243
24582WAT     H273989   1.849   4.850   4.120
24583WAT      O73990   7.564   2.991   4.804
24583WAT     H173991   7.591   2.956   4.715
24583WAT     H273992   7.491   2.933   4.842
24584WAT      O73993   3.226   5.211   1.988
24584WAT     H173994   3.285   5.132   2.006
24584WAT     H273995   3.205   5.216   1.890
24585WAT      O73996   9.183   1.990   9.606
24585WAT     H173997   9.189   2.017   9.509
24585WAT     H273998   9.262   2.027   9.655
24586WAT      O73999   5.873   1.057   7.418
24586WAT     H174000   5.917   1.129   7.472
24586WAT     H274001   5.878   0.970   7.467
24587WAT      O74002   4.446   7.772   2.251
24587WAT     H174003   4.538   7.812   2.258
24587WAT     H274004   4.408   7.762   2.343
24588WAT      O74005   5.039   9.682   6.455
24588WAT     H174006   5.032   9.761   6.394
24588WAT     H274007   4.964   9.618   6.435
24589WAT      O74008   8.099   4.339   7.006
24589WAT     H174009   8.045   4.286   6.941
24589WAT     H274010   8.195   4.312   6.999
24590WAT      O74011   5.136   5.921   3.616
24590WAT     H174012   5.049   5.879   3.591
24590WAT     H274013   5.136   5.939   3.715
24591WAT      O74014   6.885   9.480   4.673
24591WAT     H174015   6.787   9.467   4.657
24591WAT     H274016   6.926   9.528   4.596
24592WAT      O74017   0.339   0.787   3.649
24592WAT     H174018   0.344   0.848   3.570
24592WAT     H274019   0.320   0.694   3.618
24593WAT      O74020   8.995   6.887   5.753
24593WAT     H174021   8.964   6.839   5.671
24593WAT     H274022   8.945   6.973   5.762
24594WAT      O74023   9.532   2.383   8.290
24594WAT     H174024   9.569   2.308   8.235
24594WAT     H274025   9.538   2.359   8.387
24595WAT      O74026   4.562   2.162   4.412
24595WAT     H174027   4.609   2.250   4.418
24595WAT     H274028   4.549   2.125   4.504
24596WAT      O74029   1.829   0.953   3.844
24596WAT     H174030   1.895   0.887   3.880
24596WAT     H274031   1.739   0.935   3.884
24597WAT      O74032   2.705   0.092   7.385
24597WAT     H174033   2.727   0.069   7.480
24597WAT     H274034   2.787   0.086   7.329
24598WAT      O74035   1.861   5.735   9.563
24598WAT     H174036   1.932   5.742   9.633
24598WAT     H274037   1.879   5.800   9.490
24599WAT      O74038   3.426   5.938   5.995
24599WAT     H174039   3.330   5.942   6.023
24599WAT     H274040   3.480   6.002   6.049
24600WAT      O74041   0.240   8.152   1.233
24600WAT     H174042   0.246   8.248   1.263
24600WAT     H274043   0.150   8.135   1.194
24601WAT      O74044   2.272   7.106   2.490
24601WAT     H174045   2.271   7.039   2.564
24601WAT     H274046   2.185   7.101   2.440
24602WAT      O74047   0.961   0.822   8.376
24602WAT     H174048   1.017   0.740   8.391
24602WAT     H274049   1.019   0.903   8.382
24603WAT      O74050   5.741   2.836   1.941
24603WAT     H174051   5.771   2.911   1.999
24603WAT     H274052   5.731   2.868   1.847
24604WAT      O74053   9.638   4.229   0.199
24604WAT     H174054   9.692   4.222   0.116
24604WAT     H274055   9.655   4.318   0.242
24605WAT      O74056   1.949   7.609   4.145
24605WAT     H174057   1.972   7.532   4.205
24605WAT     H274058   1.990   7.693   4.181
24606WAT      O74059   1.804   0.347   6.456
24606WAT     H174060   1.796   0.284   6.533
24606WAT     H274061   1.898   0.381   6.450
24607WAT      O74062   7.504   6.233   0.535
24607WAT     H174063   7.576   6.217   0.602
24607WAT     H274064   7.533   6.304   0.471
24608WAT      O74065   8.861   3.538   3.309
24608WAT     H174066   8.837   3.473   3.237
24608WAT     H274067   8.886   3.488   3.392
24609WAT      O74068   0.982   1.782   6.073
24609WAT     H174069   0.955   1.687   6.088
24609WAT     H274070   0.971   1.805   5.976
24610WAT      O74071   7.173   5.368   5.546
24610WAT     H174072   7.094   5.418   5.581
24610WAT     H274073   7.152   5.270   5.544
24611WAT      O74074   7.408   5.464   0.245
24611WAT     H174075   7.505   5.484   0.227
24611WAT     H274076   7.375   5.522   0.319
24612WAT      O74077   4.543   0.186   3.499
24612WAT     H174078   4.503   0.138   3.577
24612WAT     H274079   4.594   0.266   3.532
24613WAT      O74080   7.348   0.022   0.814
24613WAT     H174081   7.306   0.087   0.752
24613WAT     H274082   7.350  -0.069   0.772
24614WAT      O74083   1.032   1.064   0.843
24614WAT     H174084   1.078   1.117   0.914
24614WAT     H274085   0.977   0.992   0.886
24615WAT      O74086   3.552   3.881   0.194
24615WAT     H174087   3.626   3.888   0.127
24615WAT     H274088   3.536   3.970   0.236
24616WAT      O74089   2.490   0.931   4.377
24616WAT     H174090   2.420   0.906   4.443
24616WAT     H274091   2.576   0.887   4.401
24617WAT      O74092   9.520   6.006   8.585
24617WAT     H174093   9.536   6.045   8.494
24617WAT     H274094   9.607   6.003   8.635
24618WAT      O74095   2.301   5.772   2.557
24618WAT     H174096   2.289   5.872   2.556
24618WAT     H274097   2.374   5.748   2.620
24619WAT      O74098   4.656   3.412   5.783
24619WAT     H174099   4.599   3.400   5.864
24619WAT     H274100   4.622   3.354   5.709
24620WAT      O74101   6.192   1.500   8.466
24620WAT     H174102   6.245   1.434   8.412
24620WAT     H274103   6.107   1.521   8.419
24621WAT      O74104   8.413   7.361   2.329
24621WAT     H174105   8.462   7.277   2.306
24621WAT     H274106   8.449   7.436   2.274
24622WAT      O74107   8.728   5.771   6.104
24622WAT     H174108   8.730   5.745   6.007
24622WAT     H274109   8.726   5.871   6.111
24623WAT      O74110   5.029   6.881   8.191
24623WAT     H174111   4.938   6.911   8.163
24623WAT     H274112   5.066   6.818   8.123
24624WAT      O74113   4.061   5.473   3.806
24624WAT     H174114   4.057   5.563   3.763
24624WAT     H274115   4.046   5.402   3.737
24625WAT      O74116   9.581   9.749   7.615
24625WAT     H174117   9.503   9.692   7.642
24625WAT     H274118   9.654   9.740   7.684
24626WAT      O74119   6.871   7.390   5.628
24626WAT     H174120   6.846   7.486   5.613
24626WAT     H274121   6.954   7.385   5.683
24627WAT      O74122   9.712   2.261   2.209
24627WAT     H174123   9.784   2.327   2.185
24627WAT     H274124   9.728   2.176   2.160
24628WAT      O74125   0.352   7.119   2.422
24628WAT     H174126   0.441   7.137   2.380
24628WAT     H274127   0.296   7.201   2.417
24629WAT      O74128   0.619   6.834   7.756
24629WAT     H174129   0.718   6.850   7.758
24629WAT     H274130   0.579   6.864   7.842
24630WAT      O74131   2.366   7.017   6.808
24630WAT     H174132   2.297   7.003   6.880
24630WAT     H274133   2.434   6.944   6.812
24631WAT      O74134   0.214   4.288   5.192
24631WAT     H174135   0.156   4.334   5.124
24631WAT     H274136   0.199   4.190   5.188
24632WAT      O74137   7.604   4.687   5.049
24632WAT     H174138   7.528   4.746   5.024
24632WAT     H274139   7.671   4.739   5.102
24633WAT      O74140   3.528   4.909   0.930
24633WAT     H174141   3.521   4.843   0.856
24633WAT     H274142   3.440   4.955   0.942
24634WAT      O74143   2.168   5.789   9.329
24634WAT     H174144   2.093   5.786   9.262
24634WAT     H274145   2.163   5.875   9.380
24635WAT      O74146   0.634   6.587   1.993
24635WAT     H174147   0.702   6.605   2.065
24635WAT     H274148   0.546   6.627   2.020
24636WAT      O74149   9.285   6.341   0.937
24636WAT     H174150   9.373   6.313   0.973
24636WAT     H274151   9.222   6.362   1.012
24637WAT      O74152   7.928   9.101   3.896
24637WAT     H174153   7.999   9.036   3.922
24637WAT     H274154   7.887   9.140   3.978
24638WAT      O74155   0.828   4.780   7.658
24638WAT     H174156   0.916   4.745   7.627
24638WAT     H274157   0.763   4.780   7.581
24639WAT      O74158   4.270   9.073   6.352
24639WAT     H174159   4.226   9.038   6.269
24639WAT     H274160   4.370   9.069   6.341
24640WAT      O74161   1.295   4.116   4.014
24640WAT     H174162   1.275   4.113   3.916
24640WAT     H274163   1.241   4.046   4.061
24641WAT      O74164   2.919   4.008   2.092
24641WAT     H174165   3.016   4.021   2.067
24641WAT     H274166   2.899   3.911   2.097
24642WAT      O74167   7.450   3.218   8.108
24642WAT     H174168   7.497   3.220   8.196
24642WAT     H274169   7.352   3.204   8.122
24643WAT      O74170   3.307   0.475   2.077
24643WAT     H174171   3.360   0.519   2.004
24643WAT     H274172   3.340   0.507   2.166
24644WAT      O74173   7.005   5.483   0.958
24644WAT     H174174   7.071   5.465   0.885
24644WAT     H274175   7.053   5.485   1.046
24645WAT      O74176   5.454   3.971   8.722
24645WAT     H174177   5.482   3.915   8.800
24645WAT     H274178   5.354   3.978   8.719
24646WAT      O74179   2.543   2.873   0.304
24646WAT     H174180   2.511   2.935   0.232
24646WAT     H274181   2.633   2.903   0.336
24647WAT      O74182   3.427   0.694   0.315
24647WAT     H174183   3.364   0.739   0.251
24647WAT     H274184   3.455   0.606   0.277
24648WAT      O74185   2.627   8.524   0.689
24648WAT     H174186   2.631   8.530   0.589
24648WAT     H274187   2.548   8.467   0.716
24649WAT      O74188   9.327   0.493   3.596
24649WAT     H174189   9.232   0.509   3.568
24649WAT     H274190   9.344   0.395   3.603
24650WAT      O74191   4.701   6.673   5.262
24650WAT     H174192   4.656   6.607   5.322
24650WAT     H274193   4.666   6.662   5.169
24651WAT      O74194   7.225   1.821   2.365
24651WAT     H174195   7.163   1.821   2.445
24651WAT     H274196   7.319   1.827   2.396
24652WAT      O74197   4.552   1.241   9.468
24652WAT     H174198   4.587   1.331   9.493
24652WAT     H274199   4.551   1.231   9.369
24653WAT      O74200   1.925   6.684   5.794
24653WAT     H174201   1.938   6.671   5.892
24653WAT     H274202   1.914   6.594   5.750
24654WAT      O74203   7.588   5.386   0.779
24654WAT     H174204   7.676   5.432   0.792
24654WAT     H274205   7.538   5.386   0.866
24655WAT      O74206   8.084   3.689   6.481
24655WAT     H174207   8.052   3.780   6.453
24655WAT     H274208   8.006   3.628   6.490
24656WAT      O74209   2.804   6.436   1.588
24656WAT     H174210   2.724   6.450   1.647
24656WAT     H274211   2.887   6.431   1.645
24657WAT      O74212   9.091   0.931   6.414
24657WAT     H174213   9.023   0.889   6.355
24657WAT     H274214   9.047   0.960   6.500
24658WAT      O74215   6.208   1.271   5.679
24658WAT     H174216   6.112   1.251   5.657
24658WAT     H274217   6.266   1.242   5.603
24659WAT      O74218   5.176   8.246   0.309
24659WAT     H174219   5.256   8.186   0.318
24659WAT     H274220   5.206   8.341   0.303
24660WAT      O74221   6.723   1.105   0.777
24660WAT     H174222   6.730   1.190   0.725
24660WAT     H274223   6.813   1.082   0.815
24661WAT      O74224   0.780   3.327   5.210
24661WAT     H174225   0.842   3.401   5.234
24661WAT     H274226   0.689   3.346   5.245
24662WAT      O74227   8.887   3.704   6.298
24662WAT     H174228   8.920   3.680   6.207
24662WAT     H274229   8.932   3.648   6.366
24663WAT      O74230   7.795   1.925   0.124
24663WAT     H174231   7.725   1.870   0.171
24663WAT     H274232   7.750   1.990   0.062
24664WAT      O74233   7.982   7.484   3.741
24664WAT     H174234   8.050   7.435   3.796
24664WAT     H274235   7.890   7.455   3.768
24665WAT      O74236   9.884   7.616   2.476
24665WAT     H174237   9.834   7.691   2.519
24665WAT     H274238   9.971   7.602   2.524
24666WAT      O74239   0.988   5.852   5.627
24666WAT     H174240   1.069   5.889   5.582
24666WAT     H274241   0.926   5.814   5.559
24667WAT      O74242   6.218   3.602   2.184
24667WAT     H174243   6.187   3.556   2.101
24667WAT     H274244   6.157   3.579   2.260
24668WAT      O74245   8.507   3.963   2.158
24668WAT     H174246   8.552   4.035   2.106
24668WAT     H274247   8.542   3.874   2.129
24669WAT      O74248   8.234   3.247   5.536
24669WAT     H174249   8.135   3.251   5.547
24669WAT     H274250   8.273   3.336   5.559
24670WAT      O74251   0.818   2.742   1.397
24670WAT     H174252   0.858   2.725   1.487
24670WAT     H274253   0.797   2.655   1.353
24671WAT      O74254   1.391   9.395   3.180
24671WAT     H174255   1.427   9.379   3.271
24671WAT     H274256   1.454   9.453   3.128
24672WAT      O74257   6.079   7.740   4.747
24672WAT     H174258   6.066   7.775   4.655
24672WAT     H274259   6.055   7.643   4.750
24673WAT      O74260   5.953   9.778   7.193
24673WAT     H174261   5.884   9.817   7.133
24673WAT     H274262   6.030   9.841   7.200
24674WAT      O74263   2.803   0.740   5.444
24674WAT     H174264   2.747   0.746   5.361
24674WAT     H274265   2.798   0.827   5.494
24675WAT      O74266   7.462   0.417   6.025
24675WAT     H174267   7.444   0.443   5.930
24675WAT     H274268   7.446   0.496   6.085
24676WAT      O74269   5.662   9.342   2.827
24676WAT     H174270   5.699   9.257   2.865
24676WAT     H274271   5.697   9.419   2.880
24677WAT      O74272   5.897   7.877   7.067
24677WAT     H174273   5.840   7.796   7.054
24677WAT     H274274   5.983   7.850   7.109
24678WAT      O74275   7.297   5.064   9.810
24678WAT     H174276   7.361   5.053   9.886
24678WAT     H274277   7.213   5.013   9.831
24679WAT      O74278   3.253   5.059   7.058
24679WAT     H174279   3.325   5.019   7.114
24679WAT     H274280   3.263   5.158   7.056
24680WAT      O74281   6.023   7.779   7.444
24680WAT     H174282   6.087   7.801   7.370
24680WAT     H274283   5.945   7.729   7.406
24681WAT      O74284   2.652   6.028   6.913
24681WAT     H174285   2.711   6.049   6.991
24681WAT     H274286   2.563   6.071   6.926
24682WAT      O74287   5.680   9.744   6.336
24682WAT     H174288   5.657   9.666   6.394
24682WAT     H274289   5.620   9.821   6.359
24683WAT      O74290   3.130   2.333   1.390
24683WAT     H174291   3.228   2.355   1.388
24683WAT     H274292   3.103   2.292   1.302
24684WAT      O74293   9.553   7.585   1.081
24684WAT     H174294   9.487   7.572   1.155
24684WAT     H274295   9.546   7.678   1.046
24685WAT      O74296   7.318   5.544   4.177
24685WAT     H174297   7.313   5.453   4.135
24685WAT     H274298   7.268   5.610   4.120
24686WAT      O74299   7.892   3.243   2.968
24686WAT     H174300   7.989   3.242   2.991
24686WAT     H274301   7.863   3.151   2.942
24687WAT      O74302   8.082   5.331   9.356
24687WAT     H174303   8.030   5.254   9.318
24687WAT     H274304   8.176   5.327   9.323
24688WAT      O74305   1.998   8.090   7.815
24688WAT     H174306   1.920   8.081   7.753
24688WAT     H274307   2.075   8.037   7.781
24689WAT      O74308   6.027   6.550   6.183
24689WAT     H174309   5.988   6.486   6.250
24689WAT     H274310   6.089   6.613   6.230
24690WAT      O74311   7.637   0.779   7.422
24690WAT     H174312   7.627   0.865   7.372
24690WAT     H274313   7.578   0.710   7.381
24691WAT      O74314   1.024   8.649   3.666
24691WAT     H174315   1.019   8.656   3.766
24691WAT     H274316   0.993   8.559   3.637
24692WAT      O74317   5.845   0.616   7.062
24692WAT     H174318   5.763   0.672   7.055
24692WAT     H274319   5.904   0.632   6.984
24693WAT      O74320   0.365   8.787   1.640
24693WAT     H174321   0.306   8.816   1.565
24693WAT     H274322   0.329   8.821   1.727
24694WAT      O74323   7.698   6.352   8.275
24694WAT     H174324   7.617   6.403   8.304
24694WAT     H274325   7.705   6.355   8.175
24695WAT      O74326   1.310   0.576   2.065
24695WAT     H174327   1.261   0.597   2.150
24695WAT     H274328   1.292   0.648   1.998
24696WAT      O74329   5.305   8.116   9.029
24696WAT     H174330   5.320   8.052   9.104
24696WAT     H274331   5.370   8.192   9.036
24697WAT      O74332   3.654   7.246   9.331
24697WAT     H174333   3.622   7.254   9.425
24697WAT     H274334   3.576   7.250   9.269
24698WAT      O74335   2.352   9.531   7.501
24698WAT     H174336   2.259   9.513   7.469
24698WAT     H274337   2.359   9.508   7.598
24699WAT      O74338   0.442   8.662   2.592
24699WAT     H174339   0.457   8.610   2.508
24699WAT     H274340   0.367   8.727   2.578
24700WAT      O74341   8.236   3.511   5.277
24700WAT     H174342   8.336   3.522   5.272
24700WAT     H274343   8.211   3.419   5.247
24701WAT      O74344   5.600   0.168   2.562
24701WAT     H174345   5.617   0.226   2.642
24701WAT     H274346   5.615   0.220   2.478
24702WAT      O74347   2.381   6.693   0.608
24702WAT     H174348   2.458   6.757   0.609
24702WAT     H274349   2.315   6.720   0.677
24703WAT      O74350   5.895   8.276   0.650
24703WAT     H174351   5.903   8.347   0.720
24703WAT     H274352   5.981   8.225   0.645
24704WAT      O74353   4.393   5.722   2.386
24704WAT     H174354   4.392   5.799   2.323
24704WAT     H274355   4.486   5.705   2.417
24705WAT      O74356   4.032   3.823   9.184
24705WAT     H174357   4.000   3.805   9.091
24705WAT     H274358   4.016   3.919   9.207
24706WAT      O74359   6.569   9.098   6.199
24706WAT     H174360   6.635   9.025   6.182
24706WAT     H274361   6.480   9.057   6.222
24707WAT      O74362   0.504   1.569   5.555
24707WAT     H174363   0.532   1.475   5.535
24707WAT     H274364   0.556   1.633   5.499
24708WAT      O74365   6.160   7.196   0.960
24708WAT     H174366   6.112   7.284   0.967
24708WAT     H274367   6.145   7.157   0.869
24709WAT      O74368   8.769   9.339   6.762
24709WAT     H174369   8.785   9.323   6.860
24709WAT     H274370   8.676   9.310   6.738
24710WAT      O74371   5.935   8.330   2.164
24710WAT     H174372   5.897   8.356   2.075
24710WAT     H274373   5.918   8.233   2.181
24711WAT      O74374   1.133   8.175   6.447
24711WAT     H174375   1.130   8.271   6.475
24711WAT     H274376   1.190   8.167   6.365
24712WAT      O74377   0.773   7.417   4.189
24712WAT     H174378   0.740   7.409   4.095
24712WAT     H274379   0.872   7.432   4.189
24713WAT      O74380   0.530   0.300   7.169
24713WAT     H174381   0.571   0.381   7.126
24713WAT     H274382   0.595   0.225   7.165
24714WAT      O74383   7.110   3.147   2.327
24714WAT     H174384   7.055   3.088   2.386
24714WAT     H274385   7.107   3.113   2.233
24715WAT      O74386   4.125   7.519   6.896
24715WAT     H174387   4.213   7.560   6.921
24715WAT     H274388   4.089   7.467   6.973
24716WAT      O74389   7.932   8.098   4.924
24716WAT     H174390   7.852   8.056   4.881
24716WAT     H274391   8.007   8.100   4.858
24717WAT      O74392   6.421   0.089   0.453
24717WAT     H174393   6.520   0.086   0.438
24717WAT     H274394   6.399   0.041   0.539
24718WAT      O74395   8.409   2.307   1.628
24718WAT     H174396   8.483   2.283   1.566
24718WAT     H274397   8.445   2.357   1.706
24719WAT      O74398   6.034   6.152   9.562
24719WAT     H174399   6.020   6.123   9.468
24719WAT     H274400   6.078   6.079   9.614
24720WAT      O74401   0.418   5.228   2.891
24720WAT     H174402   0.471   5.224   2.975
24720WAT     H274403   0.351   5.302   2.898
24721WAT      O74404   5.766   9.369   8.512
24721WAT     H174405   5.718   9.281   8.508
24721WAT     H274406   5.819   9.380   8.428
24722WAT      O74407   2.095   7.671   6.595
24722WAT     H174408   2.070   7.767   6.589
24722WAT     H274409   2.049   7.619   6.523
24723WAT      O74410   0.437   7.864   8.484
24723WAT     H174411   0.397   7.954   8.502
24723WAT     H274412   0.447   7.850   8.386
24724WAT      O74413   8.723   2.101   0.113
24724WAT     H174414   8.775   2.016   0.120
24724WAT     H274415   8.771   2.173   0.162
24725WAT      O74416   3.787   3.945   1.209
24725WAT     H174417   3.828   3.861   1.244
24725WAT     H274418   3.818   3.960   1.115
24726WAT      O74419   9.293   3.144   9.588
24726WAT     H174420   9.326   3.172   9.678
24726WAT     H274421   9.216   3.201   9.560
24727WAT      O74422   0.339   1.009   0.045
24727WAT     H174423   0.344   1.109   0.043
24727WAT     H274424   0.357   0.977   0.138
24728WAT      O74425   7.288   5.998   6.234
24728WAT     H174426   7.222   5.926   6.256
24728WAT     H274427   7.342   5.971   6.155
24729WAT      O74428   8.757   4.739   4.348
24729WAT     H174429   8.856   4.739   4.331
24729WAT     H274430   8.740   4.724   4.445
24730WAT      O74431   1.842   2.160   0.635
24730WAT     H174432   1.798   2.248   0.623
24730WAT     H274433   1.842   2.110   0.549
24731WAT      O74434   0.378   7.902   1.683
24731WAT     H174435   0.314   7.827   1.667
24731WAT     H274436   0.328   7.982   1.716
24732WAT      O74437   0.783   3.987   7.991
24732WAT     H174438   0.731   3.968   8.074
24732WAT     H274439   0.821   3.902   7.956
24733WAT      O74440   3.339   8.281   1.834
24733WAT     H174441   3.418   8.240   1.789
24733WAT     H274442   3.334   8.378   1.812
24734WAT      O74443   2.876   5.148   2.931
24734WAT     H174444   2.786   5.137   2.890
24734WAT     H274445   2.921   5.228   2.890
24735WAT      O74446   8.943   4.311   2.010
24735WAT     H174447   8.930   4.241   2.080
24735WAT     H274448   8.857   4.325   1.961
24736WAT      O74449   7.785   8.885   9.324
24736WAT     H174450   7.713   8.911   9.388
24736WAT     H274451   7.822   8.967   9.280
24737WAT      O74452   3.131   2.357   6.942
24737WAT     H174453   3.105   2.453   6.936
24737WAT     H274454   3.183   2.342   7.026
24738WAT      O74455   1.345   5.017   9.394
24738WAT     H174456   1.383   5.034   9.303
24738WAT     H274457   1.312   5.104   9.433
24739WAT      O74458   7.275   7.555   3.440
24739WAT     H174459   7.281   7.615   3.520
24739WAT     H274460   7.181   7.523   3.429
24740WAT      O74461   7.272   1.484   9.251
24740WAT     H174462   7.283   1.394   9.209
24740WAT     H274463   7.174   1.506   9.255
24741WAT      O74464   7.905   3.003   5.638
24741WAT     H174465   7.933   2.944   5.562
24741WAT     H274466   7.909   3.098   5.609
24742WAT      O74467   9.549   3.704   9.736
24742WAT     H174468   9.604   3.636   9.687
24742WAT     H274469   9.583   3.795   9.716
24743WAT      O74470   1.730   4.553   1.885
24743WAT     H174471   1.804   4.616   1.907
24743WAT     H274472   1.764   4.481   1.824
24744WAT      O74473   2.968   8.971   0.427
24744WAT     H174474   2.924   8.882   0.418
24744WAT     H274475   3.032   8.969   0.504
24745WAT      O74476   6.818   0.384   4.588
24745WAT     H174477   6.772   0.405   4.502
24745WAT     H274478   6.749   0.364   4.658
24746WAT      O74479   3.800   4.528   7.646
24746WAT     H174480   3.729   4.588   7.684
24746WAT     H274481   3.763   4.435   7.640
24747WAT      O74482   9.426   5.588   5.629
24747WAT     H174483   9.481   5.507   5.605
24747WAT     H274484   9.382   5.574   5.717
24748WAT      O74485   7.496   6.028   7.361
24748WAT     H174486   7.525   5.932   7.361
24748WAT     H274487   7.516   6.069   7.273
24749WAT      O74488   3.007   8.381   1.882
24749WAT     H174489   2.954   8.334   1.953
24749WAT     H274490   3.052   8.313   1.823
24750WAT      O74491   5.169   7.573   6.990
24750WAT     H174492   5.126   7.519   7.063
24750WAT     H274493   5.166   7.521   6.905
24751WAT      O74494   2.807   9.170   2.120
24751WAT     H174495   2.897   9.130   2.140
24751WAT     H274496   2.736   9.104   2.145
24752WAT      O74497   6.354   3.220   6.036
24752WAT     H174498   6.387   3.174   6.118
24752WAT     H274499   6.350   3.319   6.052
24753WAT      O74500   2.857   0.981   8.122
24753WAT     H174501   2.836   0.887   8.095
24753WAT     H274502   2.800   1.045   8.070
24754WAT      O74503   1.341   8.822   7.989
24754WAT     H174504   1.391   8.805   8.074
24754WAT     H274505   1.316   8.735   7.947
24755WAT      O74506   4.546   7.387   0.298
24755WAT     H174507   4.526   7.430   0.211
24755WAT     H274508   4.527   7.451   0.373
24756WAT      O74509   1.864   0.441   3.757
24756WAT     H174510   1.786   0.388   3.725
24756WAT     H274511   1.920   0.384   3.818
24757WAT      O74512   2.743   4.634   4.616
24757WAT     H174513   2.715   4.688   4.696
24757WAT     H274514   2.830   4.588   4.637
24758WAT      O74515   7.320   8.162   4.911
24758WAT     H174516   7.288   8.250   4.946
24758WAT     H274517   7.276   8.087   4.961
24759WAT      O74518   2.424   5.978   5.534
24759WAT     H174519   2.401   6.074   5.550
24759WAT     H274520   2.428   5.929   5.621
24760WAT      O74521   8.458   2.627   2.207
24760WAT     H174522   8.552   2.615   2.177
24760WAT     H274523   8.438   2.724   2.218
24761WAT      O74524   1.287   2.063   9.772
24761WAT     H174525   1.230   2.003   9.828
24761WAT     H274526   1.229   2.121   9.715
24762WAT      O74527   4.814   7.241   0.038
24762WAT     H174528   4.792   7.224   0.133
24762WAT     H274529   4.794   7.337   0.016
24763WAT      O74530   3.889   9.237   4.212
24763WAT     H174531   3.849   9.328   4.220
24763WAT     H274532   3.986   9.240   4.233
24764WAT      O74533   0.259   8.987   3.550
24764WAT     H174534   0.160   8.973   3.561
24764WAT     H274535   0.307   8.901   3.567
24765WAT      O74536   7.103   2.207   2.937
24765WAT     H174537   7.129   2.111   2.950
24765WAT     H274538   7.185   2.263   2.929
24766WAT      O74539   2.070   9.424   1.532
24766WAT     H174540   2.123   9.503   1.503
24766WAT     H274541   2.132   9.355   1.571
24767WAT      O74542   6.168   0.467   5.306
24767WAT     H174543   6.125   0.405   5.240
24767WAT     H274544   6.209   0.413   5.380
24768WAT      O74545   7.470   4.371   5.139
24768WAT     H174546   7.558   4.338   5.175
24768WAT     H274547   7.485   4.417   5.052
24769WAT      O74548   6.645   9.630   9.572
24769WAT     H174549   6.621   9.698   9.503
24769WAT     H274550   6.601   9.653   9.658
24770WAT      O74551   8.363   8.721   3.594
24770WAT     H174552   8.410   8.687   3.513
24770WAT     H274553   8.405   8.807   3.623
24771WAT      O74554   2.825   1.480   2.134
24771WAT     H174555   2.882   1.401   2.157
24771WAT     H274556   2.832   1.549   2.206
24772WAT      O74557   6.817   0.234   8.044
24772WAT     H174558   6.891   0.300   8.028
24772WAT     H274559   6.839   0.148   7.999
24773WAT      O74560   3.931   7.331   8.235
24773WAT     H174561   3.988   7.267   8.183
24773WAT     H274562   3.959   7.424   8.214
24774WAT      O74563   2.859   4.274   2.069
24774WAT     H174564   2.855   4.178   2.043
24774WAT     H274565   2.793   4.292   2.142
24775WAT      O74566   7.559   3.937   1.375
24775WAT     H174567   7.513   3.948   1.287
24775WAT     H274568   7.638   3.998   1.379
24776WAT      O74569   6.917   2.500   9.496
24776WAT     H174570   6.870   2.558   9.429
24776WAT     H274571   7.008   2.537   9.514
24777WAT      O74572   5.822   8.353   2.952
24777WAT     H174573   5.742   8.295   2.964
24777WAT     H274574   5.793   8.445   2.927
24778WAT      O74575   7.457   6.110   0.198
24778WAT     H174576   7.396   6.037   0.167
24778WAT     H274577   7.509   6.077   0.277
24779WAT      O74578   8.286   1.418   6.740
24779WAT     H174579   8.325   1.394   6.651
24779WAT     H274580   8.352   1.472   6.792
24780WAT      O74581   1.740   0.453   8.908
24780WAT     H174582   1.671   0.381   8.907
24780WAT     H274583   1.803   0.438   8.983
24781WAT      O74584   7.046   3.498   9.366
24781WAT     H174585   6.952   3.478   9.339
24781WAT     H274586   7.081   3.573   9.309
24782WAT      O74587   3.421   0.805   8.885
24782WAT     H174588   3.519   0.799   8.906
24782WAT     H274589   3.374   0.852   8.960
24783WAT      O74590   9.720   0.391   1.047
24783WAT     H174591   9.774   0.454   0.991
24783WAT     H274592   9.632   0.434   1.070
24784WAT      O74593   4.214   8.043   6.644
24784WAT     H174594   4.153   7.976   6.601
24784WAT     H274595   4.230   8.118   6.581
24785WAT      O74596   9.062   6.450   0.644
24785WAT     H174597   9.156   6.467   0.616
24785WAT     H274598   9.004   6.440   0.563
24786WAT      O74599   5.130   9.573   8.346
24786WAT     H174600   5.123   9.672   8.343
24786WAT     H274601   5.183   9.541   8.267
24787WAT      O74602   0.031   9.349   2.605
24787WAT     H174603   0.109   9.291   2.580
24787WAT     H274604  -0.010   9.387   2.522
24788WAT      O74605   0.151   2.420   3.162
24788WAT     H174606   0.189   2.488   3.098
24788WAT     H274607   0.051   2.417   3.152
24789WAT      O74608   4.708   5.309   6.048
24789WAT     H174609   4.790   5.359   6.076
24789WAT     H274610   4.694   5.231   6.108
24790WAT      O74611   0.664   5.293   7.212
24790WAT     H174612   0.711   5.216   7.168
24790WAT     H274613   0.704   5.379   7.180
24791WAT      O74614   6.626   9.012   5.013
24791WAT     H174615   6.706   9.066   5.037
24791WAT     H274616   6.547   9.072   5.004
24792WAT      O74617   3.989   7.254   0.257
24792WAT     H174618   3.965   7.183   0.191
24792WAT     H274619   3.908   7.277   0.312
24793WAT      O74620   2.034   9.583   3.298
24793WAT     H174621   2.026   9.679   3.324
24793WAT     H274622   2.129   9.554   3.305
24794WAT      O74623   9.036   9.031   2.379
24794WAT     H174624   9.077   8.965   2.315
24794WAT     H274625   9.108   9.068   2.438
24795WAT      O74626   4.116   1.223   4.209
24795WAT     H174627   4.150   1.163   4.137
24795WAT     H274628   4.088   1.310   4.169
24796WAT      O74629   2.364   4.252   2.706
24796WAT     H174630   2.346   4.155   2.691
24796WAT     H274631   2.328   4.280   2.795
24797WAT      O74632   6.400   6.343   9.364
24797WAT     H174633   6.391   6.344   9.264
24797WAT     H274634   6.489   6.304   9.388
24798WAT      O74635   4.531   4.552   5.372
24798WAT     H174636   4.476   4.576   5.452
24798WAT     H274637   4.564   4.458   5.381
24799WAT      O74638   1.388   1.941   1.838
24799WAT     H174639   1.464   1.899   1.887
24799WAT     H274640   1.379   2.037   1.866
24800WAT      O74641   0.641   4.570   6.429
24800WAT     H174642   0.661   4.494   6.368
24800WAT     H274643   0.611   4.649   6.375
24801WAT      O74644   4.877   5.489   6.179
24801WAT     H174645   4.890   5.495   6.278
24801WAT     H274646   4.917   5.569   6.135
24802WAT      O74647   0.469   1.723   9.501
24802WAT     H174648   0.506   1.712   9.594
24802WAT     H274649   0.450   1.819   9.484
24803WAT      O74650   3.027   7.495   4.218
24803WAT     H174651   2.966   7.574   4.214
24803WAT     H274652   3.007   7.442   4.300
24804WAT      O74653   3.257   3.845   6.789
24804WAT     H174654   3.254   3.898   6.704
24804WAT     H274655   3.169   3.801   6.805
24805WAT      O74656   6.986   7.005   1.004
24805WAT     H174657   6.971   6.998   0.906
24805WAT     H274658   6.924   6.943   1.052
24806WAT      O74659   0.126   0.878   0.565
24806WAT     H174660   0.108   0.973   0.590
24806WAT     H274661   0.183   0.835   0.634
24807WAT      O74662   5.604   7.167   3.826
24807WAT     H174663   5.606   7.069   3.844
24807WAT     H274664   5.689   7.208   3.859
24808WAT      O74665   6.805   2.326   6.869
24808WAT     H174666   6.796   2.379   6.953
24808WAT     H274667   6.825   2.231   6.891
24809WAT      O74668   6.853   8.042   5.553
24809WAT     H174669   6.779   7.983   5.583
24809WAT     H274670   6.874   8.024   5.456
24810WAT      O74671   5.659   6.748   7.383
24810WAT     H174672   5.588   6.784   7.444
24810WAT     H274673   5.623   6.670   7.333
24811WAT      O74674   3.742   2.936   3.115
24811WAT     H174675   3.754   2.837   3.118
24811WAT     H274676   3.796   2.974   3.040
24812WAT      O74677   1.862   3.077   5.469
24812WAT     H174678   1.871   3.086   5.568
24812WAT     H274679   1.773   3.113   5.440
24813WAT      O74680   3.860   0.714   7.063
24813WAT     H174681   3.847   0.684   6.969
24813WAT     H274682   3.958   0.721   7.083
24814WAT      O74683   3.370   7.447   4.293
24814WAT     H174684   3.302   7.399   4.238
24814WAT     H274685   3.324   7.501   4.364
24815WAT      O74686   2.643   1.821   4.466
24815WAT     H174687   2.612   1.795   4.374
24815WAT     H274688   2.742   1.837   4.464
24816WAT      O74689   9.000   1.716   7.298
24816WAT     H174690   9.093   1.690   7.273
24816WAT     H274691   9.001   1.800   7.353
24817WAT      O74692   2.815   2.818   3.932
24817WAT     H174693   2.809   2.719   3.946
24817WAT     H274694   2.882   2.838   3.861
24818WAT      O74695   1.310   2.711   3.257
24818WAT     H174696   1.358   2.730   3.342
24818WAT     H274697   1.233   2.774   3.247
24819WAT      O74698   0.226   2.090   7.177
24819WAT     H174699   0.236   2.036   7.260
24819WAT     H274700   0.227   2.187   7.200
24820WAT      O74701   7.223   0.434   0.999
24820WAT     H174702   7.182   0.344   1.013
24820WAT     H274703   7.281   0.457   1.078
24821WAT      O74704   8.245   1.925   4.006
24821WAT     H174705   8.284   2.017   3.994
24821WAT     H274706   8.210   1.892   3.918
24822WAT      O74707   3.145   1.903   3.524
24822WAT     H174708   3.210   1.851   3.469
24822WAT     H274709   3.177   1.997   3.533
24823WAT      O74710   4.892   8.279   3.787
24823WAT     H174711   4.880   8.218   3.709
24823WAT     H274712   4.857   8.370   3.764
24824WAT      O74713   4.759   6.350   2.107
24824WAT     H174714   4.666   6.386   2.109
24824WAT     H274715   4.807   6.383   2.026
24825WAT      O74716   4.850   9.193   8.976
24825WAT     H174717   4.930   9.152   9.019
24825WAT     H274718   4.843   9.162   8.881
24826WAT      O74719   3.508   1.557   3.049
24826WAT     H174720   3.446   1.613   2.994
24826WAT     H274721   3.466   1.468   3.066
24827WAT      O74722   5.295   2.799   6.024
24827WAT     H174723   5.216   2.740   6.039
24827WAT     H274724   5.369   2.774   6.086
24828WAT      O74725   1.836   0.590   7.391
24828WAT     H174726   1.909   0.640   7.344
24828WAT     H274727   1.836   0.617   7.488
24829WAT      O74728   6.764   7.026   5.710
24829WAT     H174729   6.675   6.990   5.681
24829WAT     H274730   6.837   6.982   5.658
24830WAT      O74731   4.322   9.042   5.966
24830WAT     H174732   4.235   8.994   5.981
24830WAT     H274733   4.387   8.980   5.923
24831WAT      O74734   4.700   3.633   6.575
24831WAT     H174735   4.716   3.573   6.497
24831WAT     H274736   4.669   3.578   6.653
24832WAT      O74737   8.770   8.413   7.595
24832WAT     H174738   8.811   8.324   7.577
24832WAT     H274739   8.691   8.402   7.657
24833WAT      O74740   4.268   8.042   5.281
24833WAT     H174741   4.199   8.064   5.213
24833WAT     H274742   4.281   7.943   5.284
24834WAT      O74743   9.712   1.443   3.668
24834WAT     H174744   9.719   1.381   3.590
24834WAT     H274745   9.630   1.422   3.721
24835WAT      O74746   9.670   2.292   3.233
24835WAT     H174747   9.726   2.266   3.312
24835WAT     H274748   9.591   2.345   3.264
24836WAT      O74749   9.191   7.840   7.319
24836WAT     H174750   9.242   7.780   7.381
24836WAT     H274751   9.114   7.789   7.280
24837WAT      O74752   1.599   2.409   8.830
24837WAT     H174753   1.676   2.450   8.782
24837WAT     H274754   1.611   2.309   8.832
24838WAT      O74755   4.093   5.961   1.904
24838WAT     H174756   4.040   6.013   1.972
24838WAT     H274757   4.060   5.984   1.812
24839WAT      O74758   7.228   2.573   4.323
24839WAT     H174759   7.279   2.490   4.301
24839WAT     H274760   7.132   2.550   4.337
24840WAT      O74761   3.154   1.190   2.971
24840WAT     H174762   3.138   1.148   2.882
24840WAT     H274763   3.091   1.150   3.038
24841WAT      O74764   7.292   6.099   3.889
24841WAT     H174765   7.365   6.167   3.879
24841WAT     H274766   7.209   6.143   3.921
24842WAT      O74767   5.797   0.809   5.894
24842WAT     H174768   5.738   0.746   5.844
24842WAT     H274769   5.893   0.783   5.881
24843WAT      O74770   5.522   5.582   0.033
24843WAT     H174771   5.441   5.636   0.009
24843WAT     H274772   5.503   5.485   0.017
24844WAT      O74773   2.804   5.679   5.858
24844WAT     H174774   2.902   5.672   5.875
24844WAT     H274775   2.783   5.768   5.817
24845WAT      O74776   5.504   3.267   5.308
24845WAT     H174777   5.418   3.250   5.261
24845WAT     H274778   5.562   3.185   5.301
24846WAT      O74779   4.016   6.024   4.182
24846WAT     H174780   4.015   5.992   4.087
24846WAT     H274781   4.063   6.113   4.186
24847WAT      O74782   3.441   9.454   7.219
24847WAT     H174783   3.444   9.550   7.195
24847WAT     H274784   3.499   9.401   7.157
24848WAT      O74785   1.553   9.630   3.108
24848WAT     H174786   1.622   9.670   3.048
24848WAT     H274787   1.574   9.652   3.203
24849WAT      O74788   9.078   1.652   9.751
24849WAT     H174789   9.102   1.709   9.673
24849WAT     H274790   9.090   1.704   9.836
24850WAT      O74791   8.471   4.127   4.783
24850WAT     H174792   8.447   4.051   4.843
24850WAT     H274793   8.389   4.164   4.741
24851WAT      O74794   3.590   5.927   5.786
24851WAT     H174795   3.522   5.926   5.859
24851WAT     H274796   3.673   5.973   5.819
24852WAT      O74797   7.101   5.134   4.350
24852WAT     H174798   7.186   5.182   4.372
24852WAT     H274799   7.119   5.066   4.279
24853WAT      O74800   3.895   3.164   9.556
24853WAT     H174801   3.890   3.236   9.487
24853WAT     H274802   3.843   3.084   9.525
24854WAT      O74803   3.712   8.837   0.438
24854WAT     H174804   3.623   8.828   0.394
24854WAT     H274805   3.708   8.911   0.506
24855WAT      O74806   2.780   0.426   9.516
24855WAT     H174807   2.837   0.508   9.517
24855WAT     H274808   2.799   0.372   9.598
24856WAT      O74809   1.131   1.205   1.094
24856WAT     H174810   1.220   1.205   1.140
24856WAT     H274811   1.097   1.299   1.088
24857WAT      O74812   0.297   0.387   7.715
24857WAT     H174813   0.230   0.461   7.710
24857WAT     H274814   0.388   0.425   7.727
24858WAT      O74815   8.726   6.889   0.123
24858WAT     H174816   8.678   6.935   0.048
24858WAT     H274817   8.690   6.797   0.134
24859WAT      O74818   1.174   1.353   3.018
24859WAT     H174819   1.195   1.446   3.049
24859WAT     H274820   1.091   1.355   2.962
24860WAT      O74821   9.548   5.175   8.780
24860WAT     H174822   9.584   5.098   8.728
24860WAT     H274823   9.490   5.141   8.854
24861WAT      O74824   0.355   9.836   1.293
24861WAT     H174825   0.430   9.901   1.309
24861WAT     H274826   0.378   9.779   1.214
24862WAT      O74827   2.564   5.042   3.802
24862WAT     H174828   2.631   5.042   3.727
24862WAT     H274829   2.546   4.947   3.829
24863WAT      O74830   4.666   4.337   6.418
24863WAT     H174831   4.684   4.400   6.494
24863WAT     H274832   4.598   4.377   6.357
24864WAT      O74833   8.726   2.612   8.053
24864WAT     H174834   8.743   2.589   7.958
24864WAT     H274835   8.659   2.548   8.092
24865WAT      O74836   8.029   5.517   2.454
24865WAT     H174837   8.091   5.500   2.531
24865WAT     H274838   8.010   5.432   2.407
24866WAT      O74839   1.866   9.731   0.911
24866WAT     H174840   1.833   9.770   0.825
24866WAT     H274841   1.807   9.655   0.938
24867WAT      O74842   2.351   3.177   6.895
24867WAT     H174843   2.294   3.248   6.937
24867WAT     H274844   2.436   3.218   6.861
24868WAT      O74845   3.213   8.408   4.974
24868WAT     H174846   3.196   8.506   4.963
24868WAT     H274847   3.263   8.393   5.059
24869WAT      O74848   5.167   6.399   4.032
24869WAT     H174849   5.168   6.474   4.098
24869WAT     H274850   5.205   6.430   3.945
24870WAT      O74851   7.844   7.405   0.211
24870WAT     H174852   7.797   7.445   0.132
24870WAT     H274853   7.776   7.377   0.279
24871WAT      O74854   9.453   1.873   0.849
24871WAT     H174855   9.391   1.873   0.928
24871WAT     H274856   9.439   1.956   0.795
24872WAT      O74857   8.457   1.251   8.127
24872WAT     H174858   8.531   1.281   8.188
24872WAT     H274859   8.371   1.293   8.155
24873WAT      O74860   4.747   5.965   5.959
24873WAT     H174861   4.718   6.004   5.872
24873WAT     H274862   4.845   5.946   5.957
24874WAT      O74863   3.294   6.262   2.874
24874WAT     H174864   3.347   6.295   2.796
24874WAT     H274865   3.318   6.315   2.955
24875WAT      O74866   0.119   6.448   0.839
24875WAT     H174867   0.044   6.381   0.834
24875WAT     H274868   0.087   6.532   0.882
24876WAT      O74869   0.371   7.793   5.272
24876WAT     H174870   0.331   7.708   5.237
24876WAT     H274871   0.320   7.824   5.352
24877WAT      O74872   1.839   1.690   6.964
24877WAT     H174873   1.745   1.725   6.970
24877WAT     H274874   1.902   1.757   7.002
24878WAT      O74875   7.745   1.307   1.722
24878WAT     H174876   7.676   1.244   1.685
24878WAT     H274877   7.834   1.287   1.680
24879WAT      O74878   1.310   8.766   8.857
24879WAT     H174879   1.232   8.738   8.801
24879WAT     H274880   1.278   8.810   8.941
24880WAT      O74881   2.087   9.183   2.004
24880WAT     H174882   1.993   9.154   1.984
24880WAT     H274883   2.123   9.129   2.081
24881WAT      O74884   6.463   8.785   2.798
24881WAT     H174885   6.397   8.821   2.865
24881WAT     H274886   6.556   8.808   2.828
24882WAT      O74887   1.076   7.052   4.237
24882WAT     H174888   0.993   7.082   4.284
24882WAT     H274889   1.140   7.013   4.304
24883WAT      O74890   5.454   3.040   9.090
24883WAT     H174891   5.391   3.021   9.165
24883WAT     H274892   5.499   3.127   9.106
24884WAT      O74893   3.533   7.889   1.311
24884WAT     H174894   3.615   7.896   1.368
24884WAT     H274895   3.553   7.832   1.231
24885WAT      O74896   0.633   4.774   0.436
24885WAT     H174897   0.683   4.828   0.368
24885WAT     H274898   0.643   4.677   0.414
24886WAT      O74899   8.540   1.320   4.767
24886WAT     H174900   8.593   1.344   4.849
24886WAT     H274901   8.450   1.362   4.772
24887WAT      O74902   8.482   3.969   3.412
24887WAT     H174903   8.483   3.930   3.504
24887WAT     H274904   8.526   4.059   3.414
24888WAT      O74905   2.936   9.592   1.234
24888WAT     H174906   2.855   9.536   1.217
24888WAT     H274907   3.018   9.541   1.208
24889WAT      O74908   3.078   5.119   1.287
24889WAT     H174909   3.066   5.020   1.290
24889WAT     H274910   3.175   5.141   1.275
24890WAT      O74911   5.588   3.167   6.329
24890WAT     H174912   5.608   3.069   6.333
24890WAT     H274913   5.490   3.180   6.320
24891WAT      O74914   9.663   1.037   5.693
24891WAT     H174915   9.565   1.040   5.708
24891WAT     H274916   9.684   1.067   5.600
24892WAT      O74917   5.017   3.813   2.615
24892WAT     H174918   4.950   3.771   2.553
24892WAT     H274919   5.060   3.742   2.671
24893WAT      O74920   7.212   4.296   2.396
24893WAT     H174921   7.275   4.258   2.463
24893WAT     H274922   7.170   4.221   2.344
24894WAT      O74923   4.824   8.619   8.122
24894WAT     H174924   4.856   8.711   8.097
24894WAT     H274925   4.867   8.552   8.062
24895WAT      O74926   3.557   7.133   2.239
24895WAT     H174927   3.520   7.197   2.172
24895WAT     H274928   3.607   7.060   2.192
24896WAT      O74929   8.271   8.763   2.493
24896WAT     H174930   8.290   8.734   2.587
24896WAT     H274931   8.234   8.686   2.441
24897WAT      O74932   4.025   4.075   9.298
24897WAT     H174933   4.092   4.098   9.368
24897WAT     H274934   3.977   4.159   9.270
24898WAT      O74935   5.632   1.248   0.456
24898WAT     H174936   5.611   1.339   0.492
24898WAT     H274937   5.623   1.180   0.529
24899WAT      O74938   2.476   6.760   6.854
24899WAT     H174939   2.383   6.722   6.861
24899WAT     H274940   2.527   6.737   6.937
24900WAT      O74941   5.011   4.782   6.508
24900WAT     H174942   5.086   4.848   6.497
24900WAT     H274943   4.996   4.766   6.606
24901WAT      O74944   2.865   7.547   4.856
24901WAT     H174945   2.778   7.514   4.820
24901WAT     H274946   2.870   7.529   4.954
24902WAT      O74947   0.209   0.893   0.301
24902WAT     H174948   0.241   0.804   0.270
24902WAT     H274949   0.166   0.883   0.391
24903WAT      O74950   1.303   6.232   7.912
24903WAT     H174951   1.379   6.249   7.849
24903WAT     H274952   1.318   6.144   7.959
24904WAT      O74953   0.191   9.470   0.416
24904WAT     H174954   0.101   9.426   0.413
24904WAT     H274955   0.252   9.424   0.351
24905WAT      O74956   4.215   5.915   5.044
24905WAT     H174957   4.224   5.882   5.138
24905WAT     H274958   4.233   5.840   4.980
24906WAT      O74959   6.884   8.363   3.958
24906WAT     H174960   6.956   8.381   4.024
24906WAT     H274961   6.798   8.406   3.988
24907WAT      O74962   7.856   1.317   3.884
24907WAT     H174963   7.917   1.396   3.894
24907WAT     H274964   7.762   1.345   3.904
24908WAT      O74965   5.171   9.516   2.629
24908WAT     H174966   5.123   9.529   2.542
24908WAT     H274967   5.174   9.603   2.679
24909WAT      O74968   8.058   4.286   0.776
24909WAT     H174969   8.120   4.220   0.734
24909WAT     H274970   8.107   4.372   0.793
24910WAT      O74971   6.694   2.008   7.691
24910WAT     H174972   6.660   1.944   7.623
24910WAT     H274973   6.679   2.102   7.660
24911WAT      O74974   1.221   0.854   1.492
24911WAT     H174975   1.212   0.760   1.525
24911WAT     H274976   1.143   0.877   1.434
24912WAT      O74977   0.966   0.139   7.226
24912WAT     H174978   0.992   0.198   7.149
24912WAT     H274979   1.019   0.054   7.222
24913WAT      O74980   2.797   7.111   8.791
24913WAT     H174981   2.785   7.093   8.693
24913WAT     H274982   2.715   7.156   8.827
24914WAT      O74983   5.564   6.759   2.053
24914WAT     H174984   5.657   6.772   2.016
24914WAT     H274985   5.553   6.814   2.135
24915WAT      O74986   2.055   5.021   2.086
24915WAT     H174987   2.045   4.982   1.994
24915WAT     H274988   1.989   5.095   2.098
24916WAT      O74989   1.204   4.072   3.742
24916WAT     H174990   1.133   4.140   3.726
24916WAT     H274991   1.238   4.037   3.655
24917WAT      O74992   2.468   6.489   7.214
24917WAT     H174993   2.483   6.587   7.226
24917WAT     H274994   2.383   6.474   7.164
24918WAT      O74995   9.406   8.882   0.982
24918WAT     H174996   9.348   8.921   1.054
24918WAT     H274997   9.488   8.841   1.024
24919WAT      O74998   3.641   1.699   3.225
24919WAT     H174999   3.572   1.659   3.165
24919WAT     H275000   3.634   1.799   3.221
24920WAT      O75001   6.094   8.088   0.696
24920WAT     H175002   6.046   8.003   0.717
24920WAT     H275003   6.135   8.125   0.780
24921WAT      O75004   3.141   6.595   6.014
24921WAT     H175005   3.111   6.645   6.094
24921WAT     H275006   3.084   6.514   6.001
24922WAT      O75007   0.847   0.635   4.775
24922WAT     H175008   0.877   0.619   4.869
24922WAT     H275009   0.782   0.565   4.748
24923WAT      O75010   9.588   6.756   3.344
24923WAT     H175011   9.571   6.827   3.412
24923WAT     H275012   9.683   6.762   3.313
24924WAT      O75013   4.334   5.409   6.303
24924WAT     H175014   4.410   5.404   6.367
24924WAT     H275015   4.339   5.494   6.250
24925WAT      O75016   6.524   6.214   6.770
24925WAT     H175017   6.622   6.215   6.791
24925WAT     H275018   6.511   6.195   6.673
24926WAT      O75019   1.774   2.441   0.094
24926WAT     H175020   1.825   2.365   0.135
24926WAT     H275021   1.817   2.527   0.119
24927WAT      O75022   4.977   9.017   7.736
24927WAT     H175023   4.942   9.093   7.790
24927WAT     H275024   5.040   8.962   7.792
24928WAT      O75025   9.752   2.808   6.309
24928WAT     H175026   9.710   2.891   6.272
24928WAT     H275027   9.810   2.766   6.239
24929WAT      O75028   9.565   2.334   9.510
24929WAT     H175029   9.583   2.237   9.526
24929WAT     H275030   9.620   2.389   9.572
24930WAT      O75031   1.568   6.348   4.973
24930WAT     H175032   1.621   6.265   4.957
24930WAT     H275033   1.630   6.425   4.987
24931WAT      O75034   4.280   8.625   3.940
24931WAT     H175035   4.191   8.650   3.978
24931WAT     H275036   4.270   8.544   3.883
24932WAT      O75037   9.520   2.400   6.460
24932WAT     H175038   9.526   2.499   6.452
24932WAT     H275039   9.606   2.359   6.429
24933WAT      O75040   8.422   3.648   6.814
24933WAT     H175041   8.348   3.713   6.798
24933WAT     H275042   8.396   3.558   6.778
24934WAT      O75043   8.401   3.679   1.390
24934WAT     H175044   8.338   3.646   1.460
24934WAT     H275045   8.473   3.611   1.374
24935WAT      O75046   3.200   4.390   6.884
24935WAT     H175047   3.211   4.295   6.915
24935WAT     H275048   3.234   4.452   6.954
24936WAT      O75049   8.639   0.939   0.081
24936WAT     H175050   8.692   0.897   0.155
24936WAT     H275051   8.559   0.883   0.061
24937WAT      O75052   3.867   3.559   1.776
24937WAT     H175053   3.855   3.468   1.735
24937WAT     H275054   3.962   3.569   1.806
24938WAT      O75055   5.952   9.149   0.009
24938WAT     H175056   5.857   9.138   0.038
24938WAT     H275057   5.993   9.059  -0.007
24939WAT      O75058   9.572   3.227   6.135
24939WAT     H175059   9.512   3.284   6.080
24939WAT     H275060   9.641   3.285   6.179
24940WAT      O75061   5.789   1.121   2.204
24940WAT     H175062   5.721   1.176   2.253
24940WAT     H275063   5.877   1.169   2.205
24941WAT      O75064   7.012   1.237   0.621
24941WAT     H175065   7.041   1.142   0.634
24941WAT     H275066   7.014   1.259   0.523
24942WAT      O75067   2.410   4.259   8.394
24942WAT     H175068   2.425   4.350   8.355
24942WAT     H275069   2.433   4.260   8.491
24943WAT      O75070   8.745   5.499   3.202
24943WAT     H175071   8.704   5.575   3.252
24943WAT     H275072   8.737   5.515   3.103
24944WAT      O75073   9.045   6.567   1.809
24944WAT     H175074   9.038   6.573   1.709
24944WAT     H275075   9.083   6.478   1.834
24945WAT      O75076   1.692   7.291   1.008
24945WAT     H175077   1.702   7.334   1.098
24945WAT     H275078   1.705   7.360   0.936
24946WAT      O75079   1.360   8.060   7.833
24946WAT     H175080   1.329   8.112   7.912
24946WAT     H275081   1.298   7.984   7.816
24947WAT      O75082   2.290   1.635   3.870
24947WAT     H175083   2.291   1.666   3.965
24947WAT     H275084   2.229   1.694   3.816
24948WAT      O75085   4.219   5.389   4.604
24948WAT     H175086   4.282   5.326   4.649
24948WAT     H275087   4.246   5.401   4.508
24949WAT      O75088   0.733   4.843   8.437
24949WAT     H175089   0.666   4.775   8.409
24949WAT     H275090   0.716   4.871   8.531
24950WAT      O75091   1.703   7.692   3.933
24950WAT     H175092   1.617   7.737   3.910
24950WAT     H275093   1.714   7.690   4.033
24951WAT      O75094   1.974   7.578   6.360
24951WAT     H175095   1.876   7.569   6.380
24951WAT     H275096   2.013   7.488   6.343
24952WAT      O75097   7.280   5.843   0.100
24952WAT     H175098   7.193   5.892   0.095
24952WAT     H275099   7.270   5.754   0.055
24953WAT      O75100   9.678   5.067   3.416
24953WAT     H175101   9.722   5.068   3.506
24953WAT     H275102   9.587   5.107   3.422
24954WAT      O75103   1.567   7.386   9.267
24954WAT     H175104   1.653   7.340   9.289
24954WAT     H275105   1.491   7.323   9.282
24955WAT      O75106   9.319   4.613   1.793
24955WAT     H175107   9.294   4.671   1.716
24955WAT     H275108   9.259   4.533   1.795
24956WAT      O75109   2.528   1.118   1.614
24956WAT     H175110   2.447   1.139   1.560
24956WAT     H275111   2.502   1.062   1.693
24957WAT      O75112   3.258   6.539   7.628
24957WAT     H175113   3.248   6.568   7.533
24957WAT     H275114   3.304   6.450   7.631
24958WAT      O75115   8.243   5.146   1.268
24958WAT     H175116   8.224   5.163   1.171
24958WAT     H275117   8.291   5.059   1.278
24959WAT      O75118   3.158   6.210   1.087
24959WAT     H175119   3.065   6.172   1.078
24959WAT     H275120   3.200   6.216   0.997
24960WAT      O75121   7.726   0.170   8.769
24960WAT     H175122   7.784   0.247   8.742
24960WAT     H275123   7.643   0.170   8.714
24961WAT      O75124   4.508   3.994   3.668
24961WAT     H175125   4.486   3.915   3.726
24961WAT     H275126   4.459   3.986   3.581
24962WAT      O75127   6.467   4.302   0.310
24962WAT     H175128   6.542   4.238   0.326
24962WAT     H275129   6.380   4.258   0.334
24963WAT      O75130   0.570   0.911   0.982
24963WAT     H175131   0.551   0.971   1.059
24963WAT     H275132   0.485   0.897   0.930
24964WAT      O75133   8.573   2.413   8.202
24964WAT     H175134   8.520   2.342   8.155
24964WAT     H275135   8.607   2.377   8.289
24965WAT      O75136   4.862   1.045   3.873
24965WAT     H175137   4.864   1.136   3.831
24965WAT     H275138   4.772   1.029   3.914
24966WAT      O75139   1.841   6.661   2.826
24966WAT     H175140   1.902   6.729   2.787
24966WAT     H275141   1.872   6.636   2.918
24967WAT      O75142   3.855   8.693   3.029
24967WAT     H175143   3.821   8.606   2.994
24967WAT     H275144   3.787   8.733   3.090
24968WAT      O75145   9.360   8.385   9.572
24968WAT     H175146   9.309   8.319   9.627
24968WAT     H275147   9.297   8.433   9.511
24969WAT      O75148   8.231   8.164   6.325
24969WAT     H175149   8.202   8.260   6.324
24969WAT     H275150   8.170   8.111   6.267
24970WAT      O75151   7.920   2.881   8.682
24970WAT     H175152   7.828   2.883   8.640
24970WAT     H275153   7.977   2.950   8.637
24971WAT      O75154   6.381   7.763   4.342
24971WAT     H175155   6.380   7.752   4.242
24971WAT     H275156   6.302   7.818   4.370
24972WAT      O75157   7.169   8.789   1.875
24972WAT     H175158   7.079   8.818   1.843
24972WAT     H275159   7.188   8.832   1.963
24973WAT      O75160   0.984   2.878   8.567
24973WAT     H175161   0.912   2.898   8.633
24973WAT     H275162   0.967   2.789   8.525
24974WAT      O75163   6.836   5.348   5.127
24974WAT     H175164   6.865   5.253   5.118
24974WAT     H275165   6.787   5.376   5.044
24975WAT      O75166   5.469   7.844   7.341
24975WAT     H175167   5.404   7.825   7.268
24975WAT     H275168   5.550   7.888   7.304
24976WAT      O75169   4.977   0.512   4.739
24976WAT     H175170   4.973   0.434   4.676
24976WAT     H275171   4.953   0.595   4.690
24977WAT      O75172   4.703   8.123   4.304
24977WAT     H175173   4.631   8.057   4.284
24977WAT     H275174   4.764   8.086   4.375
24978WAT      O75175   3.146   0.688   4.429
24978WAT     H175176   3.117   0.621   4.497
24978WAT     H275177   3.067   0.719   4.376
24979WAT      O75178   4.029   5.800   8.744
24979WAT     H175179   4.028   5.876   8.679
24979WAT     H275180   4.095   5.819   8.816
24980WAT      O75181   4.100   5.076   7.484
24980WAT     H175182   4.075   5.069   7.581
24980WAT     H275183   4.197   5.097   7.476
24981WAT      O75184   4.403   5.583   7.403
24981WAT     H175185   4.501   5.604   7.395
24981WAT     H275186   4.390   5.516   7.476
24982WAT      O75187   7.321   3.181   5.736
24982WAT     H175188   7.334   3.131   5.650
24982WAT     H275189   7.311   3.116   5.811
24983WAT      O75190   5.726   5.002   3.142
24983WAT     H175191   5.630   4.990   3.170
24983WAT     H275192   5.759   5.090   3.176
24984WAT      O75193   7.001   6.018   2.351
24984WAT     H175194   7.021   6.000   2.254
24984WAT     H275195   7.087   6.023   2.402
24985WAT      O75196   3.956   7.871   5.991
24985WAT     H175197   3.863   7.869   5.954
24985WAT     H275198   3.980   7.780   6.025
24986WAT      O75199   9.040   4.489   2.482
24986WAT     H175200   8.991   4.530   2.405
24986WAT     H275201   9.019   4.540   2.566
24987WAT      O75202   4.819   0.140   9.606
24987WAT     H175203   4.850   0.166   9.515
24987WAT     H275204   4.893   0.155   9.672
24988WAT      O75205   1.151   4.305   1.691
24988WAT     H175206   1.052   4.299   1.681
24988WAT     H275207   1.183   4.395   1.660
24989WAT      O75208   2.131   7.174   3.564
24989WAT     H175209   2.152   7.217   3.652
24989WAT     H275210   2.071   7.235   3.511
24990WAT      O75211   7.114   4.172   2.797
24990WAT     H175212   7.025   4.177   2.753
24990WAT     H275213   7.118   4.237   2.873
24991WAT      O75214   9.176   3.561   0.208
24991WAT     H175215   9.158   3.576   0.110
24991WAT     H275216   9.271   3.533   0.220
24992WAT      O75217   1.360   8.820   4.147
24992WAT     H175218   1.347   8.908   4.102
24992WAT     H275219   1.402   8.756   4.082
24993WAT      O75220   8.777   2.509   0.649
24993WAT     H175221   8.781   2.603   0.681
24993WAT     H275222   8.841   2.453   0.702
24994WAT      O75223   1.770   4.230   4.994
24994WAT     H175224   1.710   4.150   4.980
24994WAT     H275225   1.798   4.266   4.905
24995WAT      O75226   7.740   3.537   5.294
24995WAT     H175227   7.807   3.465   5.312
24995WAT     H275228   7.787   3.624   5.283
24996WAT      O75229   1.616   5.596   9.614
24996WAT     H175230   1.528   5.639   9.631
24996WAT     H275231   1.688   5.666   9.610
24997WAT      O75232   9.130   8.093   0.136
24997WAT     H175233   9.059   8.162   0.153
24997WAT     H275234   9.090   8.002   0.141
24998WAT      O75235   6.181   1.296   8.076
24998WAT     H175236   6.262   1.344   8.041
24998WAT     H275237   6.147   1.232   8.006
24999WAT      O75238   2.876   5.356   5.230
24999WAT     H175239   2.842   5.263   5.244
24999WAT     H275240   2.928   5.360   5.145
25000WAT      O75241   6.459   1.638   7.559
25000WAT     H175242   6.485   1.735   7.561
25000WAT     H275243   6.359   1.630   7.560
25001WAT      O75244   5.720   3.043   0.060
25001WAT     H175245   5.651   3.105   0.097
25001WAT     H275246   5.783   3.016   0.132
25002WAT      O75247   8.043   4.945   5.389
25002WAT     H175248   8.088   5.003   5.457
25002WAT     H275249   8.007   5.002   5.315
25003WAT      O75250   8.205   0.175   3.034
25003WAT     H175251   8.107   0.190   3.043
25003WAT     H275252   8.255   0.250   3.076
25004WAT      O75253   5.261   0.174   4.991
25004WAT     H175254   5.267   0.116   4.910
25004WAT     H275255   5.170   0.214   4.999
25005WAT      O75256   0.846   8.722   2.363
25005WAT     H175257   0.946   8.728   2.365
25005WAT     H275258   0.808   8.802   2.410
25006WAT      O75259   1.851   4.365   9.321
25006WAT     H175260   1.883   4.358   9.416
25006WAT     H275261   1.786   4.291   9.302
25007WAT      O75262   5.213   3.795   5.097
25007WAT     H175263   5.176   3.823   5.008
25007WAT     H275264   5.138   3.771   5.159
25008WAT      O75265   8.888   2.924   1.540
25008WAT     H175266   8.919   3.001   1.484
25008WAT     H275267   8.952   2.848   1.529
25009WAT      O75268   3.054   2.091   6.077
25009WAT     H175269   2.966   2.107   6.120
25009WAT     H275270   3.044   2.020   6.007
25010WAT      O75271   6.518   8.122   3.944
25010WAT     H175272   6.512   8.216   3.909
25010WAT     H275273   6.435   8.102   3.997
25011WAT      O75274   2.036   8.067   8.076
25011WAT     H175275   2.007   8.090   7.983
25011WAT     H275276   1.992   8.128   8.141
25012WAT      O75277   8.243   7.460   5.999
25012WAT     H175278   8.337   7.432   6.017
25012WAT     H275279   8.187   7.441   6.080
25013WAT      O75280   2.236   3.186   1.372
25013WAT     H175281   2.310   3.203   1.307
25013WAT     H275282   2.148   3.194   1.324
25014WAT      O75283   7.854   6.598   1.635
25014WAT     H175284   7.827   6.586   1.540
25014WAT     H275285   7.775   6.630   1.688
25015WAT      O75286   0.023   7.124   0.043
25015WAT     H175287   0.077   7.173   0.111
25015WAT     H275288   0.029   7.026   0.060
25016WAT      O75289   6.666   8.004   3.298
25016WAT     H175290   6.605   8.084   3.294
25016WAT     H275291   6.741   8.016   3.234
25017WAT      O75292   1.814   2.143   8.011
25017WAT     H175293   1.762   2.166   8.094
25017WAT     H275294   1.751   2.128   7.935
25018WAT      O75295   3.121   9.762   4.148
25018WAT     H175296   3.048   9.822   4.113
25018WAT     H275297   3.094   9.726   4.237
25019WAT      O75298   5.127   5.248   1.286
25019WAT     H175299   5.205   5.261   1.224
25019WAT     H275300   5.133   5.313   1.362
25020WAT      O75301   2.717   5.538   9.730
25020WAT     H175302   2.761   5.544   9.640
25020WAT     H275303   2.622   5.511   9.719
25021WAT      O75304   5.079   4.287   8.824
25021WAT     H175305   5.173   4.302   8.793
25021WAT     H275306   5.059   4.189   8.825
25022WAT      O75307   9.105   3.995   8.244
25022WAT     H175308   9.158   3.964   8.323
25022WAT     H275309   9.166   4.029   8.173
25023WAT      O75310   7.553   7.024   9.644
25023WAT     H175311   7.513   6.981   9.724
25023WAT     H275312   7.496   7.008   9.564
25024WAT      O75313   9.541   9.416   0.069
25024WAT     H175314   9.502   9.469  -0.006
25024WAT     H275315   9.624   9.371   0.038
25025WAT      O75316   4.303   2.682   2.194
25025WAT     H175317   4.282   2.692   2.097
25025WAT     H275318   4.282   2.767   2.242
25026WAT      O75319   1.690   2.644   5.827
25026WAT     H175320   1.709   2.682   5.917
25026WAT     H275321   1.718   2.709   5.757
25027WAT      O75322   6.752   8.216   2.862
25027WAT     H175323   6.826   8.155   2.835
25027WAT     H275324   6.773   8.257   2.951
25028WAT      O75325   2.121   9.630   5.703
25028WAT     H175326   2.173   9.544   5.702
25028WAT     H275327   2.070   9.636   5.789
25029WAT      O75328   7.543   8.258   0.380
25029WAT     H175329   7.600   8.176   0.383
25029WAT     H275330   7.463   8.241   0.322
25030WAT      O75331   5.567   0.100   9.885
25030WAT     H175332   5.625   0.069   9.810
25030WAT     H275333   5.516   0.182   9.858
25031WAT      O75334   2.125   8.014   3.311
25031WAT     H175335   2.078   7.979   3.230
25031WAT     H275336   2.064   8.007   3.390
25032WAT      O75337   4.607   1.940   5.698
25032WAT     H175338   4.509   1.962   5.698
25032WAT     H275339   4.659   2.022   5.721
25033WAT      O75340   9.088   3.109   4.264
25033WAT     H175341   9.009   3.151   4.310
25033WAT     H275342   9.061   3.020   4.228
25034WAT      O75343   6.536   5.517   1.859
25034WAT     H175344   6.621   5.494   1.812
25034WAT     H275345   6.459   5.479   1.809
25035WAT      O75346   2.260   2.919   7.796
25035WAT     H175347   2.223   3.011   7.811
25035WAT     H275348   2.354   2.926   7.764
25036WAT      O75349   6.131   4.868   6.345
25036WAT     H175350   6.228   4.847   6.349
25036WAT     H275351   6.087   4.812   6.275
25037WAT      O75352   9.593   6.977   9.195
25037WAT     H175353   9.631   6.929   9.274
25037WAT     H275354   9.649   7.057   9.174
25038WAT      O75355   3.818   5.147   6.149
25038WAT     H175356   3.794   5.098   6.064
25038WAT     H275357   3.741   5.204   6.176
25039WAT      O75358   0.636   8.296   8.425
25039WAT     H175359   0.614   8.260   8.335
25039WAT     H275360   0.678   8.386   8.416
25040WAT      O75361   0.485   6.486   8.994
25040WAT     H175362   0.438   6.410   8.949
25040WAT     H275363   0.430   6.520   9.069
25041WAT      O75364   9.118  -0.000   6.519
25041WAT     H175365   9.037   0.058   6.521
25041WAT     H275366   9.123  -0.047   6.431
25042WAT      O75367   5.424   5.775   9.491
25042WAT     H175368   5.521   5.791   9.507
25042WAT     H275369   5.377   5.759   9.578
25043WAT      O75370   4.649   7.971   4.760
25043WAT     H175371   4.646   7.908   4.683
25043WAT     H275372   4.727   8.033   4.749
25044WAT      O75373   6.109   3.035   9.789
25044WAT     H175374   6.062   3.109   9.741
25044WAT     H275375   6.186   3.004   9.734
25045WAT      O75376   1.486   1.634   2.495
25045WAT     H175377   1.546   1.671   2.424
25045WAT     H275378   1.532   1.638   2.583
25046WAT      O75379   0.723   9.560   7.479
25046WAT     H175380   0.705   9.503   7.560
25046WAT     H275381   0.821   9.558   7.458
25047WAT      O75382   4.945   4.976   1.075
25047WAT     H175383   4.876   4.908   1.100
25047WAT     H275384   5.034   4.932   1.065
25048WAT      O75385   8.126   8.890   4.907
25048WAT     H175386   8.038   8.844   4.924
25048WAT     H275387   8.192   8.862   4.976
25049WAT      O75388   0.688   6.952   6.430
25049WAT     H175389   0.768   6.939   6.488
25049WAT     H275390   0.697   6.896   6.348
25050WAT      O75391   2.226   6.610   6.385
25050WAT     H175392   2.223   6.513   6.411
25050WAT     H275393   2.316   6.632   6.347
25051WAT      O75394   3.958   1.182   6.033
25051WAT     H175395   3.992   1.168   5.940
25051WAT     H275396   3.991   1.108   6.092
25052WAT      O75397   1.819   7.883   8.677
25052WAT     H175398   1.882   7.898   8.753
25052WAT     H275399   1.805   7.785   8.663
25053WAT      O75400   8.030   6.504   8.601
25053WAT     H175401   8.127   6.524   8.605
25053WAT     H275402   8.007   6.468   8.510
25054WAT      O75403   0.383   0.338   9.027
25054WAT     H175404   0.307   0.311   8.968
25054WAT     H275405   0.410   0.432   9.007
25055WAT      O75406   2.601   6.483   1.167
25055WAT     H175407   2.613   6.387   1.193
25055WAT     H275408   2.506   6.499   1.141
25056WAT      O75409   6.487   8.773   1.696
25056WAT     H175410   6.446   8.717   1.769
25056WAT     H275411   6.544   8.844   1.737
25057WAT      O75412   8.803   8.035   0.860
25057WAT     H175413   8.778   8.127   0.829
25057WAT     H275414   8.872   8.041   0.931
25058WAT      O75415   1.877   9.584   4.698
25058WAT     H175416   1.963   9.557   4.742
25058WAT     H275417   1.882   9.562   4.600
25059WAT      O75418   3.717   7.626   6.930
25059WAT     H175419   3.618   7.618   6.941
25059WAT     H275420   3.739   7.639   6.833
25060WAT      O75421   7.910   6.510   5.826
25060WAT     H175422   8.006   6.507   5.854
25060WAT     H275423   7.904   6.504   5.727
25061WAT      O75424   4.929   2.154   3.164
25061WAT     H175425   4.998   2.089   3.196
25061WAT     H275426   4.953   2.246   3.194
25062WAT      O75427   8.384   8.373   0.293
25062WAT     H175428   8.289   8.399   0.309
25062WAT     H275429   8.405   8.380   0.196
25063WAT      O75430   9.662   2.076   9.553
25063WAT     H175431   9.651   2.005   9.483
25063WAT     H275432   9.740   2.053   9.612
25064WAT      O75433   4.802   1.416   0.051
25064WAT     H175434   4.756   1.411   0.139
25064WAT     H275435   4.794   1.508   0.014
25065WAT      O75436   3.560   8.114   8.643
25065WAT     H175437   3.637   8.108   8.580
25065WAT     H275438   3.489   8.049   8.615
25066WAT      O75439   6.262   1.813   5.649
25066WAT     H175440   6.309   1.778   5.730
25066WAT     H275441   6.238   1.737   5.589
25067WAT      O75442   2.025   5.054   0.984
25067WAT     H175443   2.121   5.032   1.003
25067WAT     H275444   1.967   5.013   1.054
25068WAT      O75445   4.269   8.798   0.562
25068WAT     H175446   4.251   8.843   0.474
25068WAT     H275447   4.364   8.812   0.588
25069WAT      O75448   5.535   5.967   3.314
25069WAT     H175449   5.476   5.907   3.260
25069WAT     H275450   5.631   5.952   3.289
25070WAT      O75451   0.689   0.850   1.304
25070WAT     H175452   0.617   0.803   1.355
25070WAT     H275453   0.647   0.911   1.237
25071WAT      O75454   3.477   3.294   7.195
25071WAT     H175455   3.385   3.334   7.187
25071WAT     H275456   3.509   3.267   7.105
25072WAT      O75457   3.183   4.776   5.080
25072WAT     H175458   3.249   4.849   5.062
25072WAT     H275459   3.223   4.710   5.144
25073WAT      O75460   4.681   1.629   1.697
25073WAT     H175461   4.722   1.681   1.771
25073WAT     H275462   4.581   1.633   1.705
25074WAT      O75463   1.948   1.592   4.024
25074WAT     H175464   1.980   1.658   4.092
25074WAT     H275465   1.969   1.625   3.932
25075WAT      O75466   9.301   7.778   8.953
25075WAT     H175467   9.264   7.869   8.931
25075WAT     H275468   9.320   7.729   8.868
25076WAT      O75469   2.453   9.422   5.845
25076WAT     H175470   2.396   9.412   5.763
25076WAT     H275471   2.547   9.443   5.818
25077WAT      O75472   7.529   2.701   9.824
25077WAT     H175473   7.534   2.792   9.865
25077WAT     H275474   7.576   2.635   9.884
25078WAT      O75475   2.916   1.321   0.869
25078WAT     H175476   2.925   1.397   0.806
25078WAT     H275477   2.844   1.259   0.838
25079WAT      O75478   3.457   0.868   5.263
25079WAT     H175479   3.512   0.806   5.208
25079WAT     H275480   3.480   0.963   5.240
25080WAT      O75481   9.197   0.919   2.783
25080WAT     H175482   9.252   0.984   2.731
25080WAT     H275483   9.176   0.840   2.726
25081WAT      O75484   1.328   8.192   6.255
25081WAT     H175485   1.399   8.125   6.233
25081WAT     H275486   1.350   8.280   6.211
25082WAT      O75487   5.499   4.117   1.052
25082WAT     H175488   5.595   4.097   1.031
25082WAT     H275489   5.440   4.082   0.979
25083WAT      O75490   6.037   9.441   2.363
25083WAT     H175491   6.052   9.384   2.283
25083WAT     H275492   5.966   9.509   2.342
25084WAT      O75493   0.673   5.048   5.794
25084WAT     H175494   0.583   5.013   5.819
25084WAT     H275495   0.687   5.137   5.837
25085WAT      O75496   4.354   1.250   1.214
25085WAT     H175497   4.349   1.329   1.153
25085WAT     H275498   4.280   1.187   1.192
25086WAT      O75499   5.821   4.988   5.080
25086WAT     H175500   5.902   4.930   5.070
25086WAT     H275501   5.772   4.961   5.163
25087WAT      O75502   5.015   9.422   6.776
25087WAT     H175503   4.931   9.369   6.792
25087WAT     H275504   5.050   9.457   6.863
25088WAT      O75505   4.892   5.911   5.660
25088WAT     H175506   4.914   5.816   5.680
25088WAT     H275507   4.964   5.970   5.697
25089WAT      O75508   3.894   5.300   4.469
25089WAT     H175509   3.914   5.226   4.405
25089WAT     H275510   3.924   5.274   4.561
25090WAT      O75511   1.160   5.204   6.462
25090WAT     H175512   1.251   5.167   6.482
25090WAT     H275513   1.155   5.299   6.492
25091WAT      O75514   0.470   8.891   0.375
25091WAT     H175515   0.402   8.941   0.428
25091WAT     H275516   0.486   8.801   0.416
25092WAT      O75517   3.129   2.126   5.395
25092WAT     H175518   3.174   2.045   5.359
25092WAT     H275519   3.089   2.105   5.484
25093WAT      O75520   1.444   8.590   6.429
25093WAT     H175521   1.521   8.624   6.374
25093WAT     H275522   1.361   8.590   6.373
25094WAT      O75523   6.141   0.810   7.153
25094WAT     H175524   6.156   0.830   7.056
25094WAT     H275525   6.115   0.895   7.200
25095WAT      O75526   1.491   9.741   0.473
25095WAT     H175527   1.479   9.804   0.550
25095WAT     H275528   1.449   9.781   0.391
25096WAT      O75529   7.128   8.291   6.509
25096WAT     H175530   7.201   8.318   6.446
25096WAT     H275531   7.168   8.264   6.596
25097WAT      O75532   0.191   1.172   1.586
25097WAT     H175533   0.198   1.113   1.667
25097WAT     H275534   0.112   1.145   1.532
25098WAT      O75535   1.456   1.236   7.683
25098WAT     H175536   1.426   1.298   7.610
25098WAT     H275537   1.539   1.272   7.725
25099WAT      O75538   9.400   9.674   9.336
25099WAT     H175539   9.455   9.680   9.253
25099WAT     H275540   9.311   9.632   9.315
25100WAT      O75541   2.420   3.498   6.915
25100WAT     H175542   2.520   3.505   6.904
25100WAT     H275543   2.377   3.580   6.879
25101WAT      O75544   0.974   5.650   4.918
25101WAT     H175545   0.918   5.593   4.858
25101WAT     H275546   1.070   5.624   4.910
25102WAT      O75547   0.767   8.421   3.101
25102WAT     H175548   0.841   8.478   3.067
25102WAT     H275549   0.679   8.459   3.072
25103WAT      O75550   2.406   2.880   1.698
25103WAT     H175551   2.348   2.801   1.718
25103WAT     H275552   2.358   2.964   1.724
25104WAT      O75553   7.017   6.718   6.395
25104WAT     H175554   6.930   6.682   6.360
25104WAT     H275555   7.092   6.669   6.351
25105WAT      O75556   7.425   4.267   3.443
25105WAT     H175557   7.369   4.240   3.364
25105WAT     H275558   7.499   4.327   3.413
25106WAT      O75559   1.980   6.714   6.334
25106WAT     H175560   2.066   6.669   6.357
25106WAT     H275561   1.996   6.811   6.318
25107WAT      O75562   4.657   3.148   5.972
25107WAT     H175563   4.747   3.174   5.937
25107WAT     H275564   4.633   3.209   6.048
25108WAT      O75565   3.452   1.883   9.187
25108WAT     H175566   3.443   1.784   9.196
25108WAT     H275567   3.549   1.907   9.177
25109WAT      O75568   5.205   5.576   9.267
25109WAT     H175569   5.154   5.538   9.344
25109WAT     H275570   5.219   5.674   9.281
25110WAT      O75571   3.943   7.834   0.998
25110WAT     H175572   3.857   7.880   0.977
25110WAT     H275573   3.955   7.756   0.936
25111WAT      O75574   0.757   5.156   3.182
25111WAT     H175575   0.795   5.195   3.265
25111WAT     H275576   0.724   5.063   3.200
25112WAT      O75577   3.906   0.211   4.776
25112WAT     H175578   3.910   0.277   4.851
25112WAT     H275579   3.854   0.251   4.700
25113WAT      O75580   8.652   9.403   3.617
25113WAT     H175581   8.562   9.437   3.588
25113WAT     H275582   8.660   9.306   3.593
25114WAT      O75583   8.572   1.576   3.720
25114WAT     H175584   8.526   1.511   3.660
25114WAT     H275585   8.625   1.527   3.789
25115WAT      O75586   3.157   8.607   8.786
25115WAT     H175587   3.151   8.702   8.754
25115WAT     H275588   3.253   8.581   8.797
25116WAT      O75589   9.633   8.147   1.310
25116WAT     H175590   9.595   8.229   1.351
25116WAT     H275591   9.648   8.162   1.212
25117WAT      O75592   2.553   0.640   3.680
25117WAT     H175593   2.455   0.619   3.680
25117WAT     H275594   2.583   0.661   3.773
25118WAT      O75595   9.524   1.127   0.091
25118WAT     H175596   9.496   1.085   0.178
25118WAT     H275597   9.620   1.157   0.098
25119WAT      O75598   9.748   1.143   4.536
25119WAT     H175599   9.666   1.103   4.495
25119WAT     H275600   9.826   1.083   4.518
25120WAT      O75601   3.155   4.346   0.508
25120WAT     H175602   3.105   4.365   0.592
25120WAT     H275603   3.200   4.429   0.477
25121WAT      O75604   8.992   3.696   8.920
25121WAT     H175605   8.904   3.664   8.886
25121WAT     H275606   8.981   3.782   8.969
25122WAT      O75607   8.031   8.866   6.391
25122WAT     H175608   8.048   8.777   6.433
25122WAT     H275609   7.933   8.878   6.377
25123WAT      O75610   8.020   4.856   7.035
25123WAT     H175611   8.093   4.919   7.011
25123WAT     H275612   8.058   4.772   7.074
25124WAT      O75613   1.397   3.470   1.934
25124WAT     H175614   1.373   3.522   1.852
25124WAT     H275615   1.448   3.388   1.908
25125WAT      O75616   0.998   7.724   4.218
25125WAT     H175617   0.913   7.776   4.220
25125WAT     H275618   1.060   7.758   4.288
25126WAT      O75619   4.278   5.688   6.927
25126WAT     H175620   4.374   5.674   6.903
25126WAT     H275621   4.271   5.754   7.001
25127WAT      O75622   9.735   8.487   7.495
25127WAT     H175623   9.697   8.462   7.584
25127WAT     H275624   9.704   8.579   7.471
25128WAT      O75625   5.863   8.360   7.037
25128WAT     H175626   5.871   8.448   7.082
25128WAT     H275627   5.922   8.293   7.083
25129WAT      O75628   9.843   1.737   5.519
25129WAT     H175629   9.774   1.756   5.588
25129WAT     H275630   9.918   1.685   5.560
25130WAT      O75631   8.658   5.938   9.494
25130WAT     H175632   8.747   5.894   9.506
25130WAT     H275633   8.616   5.904   9.409
25131WAT      O75634   6.766   4.474   0.741
25131WAT     H175635   6.711   4.531   0.679
25131WAT     H275636   6.758   4.379   0.713
25132WAT      O75637   8.378   1.283   7.006
25132WAT     H175638   8.371   1.188   7.037
25132WAT     H275639   8.394   1.342   7.085
25133WAT      O75640   8.158   8.967   1.292
25133WAT     H175641   8.253   8.946   1.314
25133WAT     H275642   8.142   9.065   1.302
25134WAT      O75643   0.543   8.220   8.200
25134WAT     H175644   0.603   8.220   8.120
25134WAT     H275645   0.459   8.170   8.179
25135WAT      O75646   8.316   4.928   8.019
25135WAT     H175647   8.323   5.019   7.977
25135WAT     H275648   8.304   4.938   8.118
25136WAT      O75649   4.736   0.534   8.895
25136WAT     H175650   4.762   0.571   8.984
25136WAT     H275651   4.665   0.465   8.907
25137WAT      O75652   6.884   4.044   4.553
25137WAT     H175653   6.812   4.006   4.494
25137WAT     H275654   6.868   4.017   4.648
25138WAT      O75655   9.307   0.785   9.458
25138WAT     H175656   9.272   0.872   9.494
25138WAT     H275657   9.241   0.713   9.477
25139WAT      O75658   7.979   9.732   6.186
25139WAT     H175659   7.941   9.700   6.100
25139WAT     H275660   8.043   9.665   6.222
25140WAT      O75661   4.077   8.586   9.173
25140WAT     H175662   4.095   8.524   9.097
25140WAT     H275663   4.158   8.643   9.190
25141WAT      O75664   3.073   6.796   4.023
25141WAT     H175665   2.991   6.739   4.035
25141WAT     H275666   3.048   6.892   4.036
25142WAT      O75667   5.442   5.220   9.373
25142WAT     H175668   5.493   5.134   9.379
25142WAT     H275669   5.505   5.297   9.388
25143WAT      O75670   2.545   9.448   9.660
25143WAT     H175671   2.448   9.458   9.682
25143WAT     H275672   2.585   9.376   9.716
25144WAT      O75673   5.141   5.028   6.751
25144WAT     H175674   5.170   5.117   6.786
25144WAT     H275675   5.181   5.014   6.660
25145WAT      O75676   1.038   5.118   3.822
25145WAT     H175677   1.121   5.068   3.801
25145WAT     H275678   1.024   5.191   3.755
25146WAT      O75679   5.199   2.200   4.211
25146WAT     H175680   5.129   2.247   4.264
25146WAT     H275681   5.154   2.137   4.146
25147WAT      O75682   3.486   7.148   8.217
25147WAT     H175683   3.558   7.185   8.159
25147WAT     H275684   3.464   7.213   8.290
25148WAT      O75685   5.160   1.384   4.048
25148WAT     H175686   5.131   1.344   4.135
25148WAT     H275687   5.085   1.380   3.983
25149WAT      O75688   5.573   4.338   6.513
25149WAT     H175689   5.572   4.428   6.469
25149WAT     H275690   5.500   4.333   6.581
25150WAT      O75691   9.189   5.345   8.487
25150WAT     H175692   9.284   5.365   8.514
25150WAT     H275693   9.129   5.356   8.565
25151WAT      O75694   3.769   8.797   2.083
25151WAT     H175695   3.785   8.845   1.997
25151WAT     H275696   3.854   8.797   2.136
25152WAT      O75697   6.524   0.641   1.109
25152WAT     H175698   6.568   0.686   1.186
25152WAT     H275699   6.549   0.544   1.108
25153WAT      O75700   3.352   2.806   3.926
25153WAT     H175701   3.420   2.864   3.883
25153WAT     H275702   3.262   2.849   3.920
25154WAT      O75703   9.369   4.677   3.256
25154WAT     H175704   9.413   4.622   3.327
25154WAT     H275705   9.271   4.656   3.254
25155WAT      O75706   7.798   4.493   3.087
25155WAT     H175707   7.776   4.585   3.120
25155WAT     H275708   7.890   4.493   3.047
25156WAT      O75709   3.045   9.085   0.207
25156WAT     H175710   3.016   9.056   0.298
25156WAT     H275711   3.039   9.009   0.144
25157WAT      O75712   5.511   8.329   1.697
25157WAT     H175713   5.427   8.342   1.750
25157WAT     H275714   5.566   8.412   1.701
25158WAT      O75715   4.528   3.850   2.811
25158WAT     H175716   4.497   3.891   2.897
25158WAT     H275717   4.535   3.921   2.741
25159WAT      O75718   2.542   6.832   5.756
25159WAT     H175719   2.538   6.930   5.776
25159WAT     H275720   2.453   6.791   5.775
25160WAT      O75721   8.257   3.813   7.846
25160WAT     H175722   8.247   3.805   7.747
25160WAT     H275723   8.344   3.857   7.867
25161WAT      O75724   8.394   0.645   8.938
25161WAT     H175725   8.386   0.701   8.855
25161WAT     H275726   8.303   0.633   8.979
25162WAT      O75727   7.723   4.859   7.831
25162WAT     H175728   7.819   4.847   7.856
25162WAT     H275729   7.705   4.811   7.745
25163WAT      O75730   5.757   4.028   0.821
25163WAT     H175731   5.762   4.118   0.778
25163WAT     H275732   5.748   3.958   0.751
25164WAT      O75733   8.987   2.932   3.653
25164WAT     H175734   9.062   2.990   3.620
25164WAT     H275735   9.010   2.836   3.637
25165WAT      O75736   2.793   6.633   7.237
25165WAT     H175737   2.737   6.701   7.189
25165WAT     H275738   2.747   6.544   7.234
25166WAT      O75739   5.257   7.524   2.110
25166WAT     H175740   5.340   7.577   2.091
25166WAT     H275741   5.196   7.577   2.169
25167WAT      O75742   3.571   4.941   9.814
25167WAT     H175743   3.592   4.845   9.834
25167WAT     H275744   3.645   4.999   9.848
25168WAT      O75745   4.399   8.499   8.377
25168WAT     H175746   4.474   8.522   8.315
25168WAT     H275747   4.359   8.412   8.351
25169WAT      O75748   8.741   4.549   8.025
25169WAT     H175749   8.679   4.473   8.044
25169WAT     H275750   8.819   4.516   7.972
25170WAT      O75751   2.243   1.582   7.064
25170WAT     H175752   2.291   1.505   7.022
25170WAT     H275753   2.249   1.574   7.164
25171WAT      O75754   0.904   2.315   3.080
25171WAT     H175755   0.985   2.314   3.138
25171WAT     H275756   0.932   2.308   2.984
25172WAT      O75757   4.239   3.150   8.071
25172WAT     H175758   4.229   3.136   8.169
25172WAT     H275759   4.287   3.072   8.031
25173WAT      O75760   3.035   6.618   4.747
25173WAT     H175761   2.945   6.583   4.771
25173WAT     H275762   3.104   6.579   4.809
25174WAT      O75763   8.675   4.790   0.552
25174WAT     H175764   8.768   4.821   0.570
25174WAT     H275765   8.649   4.818   0.459
25175WAT      O75766   1.500   5.378   9.078
25175WAT     H175767   1.437   5.317   9.126
25175WAT     H275768   1.579   5.396   9.137
25176WAT      O75769   7.564   9.809   9.885
25176WAT     H175770   7.534   9.885   9.942
25176WAT     H275771   7.537   9.723   9.928
25177WAT      O75772   6.716   3.589   0.227
25177WAT     H175773   6.697   3.659   0.158
25177WAT     H275774   6.807   3.550   0.211
25178WAT      O75775   3.048   7.857   7.132
25178WAT     H175776   2.955   7.886   7.109
25178WAT     H275777   3.044   7.775   7.188
25179WAT      O75778   1.824   6.245   2.180
25179WAT     H175779   1.789   6.166   2.231
25179WAT     H275780   1.750   6.311   2.166
25180WAT      O75781   4.723   0.249   3.839
25180WAT     H175782   4.634   0.213   3.869
25180WAT     H275783   4.708   0.322   3.773
25181WAT      O75784   6.079   4.752   3.524
25181WAT     H175785   6.125   4.806   3.595
25181WAT     H275786   5.983   4.739   3.548
25182WAT      O75787   2.028   8.146   1.770
25182WAT     H175788   2.008   8.241   1.748
25182WAT     H275789   2.079   8.142   1.856
25183WAT      O75790   7.340   8.020   8.268
25183WAT     H175791   7.276   8.057   8.201
25183WAT     H275792   7.396   7.948   8.226
25184WAT      O75793   9.441   3.246   9.114
25184WAT     H175794   9.442   3.338   9.153
25184WAT     H275795   9.410   3.181   9.184
25185WAT      O75796   6.797   7.487   9.092
25185WAT     H175797   6.769   7.423   9.164
25185WAT     H275798   6.861   7.554   9.129
25186WAT      O75799   9.828   8.792   4.684
25186WAT     H175800   9.731   8.817   4.681
25186WAT     H275801   9.868   8.823   4.770
25187WAT      O75802   1.596   2.867   3.189
25187WAT     H175803   1.509   2.836   3.228
25187WAT     H275804   1.579   2.911   3.101
25188WAT      O75805   7.107   9.665   0.805
25188WAT     H175806   7.088   9.632   0.898
25188WAT     H275807   7.079   9.760   0.796
25189WAT      O75808   3.490   6.112   4.738
25189WAT     H175809   3.524   6.094   4.830
25189WAT     H275810   3.542   6.058   4.672
25190WAT      O75811   1.513   9.230   1.591
25190WAT     H175812   1.507   9.194   1.497
25190WAT     H275813   1.430   9.283   1.611
25191WAT      O75814   7.880   5.824   8.737
25191WAT     H175815   7.796   5.802   8.688
25191WAT     H275816   7.875   5.785   8.829
25192WAT      O75817   4.218   7.606   1.820
25192WAT     H175818   4.213   7.686   1.760
25192WAT     H275819   4.306   7.605   1.867
25193WAT      O75820   8.263   9.765   7.687
25193WAT     H175821   8.240   9.692   7.751
25193WAT     H275822   8.179   9.811   7.658
25194WAT      O75823   9.272   1.196   8.990
25194WAT     H175824   9.196   1.241   9.037
25194WAT     H275825   9.238   1.113   8.945
25195WAT      O75826   5.187   9.346   4.603
25195WAT     H175827   5.262   9.286   4.577
25195WAT     H275828   5.206   9.389   4.691
25196WAT      O75829   9.110   7.436   8.574
25196WAT     H175830   9.092   7.350   8.527
25196WAT     H275831   9.082   7.512   8.516
25197WAT      O75832   6.763   2.323   8.974
25197WAT     H175833   6.669   2.315   8.940
25197WAT     H275834   6.772   2.406   9.029
25198WAT      O75835   2.214   7.294   1.572
25198WAT     H175836   2.149   7.322   1.643
25198WAT     H275837   2.211   7.195   1.562
25199WAT      O75838   7.696   9.649   0.613
25199WAT     H175839   7.784   9.602   0.611
25199WAT     H275840   7.637   9.614   0.541
25200WAT      O75841   0.146   6.463   1.201
25200WAT     H175842   0.129   6.365   1.196
25200WAT     H275843   0.129   6.495   1.295
25201WAT      O75844   1.465   2.153   3.625
25201WAT     H175845   1.485   2.230   3.564
25201WAT     H275846   1.403   2.182   3.697
25202WAT      O75847   7.382   0.658   8.718
25202WAT     H175848   7.447   0.725   8.681
25202WAT     H275849   7.362   0.589   8.649
25203WAT      O75850   3.300   3.228   2.997
25203WAT     H175851   3.211   3.264   3.025
25203WAT     H275852   3.287   3.144   2.945
25204WAT      O75853   5.849   6.833   2.874
25204WAT     H175854   5.887   6.746   2.905
25204WAT     H275855   5.750   6.833   2.889
25205WAT      O75856   8.926   8.410   4.594
25205WAT     H175857   8.853   8.477   4.608
25205WAT     H275858   8.917   8.369   4.503
25206WAT      O75859   2.085   2.538   7.566
25206WAT     H175860   2.148   2.474   7.609
25206WAT     H275861   2.073   2.618   7.625
25207WAT      O75862   0.525   6.201   6.428
25207WAT     H175863   0.430   6.231   6.423
25207WAT     H275864   0.566   6.236   6.512
25208WAT      O75865   6.062   7.562   2.870
25208WAT     H175866   6.116   7.529   2.794
25208WAT     H275867   5.970   7.586   2.838
25209WAT      O75868   1.762   6.191   3.923
25209WAT     H175869   1.737   6.221   3.830
25209WAT     H275870   1.828   6.116   3.917
25210WAT      O75871   0.678   6.112   3.499
25210WAT     H175872   0.674   6.200   3.546
25210WAT     H275873   0.588   6.067   3.504
25211WAT      O75874   3.526   2.500   6.369
25211WAT     H175875   3.573   2.500   6.280
25211WAT     H275876   3.594   2.502   6.442
25212WAT      O75877   3.791   2.083   5.086
25212WAT     H175878   3.797   2.074   4.987
25212WAT     H275879   3.704   2.045   5.118
25213WAT      O75880   4.052   2.846   4.207
25213WAT     H175881   4.095   2.924   4.161
25213WAT     H275882   4.027   2.777   4.139
25214WAT      O75883   6.653   0.524   3.728
25214WAT     H175884   6.662   0.534   3.827
25214WAT     H275885   6.741   0.497   3.689
25215WAT      O75886   0.372   7.060   1.606
25215WAT     H175887   0.403   6.970   1.574
25215WAT     H275888   0.311   7.100   1.538
25216WAT      O75889   1.245   0.637   1.724
25216WAT     H175890   1.165   0.579   1.741
25216WAT     H275891   1.253   0.705   1.797
25217WAT      O75892   0.449   4.058   8.945
25217WAT     H175893   0.457   4.133   8.879
25217WAT     H275894   0.421   3.975   8.897
25218WAT      O75895   2.834   5.837   6.351
25218WAT     H175896   2.786   5.922   6.329
25218WAT     H275897   2.931   5.856   6.365
25219WAT      O75898   2.701   9.602   8.868
25219WAT     H175899   2.642   9.638   8.940
25219WAT     H275900   2.773   9.669   8.847
25220WAT      O75901   0.194   9.271   6.177
25220WAT     H175902   0.281   9.293   6.222
25220WAT     H275903   0.192   9.311   6.086
25221WAT      O75904   8.300   8.635   2.800
25221WAT     H175905   8.239   8.562   2.771
25221WAT     H275906   8.246   8.714   2.830
25222WAT      O75907   0.427   9.359   9.741
25222WAT     H175908   0.387   9.415   9.669
25222WAT     H275909   0.354   9.314   9.793
25223WAT      O75910   9.440   9.410   0.717
25223WAT     H175911   9.373   9.483   0.704
25223WAT     H275912   9.392   9.325   0.738
25224WAT      O75913   3.794   6.010   4.353
25224WAT     H175914   3.888   6.020   4.321
25224WAT     H275915   3.732   6.017   4.276
25225WAT      O75916   6.967   9.322   9.876
25225WAT     H175917   6.937   9.302   9.783
25225WAT     H275918   7.014   9.410   9.878
25226WAT      O75919   4.203   8.563   8.717
25226WAT     H175920   4.185   8.621   8.796
25226WAT     H275921   4.296   8.527   8.722
25227WAT      O75922   0.025   7.376   9.076
25227WAT     H175923  -0.026   7.457   9.048
25227WAT     H275924   0.005   7.300   9.013
25228WAT      O75925   2.453   5.718   7.115
25228WAT     H175926   2.537   5.722   7.062
25228WAT     H275927   2.377   5.690   7.056
25229WAT      O75928   4.834   3.233   8.847
25229WAT     H175929   4.839   3.160   8.779
25229WAT     H275930   4.880   3.315   8.813
25230WAT      O75931   1.189   3.205   2.576
25230WAT     H175932   1.211   3.230   2.482
25230WAT     H275933   1.127   3.274   2.615
25231WAT      O75934   7.804   8.645   5.771
25231WAT     H175935   7.880   8.688   5.723
25231WAT     H275936   7.809   8.546   5.760
25232WAT      O75937   6.288   4.944   3.343
25232WAT     H175938   6.370   4.998   3.326
25232WAT     H275939   6.293   4.858   3.291
25233WAT      O75940   8.682   6.173   9.355
25233WAT     H175941   8.768   6.169   9.305
25233WAT     H275942   8.691   6.119   9.439
25234WAT      O75943   3.756   3.329   0.114
25234WAT     H175944   3.759   3.419   0.070
25234WAT     H275945   3.806   3.333   0.200
25235WAT      O75946   1.056   0.554   7.923
25235WAT     H175947   1.043   0.471   7.870
25235WAT     H275948   1.028   0.634   7.869
25236WAT      O75949   9.574   7.497   6.544
25236WAT     H175950   9.661   7.499   6.496
25236WAT     H275951   9.584   7.540   6.634
25237WAT      O75952   4.001   3.004   6.672
25237WAT     H175953   3.967   2.929   6.616
25237WAT     H275954   4.065   3.059   6.618
25238WAT      O75955   3.602   7.198   0.596
25238WAT     H175956   3.532   7.193   0.667
25238WAT     H275957   3.679   7.138   0.620
25239WAT      O75958   4.063   0.993   5.464
25239WAT     H175959   4.090   0.897   5.465
25239WAT     H275960   4.114   1.043   5.535
25240WAT      O75961   5.676   8.549   1.698
25240WAT     H175962   5.641   8.639   1.725
25240WAT     H275963   5.775   8.546   1.714
25241WAT      O75964   1.589   0.617   4.211
25241WAT     H175965   1.611   0.661   4.298
25241WAT     H275966   1.491   0.603   4.204
25242WAT      O75967   8.780   6.991   6.439
25242WAT     H175968   8.686   7.022   6.457
25242WAT     H275969   8.837   7.070   6.418
25243WAT      O75970   6.098   3.426   7.849
25243WAT     H175971   6.086   3.506   7.791
25243WAT     H275972   6.185   3.433   7.898
25244WAT      O75973   3.737   4.268   7.487
25244WAT     H175974   3.674   4.236   7.558
25244WAT     H275975   3.787   4.190   7.450
25245WAT      O75976   7.780   4.446   2.580
25245WAT     H175977   7.835   4.530   2.586
25245WAT     H275978   7.690   4.462   2.621
25246WAT      O75979   1.145   8.575   3.261
25246WAT     H175980   1.118   8.563   3.166
25246WAT     H275981   1.209   8.503   3.287
25247WAT      O75982   2.633   4.116   2.543
25247WAT     H175983   2.583   4.199   2.569
25247WAT     H275984   2.696   4.137   2.468
25248WAT      O75985   8.657   8.408   3.895
25248WAT     H175986   8.726   8.458   3.842
25248WAT     H275987   8.687   8.313   3.906
25249WAT      O75988   3.904   6.251   9.459
25249WAT     H175989   3.927   6.180   9.392
25249WAT     H275990   3.807   6.274   9.451
25250WAT      O75991   0.760   7.648   8.723
25250WAT     H175992   0.676   7.602   8.753
25250WAT     H275993   0.776   7.728   8.781
25251WAT      O75994   0.562   0.439   8.739
25251WAT     H175995   0.463   0.422   8.741
25251WAT     H275996   0.608   0.360   8.697
25252WAT      O75997   0.452   9.762   4.225
25252WAT     H175998   0.531   9.723   4.272
25252WAT     H275999   0.409   9.831   4.284
25253WAT      O76000   8.728   1.646   7.180
25253WAT     H176001   8.822   1.656   7.211
25253WAT     H276002   8.700   1.550   7.188
25254WAT      O76003   7.379   1.866   1.666
25254WAT     H176004   7.332   1.919   1.736
25254WAT     H276005   7.473   1.847   1.695
25255WAT      O76006   5.087   3.480   2.517
25255WAT     H176007   5.074   3.462   2.614
25255WAT     H276008   5.149   3.558   2.506
25256WAT      O76009   4.078   1.811   9.608
25256WAT     H176010   4.125   1.872   9.672
25256WAT     H276011   4.134   1.800   9.526
25257WAT      O76012   4.689   8.899   5.350
25257WAT     H176013   4.766   8.864   5.298
25257WAT     H276014   4.717   8.915   5.445
25258WAT      O76015   7.553   4.068   3.182
25258WAT     H176016   7.470   4.113   3.213
25258WAT     H276017   7.631   4.131   3.189
25259WAT      O76018   3.694   3.543   9.881
25259WAT     H176019   3.674   3.480   9.805
25259WAT     H276020   3.762   3.610   9.851
25260WAT      O76021   6.800   8.822   2.144
25260WAT     H176022   6.827   8.779   2.230
25260WAT     H276023   6.711   8.865   2.155
25261WAT      O76024   9.129   9.001   1.603
25261WAT     H176025   9.063   8.932   1.631
25261WAT     H276026   9.096   9.048   1.521
25262WAT      O76027   5.848   0.200   3.836
25262WAT     H176028   5.943   0.229   3.822
25262WAT     H276029   5.805   0.260   3.904
25263WAT      O76030   3.619   4.390   4.795
25263WAT     H176031   3.598   4.488   4.794
25263WAT     H276032   3.693   4.372   4.730
25264WAT      O76033   4.999   6.162   3.358
25264WAT     H176034   5.021   6.065   3.355
25264WAT     H276035   4.900   6.174   3.357
25265WAT      O76036   1.744   8.323   5.955
25265WAT     H176037   1.844   8.312   5.960
25265WAT     H276038   1.722   8.417   5.929
25266WAT      O76039   0.869   7.597   7.821
25266WAT     H176040   0.770   7.604   7.824
25266WAT     H276041   0.910   7.669   7.877
25267WAT      O76042   4.604   9.063   6.862
25267WAT     H176043   4.606   9.095   6.956
25267WAT     H276044   4.516   9.088   6.820
25268WAT      O76045   6.689   4.174   6.740
25268WAT     H176046   6.713   4.271   6.743
25268WAT     H276047   6.591   4.164   6.725
25269WAT      O76048   5.297   9.538   3.924
25269WAT     H176049   5.306   9.479   3.844
25269WAT     H276050   5.386   9.578   3.946
25270WAT      O76051   9.596   6.908   0.174
25270WAT     H176052   9.688   6.902   0.213
25270WAT     H276053   9.592   6.984   0.109
25271WAT      O76054   8.092   5.942   1.243
25271WAT     H176055   8.161   5.960   1.314
25271WAT     H276056   8.069   5.845   1.243
25272WAT      O76057   1.613   1.488   9.122
25272WAT     H176058   1.695   1.479   9.178
25272WAT     H276059   1.636   1.468   9.027
25273WAT      O76060   4.715   7.672   0.670
25273WAT     H176061   4.699   7.612   0.748
25273WAT     H276062   4.813   7.678   0.652
25274WAT      O76063   9.814   7.612   9.446
25274WAT     H176064   9.772   7.636   9.359
25274WAT     H276065   9.819   7.693   9.504
25275WAT      O76066   8.335   6.162   3.601
25275WAT     H176067   8.239   6.188   3.593
25275WAT     H276068   8.343   6.081   3.659
25276WAT      O76069   8.217   0.145   0.056
25276WAT     H176070   8.289   0.075   0.052
25276WAT     H276071   8.253   0.232   0.022
25277WAT      O76072   0.123   7.259   7.679
25277WAT     H176073   0.194   7.189   7.690
25277WAT     H276074   0.139   7.309   7.593
25278WAT      O76075   3.192   5.020   4.579
25278WAT     H176076   3.102   5.015   4.624
25278WAT     H276077   3.184   4.981   4.487
25279WAT      O76078   4.196   3.456   3.902
25279WAT     H176079   4.281   3.492   3.865
25279WAT     H276080   4.212   3.422   3.995
25280WAT      O76081   1.794   2.869   4.348
25280WAT     H176082   1.823   2.964   4.357
25280WAT     H276083   1.840   2.813   4.417
25281WAT      O76084   0.950   9.260   9.015
25281WAT     H176085   1.002   9.184   9.054
25281WAT     H276086   0.985   9.281   8.924
25282WAT      O76087   5.945   9.496   5.384
25282WAT     H176088   6.002   9.421   5.417
25282WAT     H276089   5.985   9.534   5.300
25283WAT      O76090   5.325   2.415   6.808
25283WAT     H176091   5.402   2.394   6.868
25283WAT     H276092   5.254   2.345   6.819
25284WAT      O76093   5.157   5.953   0.321
25284WAT     H176094   5.093   5.917   0.389
25284WAT     H276095   5.249   5.954   0.359
25285WAT      O76096   9.325   4.115   7.122
25285WAT     H176097   9.309   4.016   7.116
25285WAT     H276098   9.247   4.158   7.168
25286WAT      O76099   3.720   2.769   8.917
25286WAT     H176100   3.799   2.709   8.908
25286WAT     H276101   3.636   2.717   8.901
25287WAT      O76102   9.475   4.809   7.777
25287WAT     H176103   9.504   4.888   7.723
25287WAT     H276104   9.556   4.756   7.803
25288WAT      O76105   4.874   4.202   5.393
25288WAT     H176106   4.938   4.125   5.396
25288WAT     H276107   4.892   4.256   5.311
25289WAT      O76108   4.598   9.772   2.660
25289WAT     H176109   4.557   9.684   2.636
25289WAT     H276110   4.525   9.839   2.677
25290WAT      O76111   4.667   2.254   7.638
25290WAT     H176112   4.574   2.221   7.624
25290WAT     H276113   4.719   2.186   7.689
25291WAT      O76114   8.989   1.452   2.241
25291WAT     H176115   9.041   1.387   2.295
25291WAT     H276116   8.989   1.423   2.145
25292WAT      O76117   1.928   3.754   6.688
25292WAT     H176118   1.952   3.732   6.594
25292WAT     H276119   1.993   3.820   6.725
25293WAT      O76120   6.627   1.711   0.918
25293WAT     H176121   6.614   1.799   0.873
25293WAT     H276122   6.695   1.719   0.990
25294WAT      O76123   5.146   8.660   3.244
25294WAT     H176124   5.048   8.672   3.230
25294WAT     H276125   5.171   8.564   3.228
25295WAT      O76126   9.415   7.004   8.945
25295WAT     H176127   9.378   7.075   8.885
25295WAT     H276128   9.495   7.039   8.993
25296WAT      O76129   2.244   0.248   0.918
25296WAT     H176130   2.189   0.166   0.934
25296WAT     H276131   2.341   0.223   0.917
25297WAT      O76132   9.583   1.673   7.086
25297WAT     H176133   9.521   1.596   7.071
25297WAT     H276134   9.637   1.657   7.169
25298WAT      O76135   2.193   7.587   1.806
25298WAT     H176136   2.149   7.596   1.895
25298WAT     H276137   2.289   7.614   1.812
25299WAT      O76138   8.959   4.030   2.837
25299WAT     H176139   8.966   4.011   2.739
25299WAT     H276140   9.051   4.033   2.877
25300WAT      O76141   3.443   8.193   6.366
25300WAT     H176142   3.413   8.164   6.457
25300WAT     H276143   3.536   8.160   6.349
25301WAT      O76144   2.053   9.706   0.480
25301WAT     H176145   2.088   9.729   0.389
25301WAT     H276146   2.116   9.741   0.550
25302WAT      O76147   0.307   2.842   4.232
25302WAT     H176148   0.229   2.795   4.193
25302WAT     H276149   0.281   2.936   4.256
25303WAT      O76150   7.077   7.463   2.192
25303WAT     H176151   6.982   7.449   2.165
25303WAT     H276152   7.134   7.475   2.111
25304WAT      O76153   2.459   2.575   5.308
25304WAT     H176154   2.422   2.484   5.329
25304WAT     H276155   2.449   2.634   5.389
25305WAT      O76156   8.671   3.342   7.489
25305WAT     H176157   8.575   3.318   7.505
25305WAT     H276158   8.711   3.378   7.573
25306WAT      O76159   3.923   5.323   2.509
25306WAT     H176160   3.913   5.224   2.521
25306WAT     H276161   3.834   5.367   2.515
25307WAT      O76162   2.029   4.477   7.729
25307WAT     H176163   1.953   4.445   7.672
25307WAT     H276164   2.114   4.436   7.696
25308WAT      O76165   9.003   7.468   9.592
25308WAT     H176166   9.095   7.454   9.555
25308WAT     H276167   8.940   7.401   9.551
25309WAT      O76168   4.220   8.357   2.014
25309WAT     H176169   4.190   8.409   2.094
25309WAT     H276170   4.156   8.282   1.998
25310WAT      O76171   9.566   9.273   0.485
25310WAT     H176172   9.546   9.177   0.463
25310WAT     H276173   9.507   9.302   0.561
25311WAT      O76174   3.844   9.107   5.197
25311WAT     H176175   3.792   9.059   5.268
25311WAT     H276176   3.902   9.177   5.239
25312WAT      O76177   8.653   1.614   9.828
25312WAT     H176178   8.571   1.595   9.882
25312WAT     H276179   8.628   1.668   9.747
25313WAT      O76180   1.948   2.181   8.663
25313WAT     H176181   2.001   2.265   8.652
25313WAT     H276182   1.896   2.164   8.579
25314WAT      O76183   6.400   2.544   9.142
25314WAT     H176184   6.316   2.596   9.120
25314WAT     H276185   6.394   2.510   9.235
25315WAT      O76186   5.805   9.671   0.568
25315WAT     H176187   5.893   9.697   0.528
25315WAT     H276188   5.739   9.657   0.495
25316WAT      O76189   3.719   1.103   6.178
25316WAT     H176190   3.793   1.160   6.142
25316WAT     H276191   3.711   1.118   6.277
25317WAT      O76192   1.319   6.674   4.209
25317WAT     H176193   1.300   6.723   4.123
25317WAT     H276194   1.289   6.580   4.200
25318WAT      O76195   3.135   0.469   4.036
25318WAT     H176196   3.124   0.533   3.960
25318WAT     H276197   3.180   0.516   4.113
25319WAT      O76198   5.840   5.264   5.096
25319WAT     H176199   5.886   5.262   5.185
25319WAT     H276200   5.807   5.172   5.074
25320WAT      O76201   5.404   4.023   5.166
25320WAT     H176202   5.330   3.959   5.144
25320WAT     H276203   5.375   4.116   5.143
25321WAT      O76204   7.985   3.833   0.001
25321WAT     H176205   7.888   3.810   0.014
25321WAT     H276206   8.042   3.756   0.027
25322WAT      O76207   2.170   2.431   3.095
25322WAT     H176208   2.189   2.381   3.179
25322WAT     H276209   2.175   2.529   3.112
25323WAT      O76210   2.963   5.269   4.714
25323WAT     H176211   2.946   5.216   4.797
25323WAT     H276212   3.025   5.219   4.654
25324WAT      O76213   8.550   5.574   5.416
25324WAT     H176214   8.618   5.630   5.464
25324WAT     H276215   8.504   5.629   5.346
25325WAT      O76216   5.138   3.707   7.804
25325WAT     H176217   5.132   3.806   7.797
25325WAT     H276218   5.173   3.669   7.718
25326WAT      O76219   1.852   6.282   7.054
25326WAT     H176220   1.912   6.258   6.978
25326WAT     H276221   1.803   6.367   7.032
25327WAT      O76222   4.681   0.773   0.162
25327WAT     H176223   4.694   0.835   0.085
25327WAT     H276224   4.707   0.680   0.135
25328WAT      O76225   6.454   5.943   2.511
25328WAT     H176226   6.511   6.008   2.561
25328WAT     H276227   6.441   5.860   2.566
25329WAT      O76228   6.143   5.179   7.936
25329WAT     H176229   6.145   5.104   7.870
25329WAT     H276230   6.059   5.173   7.990
25330WAT      O76231   8.634   5.131   5.031
25330WAT     H176232   8.560   5.197   5.019
25330WAT     H276233   8.714   5.177   5.071
25331WAT      O76234   0.264   5.047   4.721
25331WAT     H176235   0.285   4.965   4.774
25331WAT     H276236   0.288   5.032   4.625
25332WAT      O76237   2.392   1.126   6.687
25332WAT     H176238   2.366   1.221   6.674
25332WAT     H276239   2.398   1.106   6.785
25333WAT      O76240   4.160   1.364   1.771
25333WAT     H176241   4.135   1.454   1.735
25333WAT     H276242   4.209   1.312   1.702
25334WAT      O76243   7.085   6.031   8.826
25334WAT     H176244   7.147   6.081   8.765
25334WAT     H276245   7.090   6.070   8.918
25335WAT      O76246   4.179   9.437   1.845
25335WAT     H176247   4.092   9.448   1.892
25335WAT     H276248   4.239   9.377   1.898
25336WAT      O76249   5.357   7.320   4.314
25336WAT     H176250   5.314   7.293   4.228
25336WAT     H276251   5.451   7.350   4.297
25337WAT      O76252   0.812   9.410   2.176
25337WAT     H176253   0.731   9.359   2.149
25337WAT     H276254   0.889   9.384   2.117
25338WAT      O76255   1.934   8.581   6.282
25338WAT     H176256   1.864   8.559   6.350
25338WAT     H276257   1.985   8.662   6.312
25339WAT      O76258   8.282   5.665   2.370
25339WAT     H176259   8.194   5.625   2.395
25339WAT     H276260   8.279   5.693   2.274
25340WAT      O76261   5.544   4.803   3.540
25340WAT     H176262   5.462   4.839   3.583
25340WAT     H276263   5.585   4.732   3.598
25341WAT      O76264   2.676   7.454   2.972
25341WAT     H176265   2.647   7.424   3.063
25341WAT     H276266   2.759   7.509   2.980
25342WAT      O76267   0.073   5.271   1.853
25342WAT     H176268  -0.005   5.219   1.820
25342WAT     H276269   0.127   5.304   1.776
25343WAT      O76270   9.676   6.849   9.411
25343WAT     H176271   9.753   6.786   9.422
25343WAT     H276272   9.658   6.896   9.498
25344WAT      O76273   9.404   2.220   5.115
25344WAT     H176274   9.491   2.254   5.149
25344WAT     H276275   9.363   2.288   5.053
25345WAT      O76276   8.933   6.039   2.471
25345WAT     H176277   8.910   6.136   2.467
25345WAT     H276278   8.981   6.020   2.557
25346WAT      O76279   0.865   8.604   8.985
25346WAT     H176280   0.948   8.564   9.024
25346WAT     H276281   0.810   8.644   9.058
25347WAT      O76282   7.259   2.585   0.643
25347WAT     H176283   7.184   2.641   0.679
25347WAT     H276284   7.238   2.488   0.657
25348WAT      O76285   3.804   0.733   6.347
25348WAT     H176286   3.775   0.659   6.409
25348WAT     H276287   3.831   0.812   6.402
25349WAT      O76288   7.869   5.449   6.207
25349WAT     H176289   7.798   5.512   6.175
25349WAT     H276290   7.829   5.382   6.269
25350WAT      O76291   6.323   5.066   8.129
25350WAT     H176292   6.259   5.123   8.076
25350WAT     H276293   6.273   5.016   8.200
25351WAT      O76294   5.914   5.928   4.268
25351WAT     H176295   5.852   5.866   4.316
25351WAT     H276296   6.005   5.888   4.263
25352WAT      O76297   0.240   3.553   3.524
25352WAT     H176298   0.144   3.581   3.516
25352WAT     H276299   0.298   3.635   3.529
25353WAT      O76300   8.805   6.872   6.179
25353WAT     H176301   8.722   6.892   6.127
25353WAT     H276302   8.787   6.886   6.277
25354WAT      O76303   0.853   1.630   9.351
25354WAT     H176304   0.763   1.674   9.346
25354WAT     H276305   0.843   1.540   9.394
25355WAT      O76306   7.510   1.654   6.468
25355WAT     H176307   7.461   1.569   6.447
25355WAT     H276308   7.460   1.705   6.538
25356WAT      O76309   9.315   8.432   4.422
25356WAT     H176310   9.387   8.422   4.490
25356WAT     H276311   9.283   8.341   4.394
25357WAT      O76312   9.753   7.100   7.411
25357WAT     H176313   9.817   7.177   7.412
25357WAT     H276314   9.741   7.065   7.504
25358WAT      O76315   8.536   1.552   2.821
25358WAT     H176316   8.554   1.596   2.733
25358WAT     H276317   8.580   1.605   2.894
25359WAT      O76318   3.334   0.103   4.147
25359WAT     H176319   3.322   0.152   4.060
25359WAT     H276320   3.260   0.037   4.159
25360WAT      O76321   3.762   3.495   3.464
25360WAT     H176322   3.695   3.547   3.516
25360WAT     H276323   3.768   3.403   3.500
25361WAT      O76324   0.102   8.569   3.246
25361WAT     H176325   0.071   8.637   3.313
25361WAT     H276326   0.097   8.478   3.286
25362WAT      O76327   5.673   9.205   4.049
25362WAT     H176328   5.693   9.110   4.026
25362WAT     H276329   5.588   9.233   4.005
25363WAT      O76330   5.662   8.562   6.462
25363WAT     H176331   5.641   8.465   6.454
25363WAT     H276332   5.762   8.573   6.467
25364WAT      O76333   3.291   1.512   8.514
25364WAT     H176334   3.355   1.588   8.505
25364WAT     H276335   3.336   1.428   8.484
25365WAT      O76336   1.750   0.995   1.717
25365WAT     H176337   1.654   0.970   1.727
25365WAT     H276338   1.797   0.925   1.663
25366WAT      O76339   4.578   9.726   1.379
25366WAT     H176340   4.674   9.709   1.399
25366WAT     H276341   4.571   9.797   1.309
25367WAT      O76342   3.370   4.263   6.244
25367WAT     H176343   3.287   4.296   6.198
25367WAT     H276344   3.375   4.300   6.336
25368WAT      O76345   1.454   3.858   7.412
25368WAT     H176346   1.360   3.828   7.397
25368WAT     H276347   1.489   3.817   7.496
25369WAT      O76348   1.769   9.248   3.596
25369WAT     H176349   1.782   9.314   3.523
25369WAT     H276350   1.834   9.267   3.670
25370WAT      O76351   0.747   7.171   5.367
25370WAT     H176352   0.668   7.207   5.317
25370WAT     H276353   0.788   7.096   5.315
25371WAT      O76354   9.388   8.985   5.948
25371WAT     H176355   9.350   9.074   5.924
25371WAT     H276356   9.485   8.995   5.970
25372WAT      O76357   6.132   9.044   1.126
25372WAT     H176358   6.088   9.132   1.144
25372WAT     H276359   6.196   9.023   1.200
25373WAT      O76360   2.070   3.929   3.384
25373WAT     H176361   1.974   3.903   3.378
25373WAT     H276362   2.080   4.013   3.437
25374WAT      O76363   4.833   8.633   8.985
25374WAT     H176364   4.897   8.705   8.961
25374WAT     H276365   4.842   8.611   9.082
25375WAT      O76366   4.902   3.101   7.163
25375WAT     H176367   5.000   3.102   7.183
25375WAT     H276368   4.873   3.192   7.133
25376WAT      O76369   8.264   7.947   1.989
25376WAT     H176370   8.255   7.894   1.905
25376WAT     H276371   8.294   8.040   1.967
25377WAT      O76372   4.942   2.294   0.580
25377WAT     H176373   5.031   2.262   0.545
25377WAT     H276374   4.873   2.285   0.508
25378WAT      O76375   6.714   5.225   4.441
25378WAT     H176376   6.806   5.248   4.472
25378WAT     H276377   6.705   5.126   4.430
25379WAT      O76378   3.111   8.919   9.727
25379WAT     H176379   3.204   8.909   9.691
25379WAT     H276380   3.103   8.872   9.815
25380WAT      O76381   8.720   3.569   9.867
25380WAT     H176382   8.723   3.563   9.767
25380WAT     H276383   8.795   3.627   9.899
25381WAT      O76384   3.263   2.873   0.867
25381WAT     H176385   3.360   2.893   0.881
25381WAT     H276386   3.237   2.793   0.922
25382WAT      O76387   4.644   4.466   9.371
25382WAT     H176388   4.601   4.503   9.453
25382WAT     H276389   4.689   4.540   9.320
25383WAT      O76390   6.246   1.946   1.847
25383WAT     H176391   6.340   1.954   1.880
25383WAT     H276392   6.240   1.870   1.782
25384WAT      O76393   9.536   4.208   0.802
25384WAT     H176394   9.572   4.145   0.732
25384WAT     H276395   9.475   4.274   0.759
25385WAT      O76396   1.119   1.998   0.782
25385WAT     H176397   1.134   1.973   0.687
25385WAT     H276398   1.021   1.996   0.803
25386WAT      O76399   6.232   4.683   0.682
25386WAT     H176400   6.233   4.738   0.599
25386WAT     H276401   6.143   4.690   0.726
25387WAT      O76402   1.577   8.997   8.528
25387WAT     H176403   1.556   8.982   8.431
25387WAT     H276404   1.675   9.015   8.539
25388WAT      O76405   8.299   5.792   5.547
25388WAT     H176406   8.223   5.759   5.603
25388WAT     H276407   8.303   5.739   5.462
25389WAT      O76408   6.075   5.847   7.168
25389WAT     H176409   6.070   5.947   7.170
25389WAT     H276410   6.170   5.819   7.154
25390WAT      O76411   5.856   9.113   0.797
25390WAT     H176412   5.905   9.181   0.743
25390WAT     H276413   5.776   9.155   0.839
25391WAT      O76414   4.319   4.769   1.416
25391WAT     H176415   4.261   4.851   1.407
25391WAT     H276416   4.261   4.688   1.423
25392WAT      O76417   5.359   8.539   2.663
25392WAT     H176418   5.328   8.454   2.705
25392WAT     H276419   5.390   8.602   2.735
25393WAT      O76420   2.849   0.428   5.271
25393WAT     H176421   2.846   0.343   5.324
25393WAT     H276422   2.908   0.494   5.317
25394WAT      O76423   0.022   1.166   7.073
25394WAT     H176424  -0.050   1.230   7.099
25394WAT     H276425  -0.018   1.089   7.024
25395WAT      O76426   5.949   8.550   0.033
25395WAT     H176427   5.898   8.504   0.106
25395WAT     H276428   5.955   8.648   0.052
25396WAT      O76429   0.394   7.991   3.279
25396WAT     H176430   0.426   7.987   3.373
25396WAT     H276431   0.309   8.044   3.274
25397WAT      O76432   0.691   2.536   1.320
25397WAT     H176433   0.640   2.478   1.383
25397WAT     H276434   0.634   2.614   1.293
25398WAT      O76435   3.999   4.103   0.184
25398WAT     H176436   3.913   4.053   0.178
25398WAT     H276437   4.075   4.039   0.189
25399WAT      O76438   9.078   0.833   3.348
25399WAT     H176439   9.084   0.933   3.341
25399WAT     H276440   8.983   0.805   3.344
25400WAT      O76441   1.694   8.809   1.045
25400WAT     H176442   1.606   8.782   1.084
25400WAT     H276443   1.766   8.801   1.114
25401WAT      O76444   9.437   9.614   2.147
25401WAT     H176445   9.481   9.678   2.210
25401WAT     H276446   9.504   9.546   2.117
25402WAT      O76447   2.296   5.802   7.487
25402WAT     H176448   2.215   5.743   7.490
25402WAT     H276449   2.284   5.871   7.416
25403WAT      O76450   7.065   4.508   2.487
25403WAT     H176451   7.122   4.587   2.509
25403WAT     H276452   7.123   4.432   2.456
25404WAT      O76453   6.813   8.374   7.343
25404WAT     H176454   6.874   8.384   7.421
25404WAT     H276455   6.752   8.296   7.359
25405WAT      O76456   7.438   6.885   2.919
25405WAT     H176457   7.398   6.938   2.844
25405WAT     H276458   7.423   6.788   2.903
25406WAT      O76459   5.712   2.233   7.997
25406WAT     H176460   5.714   2.178   7.913
25406WAT     H276461   5.745   2.177   8.073
25407WAT      O76462   5.670   8.255   7.208
25407WAT     H176463   5.713   8.316   7.141
25407WAT     H276464   5.667   8.300   7.297
25408WAT      O76465   6.417   8.804   9.787
25408WAT     H176466   6.395   8.720   9.837
25408WAT     H276467   6.359   8.878   9.820
25409WAT      O76468   5.920   3.066   7.403
25409WAT     H176469   5.945   2.985   7.349
25409WAT     H276470   5.871   3.130   7.344
25410WAT      O76471   7.052   8.976   1.564
25410WAT     H176472   7.132   8.925   1.533
25410WAT     H276473   7.001   9.009   1.485
25411WAT      O76474   5.293   6.381   4.472
25411WAT     H176475   5.380   6.333   4.461
25411WAT     H276476   5.310   6.475   4.503
25412WAT      O76477   1.012   3.291   7.609
25412WAT     H176478   0.945   3.250   7.547
25412WAT     H276479   1.086   3.225   7.624
25413WAT      O76480   0.858   3.251   3.088
25413WAT     H176481   0.795   3.242   3.010
25413WAT     H276482   0.843   3.339   3.133
25414WAT      O76483   2.515   3.968   5.406
25414WAT     H176484   2.476   3.878   5.427
25414WAT     H276485   2.609   3.972   5.440
25415WAT      O76486   7.329   3.665   8.671
25415WAT     H176487   7.375   3.600   8.732
25415WAT     H276488   7.382   3.675   8.587
25416WAT      O76489   5.153   7.725   3.995
25416WAT     H176490   5.248   7.711   4.024
25416WAT     H276491   5.107   7.784   4.061
25417WAT      O76492   9.018   3.357   2.961
25417WAT     H176493   8.935   3.352   3.016
25417WAT     H276494   9.002   3.312   2.873
25418WAT      O76495   7.504   9.264   1.046
25418WAT     H176496   7.493   9.256   1.145
25418WAT     H276497   7.590   9.222   1.019
25419WAT      O76498   1.985   8.703   2.921
25419WAT     H176499   1.887   8.706   2.904
25419WAT     H276500   2.026   8.633   2.862
25420WAT      O76501   7.049   6.048   8.298
25420WAT     H176502   7.087   6.140   8.287
25420WAT     H276503   7.074   6.012   8.388
25421WAT      O76504   2.570   9.582   6.119
25421WAT     H176505   2.577   9.676   6.153
25421WAT     H276506   2.588   9.581   6.021
25422WAT      O76507   2.840   7.918   7.404
25422WAT     H176508   2.890   7.998   7.372
25422WAT     H276509   2.744   7.942   7.421
25423WAT      O76510   2.882   8.056   2.329
25423WAT     H176511   2.904   8.088   2.237
25423WAT     H276512   2.957   8.000   2.363
25424WAT      O76513   3.180   2.749   3.091
25424WAT     H176514   3.119   2.692   3.036
25424WAT     H276515   3.269   2.704   3.100
25425WAT      O76516   1.514   5.876   8.998
25425WAT     H176517   1.505   5.791   8.947
25425WAT     H276518   1.581   5.865   9.071
25426WAT      O76519   2.712   2.436   7.526
25426WAT     H176520   2.775   2.424   7.450
25426WAT     H276521   2.618   2.435   7.492
25427WAT      O76522   1.262   6.529   7.532
25427WAT     H176523   1.166   6.503   7.532
25427WAT     H276524   1.317   6.456   7.492
25428WAT      O76525   7.846   1.413   4.299
25428WAT     H176526   7.933   1.462   4.300
25428WAT     H276527   7.774   1.474   4.263
25429WAT      O76528   6.518   5.669   7.826
25429WAT     H176529   6.538   5.746   7.887
25429WAT     H276530   6.582   5.670   7.749
25430WAT      O76531   0.749   1.599   4.715
25430WAT     H176532   0.783   1.676   4.768
25430WAT     H276533   0.823   1.535   4.696
25431WAT      O76534   6.928   7.990   5.305
25431WAT     H176535   7.026   8.007   5.313
25431WAT     H276536   6.885   8.061   5.249
25432WAT      O76537   2.491   4.711   7.245
25432WAT     H176538   2.481   4.787   7.182
25432WAT     H276539   2.472   4.625   7.198
25433WAT      O76540   0.100   8.438   1.717
25433WAT     H176541   0.043   8.450   1.798
25433WAT     H276542   0.045   8.457   1.635
25434WAT      O76543   8.599   1.417   8.372
25434WAT     H176544   8.687   1.394   8.331
25434WAT     H276545   8.607   1.505   8.421
25435WAT      O76546   7.671   2.024   4.405
25435WAT     H176547   7.740   2.070   4.461
25435WAT     H276548   7.647   1.937   4.448
25436WAT      O76549   7.621   1.963   9.541
25436WAT     H176550   7.534   1.923   9.571
25436WAT     H276551   7.609   2.062   9.527
25437WAT      O76552   0.857   5.541   6.163
25437WAT     H176553   0.873   5.560   6.260
25437WAT     H276554   0.777   5.593   6.132
25438WAT      O76555   0.718   6.408   6.162
25438WAT     H176556   0.720   6.352   6.079
25438WAT     H276557   0.768   6.361   6.235
25439WAT      O76558   5.704   6.527   5.759
25439WAT     H176559   5.723   6.483   5.672
25439WAT     H276560   5.610   6.509   5.787
25440WAT      O76561   0.982   8.470   4.796
25440WAT     H176562   0.903   8.416   4.825
25440WAT     H276563   1.010   8.441   4.704
25441WAT      O76564   6.174   8.746   6.685
25441WAT     H176565   6.266   8.782   6.702
25441WAT     H276566   6.156   8.670   6.748
25442WAT      O76567   9.200   8.628   8.773
25442WAT     H176568   9.199   8.724   8.803
25442WAT     H276569   9.162   8.571   8.845
25443WAT      O76570   5.982   6.595   1.370
25443WAT     H176571   5.901   6.543   1.398
25443WAT     H276572   5.966   6.634   1.279
25444WAT      O76573   8.993   7.482   7.938
25444WAT     H176574   8.937   7.493   7.856
25444WAT     H276575   8.940   7.510   8.018
25445WAT      O76576   3.095   3.042   9.759
25445WAT     H176577   3.063   3.126   9.803
25445WAT     H276578   3.117   3.062   9.663
25446WAT      O76579   8.380   9.843   9.134
25446WAT     H176580   8.330   9.845   9.047
25446WAT     H276581   8.456   9.778   9.127
25447WAT      O76582   0.678   9.621   1.293
25447WAT     H176583   0.772   9.629   1.326
25447WAT     H276584   0.661   9.692   1.225
25448WAT      O76585   9.472   1.260   8.415
25448WAT     H176586   9.429   1.336   8.464
25448WAT     H276587   9.569   1.282   8.399
25449WAT      O76588   4.665   0.300   6.999
25449WAT     H176589   4.658   0.262   7.091
25449WAT     H276590   4.761   0.304   6.972
25450WAT      O76591   8.160   3.315   3.974
25450WAT     H176592   8.228   3.278   3.911
25450WAT     H276593   8.184   3.409   3.999
25451WAT      O76594   5.967   5.006   2.783
25451WAT     H176595   5.924   5.017   2.693
25451WAT     H276596   5.954   5.091   2.836
25452WAT      O76597   1.345   9.242   0.187
25452WAT     H176598   1.377   9.161   0.236
25452WAT     H276599   1.245   9.246   0.193
25453WAT      O76600   0.503   2.829   2.975
25453WAT     H176601   0.599   2.835   2.949
25453WAT     H276602   0.488   2.880   3.060
25454WAT      O76603   7.464   1.160   0.147
25454WAT     H176604   7.408   1.103   0.207
25454WAT     H276605   7.515   1.226   0.202
25455WAT      O76606   8.760   5.753   5.547
25455WAT     H176607   8.736   5.849   5.530
25455WAT     H276608   8.859   5.744   5.556
25456WAT      O76609   3.901   4.824   6.546
25456WAT     H176610   3.823   4.862   6.596
25456WAT     H276611   3.895   4.851   6.450
25457WAT      O76612   2.373   9.477   7.775
25457WAT     H176613   2.438   9.500   7.848
25457WAT     H276614   2.292   9.534   7.784
25458WAT      O76615   5.372   2.673   8.408
25458WAT     H176616   5.468   2.688   8.430
25458WAT     H276617   5.361   2.667   8.309
25459WAT      O76618   8.552   7.667   6.052
25459WAT     H176619   8.538   7.570   6.072
25459WAT     H276620   8.637   7.679   6.000
25460WAT      O76621   1.523   2.199   2.521
25460WAT     H176622   1.517   2.140   2.440
25460WAT     H276623   1.432   2.232   2.546
25461WAT      O76624   2.795   9.733   4.083
25461WAT     H176625   2.874   9.783   4.048
25461WAT     H276626   2.749   9.685   4.009
25462WAT      O76627   5.622   7.263   0.626
25462WAT     H176628   5.642   7.252   0.529
25462WAT     H276629   5.537   7.216   0.648
25463WAT      O76630   0.487   3.039   7.476
25463WAT     H176631   0.458   3.080   7.389
25463WAT     H276632   0.522   2.947   7.459
25464WAT      O76633   2.700   2.798   4.188
25464WAT     H176634   2.734   2.807   4.094
25464WAT     H276635   2.616   2.745   4.188
25465WAT      O76636   9.359   1.015   5.152
25465WAT     H176637   9.367   0.915   5.151
25465WAT     H276638   9.270   1.040   5.191
25466WAT      O76639   2.614   5.221   4.007
25466WAT     H176640   2.670   5.172   4.073
25466WAT     H276641   2.594   5.161   3.929
25467WAT      O76642   9.040   2.736   9.238
25467WAT     H176643   9.006   2.827   9.215
25467WAT     H276644   8.963   2.674   9.250
25468WAT      O76645   7.143   2.593   9.636
25468WAT     H176646   7.147   2.661   9.709
25468WAT     H276647   7.191   2.510   9.664
25469WAT      O76648   4.222   5.167   2.147
25469WAT     H176649   4.302   5.198   2.096
25469WAT     H276650   4.210   5.224   2.228
25470WAT      O76651   0.035   5.134   0.418
25470WAT     H176652  -0.008   5.043   0.424
25470WAT     H276653  -0.034   5.204   0.431
25471WAT      O76654   0.177   3.142   5.844
25471WAT     H176655   0.266   3.186   5.830
25471WAT     H276656   0.172   3.105   5.937
25472WAT      O76657   4.936   8.156   4.868
25472WAT     H176658   4.945   8.234   4.930
25472WAT     H276659   4.946   8.071   4.920
25473WAT      O76660   8.784   7.324   2.905
25473WAT     H176661   8.839   7.329   2.822
25473WAT     H276662   8.762   7.229   2.925
25474WAT      O76663   5.352   2.476   1.264
25474WAT     H176664   5.272   2.417   1.251
25474WAT     H276665   5.324   2.561   1.308
25475WAT      O76666   3.555   5.589   9.327
25475WAT     H176667   3.632   5.548   9.279
25475WAT     H276668   3.473   5.585   9.270
25476WAT      O76669   6.614   4.736   1.381
25476WAT     H176670   6.573   4.816   1.337
25476WAT     H276671   6.712   4.734   1.360
25477WAT      O76672   1.443   3.264   1.519
25477WAT     H176673   1.449   3.165   1.503
25477WAT     H276674   1.533   3.299   1.547
25478WAT      O76675   4.648   8.578   7.244
25478WAT     H176676   4.654   8.585   7.145
25478WAT     H276677   4.702   8.501   7.276
25479WAT      O76678   5.518   8.957   7.665
25479WAT     H176679   5.424   8.923   7.655
25479WAT     H276680   5.560   8.915   7.745
25480WAT      O76681   8.198   8.075   2.977
25480WAT     H176682   8.108   8.051   2.940
25480WAT     H276683   8.253   8.114   2.904
25481WAT      O76684   6.130   1.069   1.931
25481WAT     H176685   6.212   1.017   1.906
25481WAT     H276686   6.078   1.090   1.848
25482WAT      O76687   7.644   6.538   9.087
25482WAT     H176688   7.660   6.444   9.057
25482WAT     H276689   7.670   6.547   9.184
25483WAT      O76690   9.669   5.400   6.635
25483WAT     H176691   9.739   5.367   6.699
25483WAT     H276692   9.624   5.322   6.593
25484WAT      O76693   9.471   0.332   8.150
25484WAT     H176694   9.444   0.236   8.138
25484WAT     H276695   9.399   0.380   8.199
25485WAT      O76696   4.025   3.020   1.594
25485WAT     H176697   4.000   3.086   1.523
25485WAT     H276698   4.035   2.930   1.553
25486WAT      O76699   6.025   4.509   6.325
25486WAT     H176700   6.014   4.583   6.259
25486WAT     H276701   5.943   4.451   6.323
25487WAT      O76702   1.014   3.645   0.062
25487WAT     H176703   1.008   3.709   0.139
25487WAT     H276704   0.924   3.605   0.046
25488WAT      O76705   1.092   9.036   8.485
25488WAT     H176706   1.108   9.076   8.395
25488WAT     H276707   1.169   8.978   8.510
25489WAT      O76708   4.664   9.203   4.509
25489WAT     H176709   4.763   9.190   4.506
25489WAT     H276710   4.623   9.172   4.423
25490WAT      O76711   0.277   7.394   8.654
25490WAT     H176712   0.374   7.418   8.666
25490WAT     H276713   0.264   7.354   8.563
25491WAT      O76714   3.580   2.121   3.671
25491WAT     H176715   3.537   2.211   3.668
25491WAT     H276716   3.668   2.127   3.718
25492WAT      O76717   1.394   7.624   6.874
25492WAT     H176718   1.308   7.670   6.852
25492WAT     H276719   1.467   7.691   6.882
25493WAT      O76720   1.977   8.711   7.535
25493WAT     H176721   1.949   8.797   7.578
25493WAT     H276722   2.074   8.695   7.553
25494WAT      O76723   5.066   8.501   0.543
25494WAT     H176724   5.104   8.412   0.567
25494WAT     H276725   4.970   8.504   0.568
25495WAT      O76726   4.615   2.020   2.994
25495WAT     H176727   4.567   2.023   2.906
25495WAT     H276728   4.571   1.953   3.053
25496WAT      O76729   9.764   7.759   5.459
25496WAT     H176730   9.780   7.786   5.364
25496WAT     H276731   9.755   7.841   5.516
25497WAT      O76732   2.871   1.154   5.216
25497WAT     H176733   2.964   1.118   5.217
25497WAT     H276734   2.823   1.123   5.134
25498WAT      O76735   1.817   1.422   7.183
25498WAT     H176736   1.785   1.509   7.222
25498WAT     H276737   1.880   1.441   7.108
25499WAT      O76738   9.044   8.229   9.339
25499WAT     H176739   8.954   8.263   9.311
25499WAT     H276740   9.107   8.306   9.347
25500WAT      O76741   9.814   6.311   5.575
25500WAT     H176742   9.800   6.223   5.531
25500WAT     H276743   9.755   6.318   5.656
25501WAT      O76744   2.479   1.764   3.298
25501WAT     H176745   2.431   1.839   3.253
25501WAT     H276746   2.577   1.779   3.293
25502WAT      O76747   7.211   5.243   9.065
25502WAT     H176748   7.247   5.149   9.058
25502WAT     H276749   7.121   5.241   9.109
25503WAT      O76750   1.966   3.490   5.711
25503WAT     H176751   1.955   3.502   5.613
25503WAT     H276752   1.880   3.458   5.751
25504WAT      O76753   8.403   4.654   1.633
25504WAT     H176754   8.324   4.599   1.605
25504WAT     H276755   8.464   4.598   1.690
25505WAT      O76756   3.134   0.986   6.086
25505WAT     H176757   3.183   1.072   6.103
25505WAT     H276758   3.063   0.975   6.155
25506WAT      O76759   5.867   4.742   7.006
25506WAT     H176760   5.901   4.697   6.923
25506WAT     H276761   5.826   4.829   6.982
25507WAT      O76762   1.088   8.509   2.080
25507WAT     H176763   1.116   8.576   2.149
25507WAT     H276764   1.028   8.441   2.122
25508WAT      O76765   1.949   7.747   6.886
25508WAT     H176766   2.013   7.726   6.812
25508WAT     H276767   1.940   7.846   6.894
25509WAT      O76768   9.724   2.218   4.947
25509WAT     H176769   9.805   2.166   4.919
25509WAT     H276770   9.663   2.228   4.869
25510WAT      O76771   0.175   3.574   9.586
25510WAT     H176772   0.153   3.582   9.684
25510WAT     H276773   0.135   3.490   9.550
25511WAT      O76774   5.057   5.508   0.540
25511WAT     H176775   5.147   5.481   0.574
25511WAT     H276776   4.986   5.467   0.596
25512WAT      O76777   4.296   1.407   5.940
25512WAT     H176778   4.229   1.468   5.980
25512WAT     H276779   4.311   1.430   5.844
25513WAT      O76780   7.808   1.375   4.580
25513WAT     H176781   7.804   1.379   4.480
25513WAT     H276782   7.896   1.337   4.609
25514WAT      O76783   8.103   6.141   8.961
25514WAT     H176784   8.083   6.147   9.059
25514WAT     H276785   8.093   6.230   8.919
25515WAT      O76786   3.319   7.472   7.622
25515WAT     H176787   3.400   7.468   7.562
25515WAT     H276788   3.244   7.422   7.579
25516WAT      O76789   0.177   2.090   4.321
25516WAT     H176790   0.255   2.107   4.261
25516WAT     H276791   0.104   2.156   4.303
25517WAT      O76792   8.480   7.281   2.735
25517WAT     H176793   8.410   7.323   2.677
25517WAT     H276794   8.571   7.312   2.706
25518WAT      O76795   2.195   8.702   0.457
25518WAT     H176796   2.225   8.796   0.440
25518WAT     H276797   2.115   8.681   0.401
25519WAT      O76798   2.099   0.819   5.735
25519WAT     H176799   2.056   0.761   5.666
25519WAT     H276800   2.116   0.909   5.696
25520WAT      O76801   3.735   8.595   0.565
25520WAT     H176802   3.736   8.680   0.512
25520WAT     H276803   3.647   8.584   0.610
25521WAT      O76804   1.048   4.091   9.266
25521WAT     H176805   1.086   4.019   9.324
25521WAT     H276806   0.951   4.076   9.252
25522WAT      O76807   9.040   2.426   6.482
25522WAT     H176808   9.015   2.400   6.575
25522WAT     H276809   8.957   2.442   6.429
25523WAT      O76810   4.861   9.289   5.176
25523WAT     H176811   4.941   9.269   5.232
25523WAT     H276812   4.871   9.243   5.087
25524WAT      O76813   5.636   8.797   1.868
25524WAT     H176814   5.609   8.870   1.804
25524WAT     H276815   5.732   8.809   1.893
25525WAT      O76816   5.663   5.401   1.575
25525WAT     H176817   5.758   5.430   1.587
25525WAT     H276818   5.621   5.456   1.503
25526WAT      O76819   3.370   4.835   4.764
25526WAT     H176820   3.300   4.844   4.693
25526WAT     H276821   3.454   4.879   4.734
25527WAT      O76822   5.441   8.476   4.126
25527WAT     H176823   5.493   8.524   4.197
25527WAT     H276824   5.421   8.539   4.051
25528WAT      O76825   6.805   0.249   5.407
25528WAT     H176826   6.809   0.349   5.400
25528WAT     H276827   6.780   0.223   5.500
25529WAT      O76828   3.073   1.881   7.869
25529WAT     H176829   3.051   1.861   7.774
25529WAT     H276830   3.167   1.915   7.875
25530WAT      O76831   3.234   3.184   3.745
25530WAT     H176832   3.212   3.273   3.784
25530WAT     H276833   3.328   3.159   3.769
25531WAT      O76834   6.413   4.359   8.079
25531WAT     H176835   6.427   4.260   8.076
25531WAT     H276836   6.321   4.381   8.045
25532WAT      O76837   4.088   9.447   3.652
25532WAT     H176838   4.087   9.460   3.553
25532WAT     H276839   4.040   9.363   3.676
25533WAT      O76840   7.492   4.868   1.833
25533WAT     H176841   7.529   4.797   1.893
25533WAT     H276842   7.419   4.829   1.777
25534WAT      O76843   1.049   3.709   1.387
25534WAT     H176844   1.051   3.744   1.293
25534WAT     H276845   1.079   3.614   1.388
25535WAT      O76846   6.831   7.373   0.523
25535WAT     H176847   6.766   7.387   0.448
25535WAT     H276848   6.883   7.457   0.539
25536WAT      O76849   1.398   5.355   5.456
25536WAT     H176850   1.334   5.277   5.454
25536WAT     H276851   1.479   5.330   5.509
25537WAT      O76852   2.487   6.570   7.911
25537WAT     H176853   2.572   6.545   7.959
25537WAT     H276854   2.493   6.665   7.881
25538WAT      O76855   9.815   3.466   9.874
25538WAT     H176856   9.912   3.487   9.879
25538WAT     H276857   9.774   3.515   9.797
25539WAT      O76858   3.988   8.436   3.161
25539WAT     H176859   4.030   8.409   3.074
25539WAT     H276860   3.963   8.533   3.158
25540WAT      O76861   4.243   3.928   2.637
25540WAT     H176862   4.316   3.997   2.642
25540WAT     H276863   4.265   3.862   2.566
25541WAT      O76864   6.561   2.935   0.205
25541WAT     H176865   6.593   2.879   0.282
25541WAT     H276866   6.592   2.895   0.119
25542WAT      O76867   7.252   4.587   2.830
25542WAT     H176868   7.326   4.596   2.764
25542WAT     H276869   7.170   4.554   2.784
25543WAT      O76870   9.405   5.791   1.024
25543WAT     H176871   9.437   5.817   0.933
25543WAT     H276872   9.317   5.836   1.042
25544WAT      O76873   0.917   0.253   4.865
25544WAT     H176874   0.858   0.333   4.870
25544WAT     H276875   0.910   0.212   4.774
25545WAT      O76876   1.830   6.479   8.341
25545WAT     H176877   1.928   6.462   8.345
25545WAT     H276878   1.781   6.395   8.364
25546WAT      O76879   7.563   2.041   5.283
25546WAT     H176880   7.470   2.009   5.266
25546WAT     H276881   7.620   1.963   5.311
25547WAT      O76882   3.360   4.582   4.887
25547WAT     H176883   3.353   4.671   4.842
25547WAT     H276884   3.425   4.588   4.963
25548WAT      O76885   6.459   5.039   5.447
25548WAT     H176886   6.368   5.007   5.472
25548WAT     H276887   6.456   5.085   5.358
25549WAT      O76888   4.507   4.993   8.941
25549WAT     H176889   4.467   4.911   8.982
25549WAT     H276890   4.543   4.972   8.851
25550WAT      O76891   9.440   6.180   7.747
25550WAT     H176892   9.488   6.132   7.674
25550WAT     H276893   9.394   6.261   7.709
25551WAT      O76894   8.224   5.179   0.145
25551WAT     H176895   8.286   5.257   0.157
25551WAT     H276896   8.135   5.212   0.115
25552WAT      O76897   5.700   2.194   0.075
25552WAT     H176898   5.745   2.194   0.164
25552WAT     H276899   5.763   2.155   0.007
25553WAT      O76900   2.147   3.403   4.088
25553WAT     H176901   2.058   3.365   4.064
25553WAT     H276902   2.174   3.371   4.179
25554WAT      O76903   6.627   7.190   3.199
25554WAT     H176904   6.611   7.264   3.265
25554WAT     H276905   6.562   7.116   3.216
25555WAT      O76906   2.275   2.123   0.915
25555WAT     H176907   2.304   2.081   1.001
25555WAT     H276908   2.192   2.078   0.882
25556WAT      O76909   8.244   2.241   1.181
25556WAT     H176910   8.216   2.192   1.099
25556WAT     H276911   8.164   2.264   1.235
25557WAT      O76912   6.830   9.257   6.973
25557WAT     H176913   6.821   9.334   7.036
25557WAT     H276914   6.757   9.260   6.905
25558WAT      O76915   8.103   8.755   0.536
25558WAT     H176916   8.078   8.839   0.487
25558WAT     H276917   8.026   8.728   0.594
25559WAT      O76918   8.406   3.505   1.008
25559WAT     H176919   8.438   3.515   0.914
25559WAT     H276920   8.431   3.414   1.043
25560WAT      O76921   0.523   3.023   0.584
25560WAT     H176922   0.460   3.085   0.536
25560WAT     H276923   0.532   2.938   0.532
25561WAT      O76924   4.299   3.415   4.146
25561WAT     H176925   4.340   3.504   4.168
25561WAT     H276926   4.206   3.412   4.182
25562WAT      O76927   6.766   2.550   3.375
25562WAT     H176928   6.752   2.607   3.456
25562WAT     H276929   6.711   2.466   3.383
25563WAT      O76930   8.576   4.236   3.432
25563WAT     H176931   8.663   4.264   3.472
25563WAT     H276932   8.560   4.285   3.347
25564WAT      O76933   2.155   4.103   8.310
25564WAT     H176934   2.167   4.197   8.341
25564WAT     H276935   2.244   4.062   8.291
25565WAT      O76936   1.814   6.939   4.328
25565WAT     H176937   1.764   6.872   4.383
25565WAT     H276938   1.821   7.025   4.378
25566WAT      O76939   0.280   8.760   1.189
25566WAT     H176940   0.305   8.820   1.113
25566WAT     H276941   0.238   8.676   1.153
25567WAT      O76942   0.981   8.973   4.560
25567WAT     H176943   0.938   8.883   4.567
25567WAT     H276944   0.954   9.017   4.474
25568WAT      O76945   3.414   8.533   8.802
25568WAT     H176946   3.453   8.624   8.819
25568WAT     H276947   3.421   8.478   8.886
25569WAT      O76948   6.218   2.443   5.242
25569WAT     H176949   6.300   2.446   5.184
25569WAT     H276950   6.207   2.531   5.289
25570WAT      O76951   2.870   8.964   5.514
25570WAT     H176952   2.891   9.061   5.510
25570WAT     H276953   2.891   8.929   5.605
25571WAT      O76954   5.542   2.646   1.824
25571WAT     H176955   5.617   2.584   1.847
25571WAT     H276956   5.548   2.728   1.881
25572WAT      O76957   6.810   9.193   9.171
25572WAT     H176958   6.849   9.282   9.196
25572WAT     H276959   6.710   9.198   9.173
25573WAT      O76960   8.657   2.927   7.190
25573WAT     H176961   8.716   2.987   7.244
25573WAT     H276962   8.712   2.877   7.123
25574WAT      O76963   5.614   9.538   6.486
25574WAT     H176964   5.685   9.479   6.448
25574WAT     H276965   5.601   9.517   6.583
25575WAT      O76966   7.194   1.623   3.865
25575WAT     H176967   7.236   1.650   3.779
25575WAT     H276968   7.103   1.584   3.847
25576WAT      O76969   5.730   4.179   2.567
25576WAT     H176970   5.735   4.253   2.500
25576WAT     H276971   5.636   4.147   2.574
25577WAT      O76972   5.207   0.508   2.534
25577WAT     H176973   5.244   0.465   2.452
25577WAT     H276974   5.107   0.501   2.533
25578WAT      O76975   3.078   4.777   9.680
25578WAT     H176976   3.091   4.679   9.665
25578WAT     H276977   3.032   4.792   9.767
25579WAT      O76978   8.461   2.367   6.963
25579WAT     H176979   8.400   2.288   6.964
25579WAT     H276980   8.547   2.344   7.009
25580WAT      O76981   2.329   7.912   7.331
25580WAT     H176982   2.283   7.991   7.291
25580WAT     H276983   2.417   7.941   7.370
25581WAT      O76984   6.070   8.392   6.262
25581WAT     H176985   6.075   8.490   6.278
25581WAT     H276986   6.140   8.345   6.315
25582WAT      O76987   3.053   4.487   9.668
25582WAT     H176988   3.073   4.423   9.594
25582WAT     H276989   2.971   4.458   9.717
25583WAT      O76990   0.566   6.314   8.562
25583WAT     H176991   0.548   6.244   8.630
25583WAT     H276992   0.592   6.399   8.607
25584WAT      O76993   6.657   4.825   5.539
25584WAT     H176994   6.599   4.903   5.560
25584WAT     H276995   6.600   4.743   5.528
25585WAT      O76996   0.818   6.637   5.205
25585WAT     H176997   0.723   6.669   5.209
25585WAT     H276998   0.838   6.582   5.286
25586WAT      O76999   2.092   8.844   0.695
25586WAT     H177000   2.125   8.805   0.781
25586WAT     H277001   2.117   8.784   0.619
25587WAT      O77002   4.794   3.338   8.451
25587WAT     H177003   4.707   3.340   8.499
25587WAT     H277004   4.840   3.426   8.461
25588WAT      O77005   7.516   3.144   5.371
25588WAT     H177006   7.512   3.239   5.403
25588WAT     H277007   7.603   3.128   5.325
25589WAT      O77008   3.920   6.933   9.219
25589WAT     H177009   3.984   6.906   9.291
25589WAT     H277010   3.905   6.856   9.157
25590WAT      O77011   5.408   9.823   1.125
25590WAT     H177012   5.434   9.891   1.057
25590WAT     H277013   5.376   9.868   1.208
25591WAT      O77014   1.684   6.369   9.493
25591WAT     H177015   1.632   6.284   9.495
25591WAT     H277016   1.781   6.348   9.475
25592WAT      O77017   7.145   0.334   2.257
25592WAT     H177018   7.093   0.249   2.260
25592WAT     H277019   7.110   0.397   2.326
25593WAT      O77020   2.882   9.802   8.830
25593WAT     H177021   2.978   9.806   8.800
25593WAT     H277022   2.835   9.886   8.804
25594WAT      O77023   7.550   5.640   7.385
25594WAT     H177024   7.576   5.671   7.476
25594WAT     H277025   7.602   5.559   7.361
25595WAT      O77026   5.567   1.228   8.847
25595WAT     H177027   5.648   1.174   8.870
25595WAT     H277028   5.565   1.311   8.903
25596WAT      O77029   4.056   5.460   3.389
25596WAT     H177030   4.139   5.438   3.441
25596WAT     H277031   4.055   5.558   3.368
25597WAT      O77032   7.652   7.086   7.678
25597WAT     H177033   7.628   7.060   7.585
25597WAT     H277034   7.583   7.148   7.715
25598WAT      O77035   1.451   7.153   2.788
25598WAT     H177036   1.352   7.144   2.778
25598WAT     H277037   1.496   7.095   2.720
25599WAT      O77038   9.744   4.990   2.785
25599WAT     H177039   9.730   5.089   2.771
25599WAT     H277040   9.830   4.975   2.833
25600WAT      O77041   3.840   7.604   3.278
25600WAT     H177042   3.860   7.578   3.183
25600WAT     H277043   3.913   7.571   3.337
25601WAT      O77044   5.927   7.643   1.554
25601WAT     H177045   6.018   7.673   1.525
25601WAT     H277046   5.933   7.551   1.592
25602WAT      O77047   6.795   2.397   0.372
25602WAT     H177048   6.730   2.470   0.392
25602WAT     H277049   6.747   2.319   0.333
25603WAT      O77050   3.205   6.708   8.101
25603WAT     H177051   3.165   6.776   8.161
25603WAT     H277052   3.297   6.684   8.133
25604WAT      O77053   4.607   6.794   3.770
25604WAT     H177054   4.689   6.747   3.738
25604WAT     H277055   4.630   6.856   3.844
25605WAT      O77056   8.374   3.512   9.373
25605WAT     H177057   8.354   3.437   9.436
25605WAT     H277058   8.455   3.562   9.404
25606WAT      O77059   8.914   0.728   5.803
25606WAT     H177060   8.996   0.767   5.761
25606WAT     H277061   8.940   0.676   5.884
25607WAT      O77062   8.530   9.714   0.445
25607WAT     H177063   8.558   9.797   0.397
25607WAT     H277064   8.501   9.645   0.379
25608WAT      O77065   4.235   8.357   9.459
25608WAT     H177066   4.231   8.332   9.362
25608WAT     H277067   4.320   8.324   9.499
25609WAT      O77068   2.954   7.837   6.216
25609WAT     H177069   2.933   7.762   6.153
25609WAT     H277070   3.016   7.901   6.171
25610WAT      O77071   6.464   6.279   1.331
25610WAT     H177072   6.444   6.348   1.400
25610WAT     H277073   6.451   6.319   1.240
25611WAT      O77074   5.681   5.964   5.609
25611WAT     H177075   5.777   5.954   5.634
25611WAT     H277076   5.655   5.891   5.545
25612WAT      O77077   5.489   4.889   8.602
25612WAT     H177078   5.423   4.964   8.593
25612WAT     H277079   5.441   4.803   8.619
25613WAT      O77080   0.391   8.267   7.632
25613WAT     H177081   0.412   8.326   7.709
25613WAT     H277082   0.466   8.203   7.618
25614WAT      O77083   7.162   3.006   3.151
25614WAT     H177084   7.136   3.021   3.246
25614WAT     H277085   7.106   2.932   3.112
25615WAT      O77086   0.164   7.807   0.463
25615WAT     H177087   0.102   7.734   0.434
25615WAT     H277088   0.211   7.780   0.547
25616WAT      O77089   5.495   6.259   6.149
25616WAT     H177090   5.430   6.216   6.087
25616WAT     H277091   5.503   6.203   6.232
25617WAT      O77092   7.685   5.478   1.341
25617WAT     H177093   7.704   5.576   1.334
25617WAT     H277094   7.768   5.427   1.319
25618WAT      O77095   8.263   3.856   7.045
25618WAT     H177096   8.361   3.844   7.029
25618WAT     H277097   8.212   3.784   6.998
25619WAT      O77098   8.372   3.863   4.866
25619WAT     H177099   8.300   3.889   4.931
25619WAT     H277100   8.408   3.773   4.890
25620WAT      O77101   3.012   4.068   7.779
25620WAT     H177102   2.958   4.106   7.704
25620WAT     H277103   3.107   4.058   7.750
25621WAT      O77104   5.444   7.109   4.449
25621WAT     H177105   5.409   7.182   4.390
25621WAT     H277106   5.420   7.128   4.544
25622WAT      O77107   4.582   9.416   8.455
25622WAT     H177108   4.630   9.405   8.368
25622WAT     H277109   4.556   9.512   8.467
25623WAT      O77110   5.155   9.517   7.316
25623WAT     H177111   5.203   9.598   7.350
25623WAT     H277112   5.221   9.451   7.281
25624WAT      O77113   4.777   7.601   7.942
25624WAT     H177114   4.749   7.589   8.037
25624WAT     H277115   4.744   7.689   7.908
25625WAT      O77116   2.478   9.106   9.209
25625WAT     H177117   2.395   9.085   9.156
25625WAT     H277118   2.453   9.157   9.291
25626WAT      O77119   1.322   6.637   9.673
25626WAT     H177120   1.374   6.662   9.592
25626WAT     H277121   1.306   6.719   9.729
25627WAT      O77122   3.617   2.006   6.845
25627WAT     H177123   3.683   2.000   6.921
25627WAT     H277124   3.549   1.933   6.855
25628WAT      O77125   4.356   0.416   9.170
25628WAT     H177126   4.428   0.351   9.194
25628WAT     H277127   4.397   0.501   9.138
25629WAT      O77128   8.686   8.871   8.112
25629WAT     H177129   8.587   8.880   8.102
25629WAT     H277130   8.712   8.776   8.095
25630WAT      O77131   6.820   6.798   9.835
25630WAT     H177132   6.751   6.843   9.892
25630WAT     H277133   6.775   6.730   9.776
25631WAT      O77134   6.810   6.319   1.290
25631WAT     H177135   6.839   6.275   1.375
25631WAT     H277136   6.795   6.250   1.220
25632WAT      O77137   8.983   6.805   3.019
25632WAT     H177138   8.916   6.849   2.960
25632WAT     H277139   9.068   6.859   3.021
25633WAT      O77140   0.254   1.333   9.319
25633WAT     H177141   0.235   1.249   9.269
25633WAT     H277142   0.188   1.344   9.393
25634WAT      O77143   7.215   2.439   6.378
25634WAT     H177144   7.141   2.446   6.311
25634WAT     H277145   7.221   2.345   6.412
25635WAT      O77146   6.466   5.132   3.597
25635WAT     H177147   6.559   5.139   3.633
25635WAT     H277148   6.419   5.056   3.642
25636WAT      O77149   6.130   7.711   1.365
25636WAT     H177150   6.225   7.681   1.377
25636WAT     H277151   6.125   7.810   1.380
25637WAT      O77152   3.742   7.424   0.598
25637WAT     H177153   3.705   7.517   0.604
25637WAT     H277154   3.667   7.359   0.589
25638WAT      O77155   1.790   4.208   2.643
25638WAT     H177156   1.757   4.121   2.681
25638WAT     H277157   1.888   4.217   2.661
25639WAT      O77158   9.503   3.760   1.301
25639WAT     H177159   9.412   3.800   1.313
25639WAT     H277160   9.568   3.807   1.361
25640WAT      O77161   6.054   5.243   2.563
25640WAT     H177162   6.038   5.260   2.660
25640WAT     H277163   5.999   5.307   2.509
25641WAT      O77164   5.396   2.285   5.840
25641WAT     H177165   5.406   2.322   5.932
25641WAT     H277166   5.456   2.206   5.829
25642WAT      O77167   2.223   8.141   7.218
25642WAT     H177168   2.204   8.239   7.214
25642WAT     H277169   2.187   8.097   7.136
25643WAT      O77170   0.888   0.247   6.775
25643WAT     H177171   0.964   0.295   6.818
25643WAT     H277172   0.878   0.277   6.680
25644WAT      O77173   9.579   5.187   6.533
25644WAT     H177174   9.649   5.124   6.499
25644WAT     H277175   9.507   5.134   6.579
25645WAT      O77176   3.726   2.448   8.817
25645WAT     H177177   3.799   2.517   8.811
25645WAT     H277178   3.676   2.445   8.730
25646WAT      O77179   0.805   1.277   7.414
25646WAT     H177180   0.788   1.375   7.422
25646WAT     H277181   0.853   1.259   7.328
25647WAT      O77182   6.473   6.893   8.850
25647WAT     H177183   6.379   6.909   8.878
25647WAT     H277184   6.518   6.832   8.915
25648WAT      O77185   2.482   8.169   9.181
25648WAT     H177186   2.507   8.174   9.084
25648WAT     H277187   2.559   8.132   9.233
25649WAT      O77188   7.993   2.846   1.382
25649WAT     H177189   7.894   2.842   1.368
25649WAT     H277190   8.017   2.808   1.471
25650WAT      O77191   8.736   9.013   5.889
25650WAT     H177192   8.658   8.998   5.829
25650WAT     H277193   8.813   9.048   5.835
25651WAT      O77194   0.154   3.924   5.456
25651WAT     H177195   0.216   3.854   5.420
25651WAT     H277196   0.205   3.989   5.512
25652WAT      O77197   0.598   5.850   5.626
25652WAT     H177198   0.508   5.851   5.670
25652WAT     H277199   0.661   5.794   5.680
25653WAT      O77200   1.448   2.154   5.534
25653WAT     H177201   1.469   2.236   5.481
25653WAT     H277202   1.372   2.105   5.491
25654WAT      O77203   4.649   3.975   6.105
25654WAT     H177204   4.662   3.912   6.028
25654WAT     H277205   4.596   4.054   6.075
25655WAT      O77206   8.520   5.799   3.768
25655WAT     H177207   8.499   5.702   3.777
25655WAT     H277208   8.436   5.850   3.747
25656WAT      O77209   7.891   4.241   2.132
25656WAT     H177210   7.813   4.182   2.150
25656WAT     H277211   7.859   4.333   2.111
25657WAT      O77212   2.048   8.853   1.089
25657WAT     H177213   1.986   8.837   1.166
25657WAT     H277214   2.138   8.879   1.124
25658WAT      O77215   2.939   9.254   8.379
25658WAT     H177216   2.993   9.281   8.299
25658WAT     H277217   2.923   9.335   8.437
25659WAT      O77218   9.118   6.511   6.488
25659WAT     H177219   9.130   6.574   6.411
25659WAT     H277220   9.114   6.563   6.573
25660WAT      O77221   0.975   3.423   0.808
25660WAT     H177222   0.898   3.375   0.765
25660WAT     H277223   1.050   3.431   0.742
25661WAT      O77224   7.013   8.977   0.826
25661WAT     H177225   7.063   9.009   0.745
25661WAT     H277226   6.976   9.056   0.875
25662WAT      O77227   3.760   3.257   1.204
25662WAT     H177228   3.720   3.327   1.263
25662WAT     H277229   3.688   3.219   1.145
25663WAT      O77230   0.378   3.238   3.008
25663WAT     H177231   0.450   3.169   3.017
25663WAT     H277232   0.403   3.320   3.060
25664WAT      O77233   6.234   0.727   1.567
25664WAT     H177234   6.245   0.811   1.514
25664WAT     H277235   6.136   0.709   1.582
25665WAT      O77236   5.038   3.511   8.458
25665WAT     H177237   5.111   3.442   8.464
25665WAT     H277238   5.028   3.540   8.363
25666WAT      O77239   5.698   6.085   7.679
25666WAT     H177240   5.625   6.129   7.627
25666WAT     H277241   5.778   6.145   7.682
25667WAT      O77242   6.717   4.852   1.084
25667WAT     H177243   6.785   4.886   1.019
25667WAT     H277244   6.663   4.780   1.042
25668WAT      O77245   8.028   8.946   0.873
25668WAT     H177246   8.010   8.879   0.946
25668WAT     H277247   8.003   9.037   0.905
25669WAT      O77248   6.690   0.124   0.372
25669WAT     H177249   6.763   0.090   0.312
25669WAT     H277250   6.654   0.210   0.335
25670WAT      O77251   0.579   6.072   4.032
25670WAT     H177252   0.521   6.104   3.957
25670WAT     H277253   0.621   6.150   4.078
25671WAT      O77254   2.089   2.220   3.850
25671WAT     H177255   2.117   2.248   3.942
25671WAT     H277256   2.003   2.169   3.856
25672WAT      O77257   3.575   6.922   7.048
25672WAT     H177258   3.599   7.010   7.088
25672WAT     H277259   3.623   6.849   7.095
25673WAT      O77260   8.261   6.630   3.247
25673WAT     H177261   8.298   6.674   3.166
25673WAT     H277262   8.333   6.621   3.316
25674WAT      O77263   9.623   1.374   8.105
25674WAT     H177264   9.634   1.278   8.130
25674WAT     H277265   9.549   1.382   8.038
25675WAT      O77266   0.292   8.884   2.963
25675WAT     H177267   0.270   8.899   3.059
25675WAT     H277268   0.297   8.972   2.916
25676WAT      O77269   6.769   6.958   0.368
25676WAT     H177270   6.697   7.006   0.417
25676WAT     H277271   6.825   7.024   0.318
25677WAT      O77272   2.737   0.626   5.690
25677WAT     H177273   2.826   0.591   5.719
25677WAT     H277274   2.743   0.660   5.597
25678WAT      O77275   3.302   3.694   2.647
25678WAT     H177276   3.273   3.601   2.668
25678WAT     H277277   3.225   3.757   2.658
25679WAT      O77278   0.279   2.503   0.638
25679WAT     H177279   0.215   2.442   0.592
25679WAT     H277280   0.230   2.554   0.709
25680WAT      O77281   2.420   4.944   3.414
25680WAT     H177282   2.442   5.041   3.406
25680WAT     H277283   2.415   4.919   3.511
25681WAT      O77284   8.793   9.542   7.806
25681WAT     H177285   8.882   9.496   7.811
25681WAT     H277286   8.807   9.641   7.805
25682WAT      O77287   9.261   5.342   6.702
25682WAT     H177288   9.306   5.253   6.713
25682WAT     H277289   9.251   5.362   6.605
25683WAT      O77290   4.396   5.994   5.969
25683WAT     H177291   4.466   5.934   6.006
25683WAT     H277292   4.354   5.952   5.889
25684WAT      O77293   7.667   1.734   4.406
25684WAT     H177294   7.737   1.725   4.476
25684WAT     H277295   7.693   1.681   4.325
25685WAT      O77296   9.874   0.714   0.338
25685WAT     H177297   9.964   0.684   0.308
25685WAT     H277298   9.872   0.716   0.438
25686WAT      O77299   2.497   2.627   5.802
25686WAT     H177300   2.453   2.702   5.852
25686WAT     H277301   2.506   2.653   5.705
25687WAT      O77302   9.121   5.768   3.511
25687WAT     H177303   9.204   5.809   3.474
25687WAT     H277304   9.144   5.711   3.590
25688WAT      O77305   8.578   6.585   5.702
25688WAT     H177306   8.536   6.541   5.782
25688WAT     H277307   8.618   6.515   5.643
25689WAT      O77308   9.687   5.679   9.428
25689WAT     H177309   9.587   5.675   9.438
25689WAT     H277310   9.712   5.764   9.381
25690WAT      O77311   7.289   1.048   5.866
25690WAT     H177312   7.327   1.119   5.806
25690WAT     H277313   7.199   1.076   5.897
25691WAT      O77314   3.706   8.926   7.450
25691WAT     H177315   3.719   8.996   7.380
25691WAT     H277316   3.768   8.944   7.526
25692WAT      O77317   3.382   3.921   3.732
25692WAT     H177318   3.387   4.004   3.787
25692WAT     H277319   3.362   3.843   3.791
25693WAT      O77320   3.236   1.595   6.159
25693WAT     H177321   3.180   1.671   6.191
25693WAT     H277322   3.231   1.520   6.225
25694WAT      O77323   0.663   4.876   4.219
25694WAT     H177324   0.676   4.811   4.294
25694WAT     H277325   0.571   4.915   4.224
25695WAT      O77326   5.429   3.373   7.501
25695WAT     H177327   5.456   3.289   7.549
25695WAT     H277328   5.331   3.371   7.485
25696WAT      O77329   4.206   8.379   5.112
25696WAT     H177330   4.151   8.451   5.153
25696WAT     H277331   4.297   8.416   5.090
25697WAT      O77332   6.705   9.655   0.592
25697WAT     H177333   6.649   9.588   0.542
25697WAT     H277334   6.750   9.610   0.669
25698WAT      O77335   5.453   8.875   6.456
25698WAT     H177336   5.474   8.828   6.542
25698WAT     H277337   5.530   8.863   6.393
25699WAT      O77338   1.600   4.615   5.791
25699WAT     H177339   1.564   4.629   5.884
25699WAT     H277340   1.529   4.574   5.734
25700WAT      O77341   9.483   1.194   1.484
25700WAT     H177342   9.391   1.228   1.464
25700WAT     H277343   9.481   1.136   1.565
25701WAT      O77344   5.915   1.787   5.469
25701WAT     H177345   5.916   1.826   5.376
25701WAT     H277346   5.845   1.835   5.523
25702WAT      O77347   0.380   6.088   9.446
25702WAT     H177348   0.458   6.105   9.386
25702WAT     H277349   0.319   6.167   9.445
25703WAT      O77350   0.864   7.120   4.368
25703WAT     H177351   0.772   7.126   4.329
25703WAT     H277352   0.861   7.074   4.457
25704WAT      O77353   6.622   1.885   8.610
25704WAT     H177354   6.651   1.859   8.518
25704WAT     H277355   6.651   1.979   8.629
25705WAT      O77356   8.272   9.235   7.019
25705WAT     H177357   8.282   9.140   7.048
25705WAT     H277358   8.342   9.291   7.064
25706WAT      O77359   9.067   1.542   0.408
25706WAT     H177360   9.155   1.521   0.451
25706WAT     H277361   9.071   1.520   0.311
25707WAT      O77362   5.673   7.837   3.455
25707WAT     H177363   5.621   7.817   3.372
25707WAT     H277364   5.747   7.771   3.464
25708WAT      O77365   8.616   9.201   2.464
25708WAT     H177366   8.604   9.102   2.457
25708WAT     H277367   8.629   9.239   2.373
25709WAT      O77368   9.862   5.603   7.892
25709WAT     H177369   9.942   5.608   7.831
25709WAT     H277370   9.782   5.641   7.844
25710WAT      O77371   2.945   5.082   0.232
25710WAT     H177372   2.986   5.054   0.145
25710WAT     H277373   2.923   5.002   0.287
25711WAT      O77374   3.847   4.787   1.414
25711WAT     H177375   3.899   4.727   1.474
25711WAT     H277376   3.783   4.733   1.360
25712WAT      O77377   7.302   7.294   7.166
25712WAT     H177378   7.274   7.390   7.160
25712WAT     H277379   7.306   7.254   7.074
25713WAT      O77380   0.446   2.965   6.099
25713WAT     H177381   0.496   2.904   6.037
25713WAT     H277382   0.394   2.910   6.165
25714WAT      O77383   1.522   7.548   2.036
25714WAT     H177384   1.443   7.597   2.071
25714WAT     H277385   1.546   7.583   1.945
25715WAT      O77386   7.012   2.754   0.418
25715WAT     H177387   7.082   2.788   0.355
25715WAT     H277388   7.054   2.741   0.508
25716WAT      O77389   9.226   3.150   2.366
25716WAT     H177390   9.137   3.193   2.380
25716WAT     H277391   9.220   3.053   2.392
25717WAT      O77392   9.866   2.947   7.976
25717WAT     H177393   9.952   2.907   8.009
25717WAT     H277394   9.845   3.029   8.028
25718WAT      O77395   7.521   7.396   6.260
25718WAT     H177396   7.588   7.466   6.236
25718WAT     H277397   7.498   7.342   6.179
25719WAT      O77398   6.813   2.507   5.328
25719WAT     H177399   6.906   2.508   5.365
25719WAT     H277400   6.816   2.520   5.229
25720WAT      O77401   0.915   0.800   6.401
25720WAT     H177402   0.921   0.864   6.325
25720WAT     H277403   0.828   0.750   6.396
25721WAT      O77404   4.150   4.882   6.307
25721WAT     H177405   4.200   4.917   6.386
25721WAT     H277406   4.203   4.808   6.265
25722WAT      O77407   8.576   4.435   4.211
25722WAT     H177408   8.585   4.534   4.225
25722WAT     H277409   8.481   4.407   4.228
25723WAT      O77410   9.579   4.763   1.563
25723WAT     H177411   9.630   4.706   1.627
25723WAT     H277412   9.514   4.820   1.613
25724WAT      O77413   5.632   3.678   8.382
25724WAT     H177414   5.586   3.669   8.293
25724WAT     H277415   5.698   3.753   8.378
25725WAT      O77416   3.362   6.557   9.471
25725WAT     H177417   3.360   6.621   9.395
25725WAT     H277418   3.269   6.526   9.491
25726WAT      O77419   0.158   6.152   3.949
25726WAT     H177420   0.142   6.246   3.979
25726WAT     H277421   0.080   6.095   3.976
25727WAT      O77422   9.852   2.968   4.353
25727WAT     H177423   9.859   2.968   4.452
25727WAT     H277424   9.837   3.061   4.319
25728WAT      O77425   5.107   8.697   5.433
25728WAT     H177426   5.039   8.669   5.501
25728WAT     H277427   5.134   8.792   5.452
25729WAT      O77428   2.784   3.875   5.963
25729WAT     H177429   2.761   3.817   6.041
25729WAT     H277430   2.735   3.844   5.882
25730WAT      O77431   7.224   6.557   6.301
25730WAT     H177432   7.297   6.504   6.346
25730WAT     H277433   7.195   6.509   6.218
25731WAT      O77434   8.326   6.445   7.136
25731WAT     H177435   8.364   6.506   7.205
25731WAT     H277436   8.391   6.436   7.061
25732WAT      O77437   6.651   5.333   2.196
25732WAT     H177438   6.692   5.385   2.271
25732WAT     H277439   6.723   5.293   2.139
25733WAT      O77440   5.970   4.633   0.095
25733WAT     H177441   5.927   4.649   0.184
25733WAT     H277442   5.901   4.636   0.023
25734WAT      O77443   9.489   9.364   9.662
25734WAT     H177444   9.437   9.316   9.591
25734WAT     H277445   9.545   9.435   9.620
25735WAT      O77446   1.105   6.122   7.545
25735WAT     H177447   1.105   6.215   7.509
25735WAT     H277448   1.097   6.125   7.645
25736WAT      O77449   2.061   1.688   6.441
25736WAT     H177450   2.089   1.598   6.408
25736WAT     H277451   2.104   1.759   6.386
25737WAT      O77452   1.384   1.399   4.577
25737WAT     H177453   1.291   1.416   4.545
25737WAT     H277454   1.417   1.479   4.628
25738WAT      O77455   8.428   7.496   8.762
25738WAT     H177456   8.469   7.494   8.671
25738WAT     H277457   8.490   7.543   8.825
25739WAT      O77458   6.469   6.532   1.903
25739WAT     H177459   6.469   6.603   1.832
25739WAT     H277460   6.384   6.480   1.898
25740WAT      O77461   3.646   1.550   0.145
25740WAT     H177462   3.569   1.612   0.137
25740WAT     H277463   3.631   1.470   0.088
25741WAT      O77464   5.204   8.786   0.829
25741WAT     H177465   5.176   8.825   0.917
25741WAT     H277466   5.299   8.753   0.836
25742WAT      O77467   9.736   2.647   6.621
25742WAT     H177468   9.651   2.657   6.569
25742WAT     H277469   9.811   2.691   6.572
25743WAT      O77470   1.640   9.292   6.729
25743WAT     H177471   1.591   9.354   6.669
25743WAT     H277472   1.738   9.297   6.709
25744WAT      O77473   0.926   8.640   4.314
25744WAT     H177474   1.008   8.682   4.352
25744WAT     H277475   0.875   8.709   4.263
25745WAT      O77476   1.034   3.898   1.178
25745WAT     H177477   1.110   3.955   1.209
25745WAT     H277478   0.948   3.941   1.203
25746WAT      O77479   9.356   7.850   3.895
25746WAT     H177480   9.292   7.918   3.929
25746WAT     H277481   9.307   7.780   3.843
25747WAT      O77482   4.576   5.509   3.294
25747WAT     H177483   4.499   5.572   3.297
25747WAT     H277484   4.553   5.425   3.344
25748WAT      O77485   7.687   3.982   8.795
25748WAT     H177486   7.601   3.971   8.746
25748WAT     H277487   7.762   3.950   8.738
25749WAT      O77488   6.154   0.705   4.438
25749WAT     H177489   6.204   0.788   4.412
25749WAT     H277490   6.218   0.639   4.478
25750WAT      O77491   2.352   0.020   3.876
25750WAT     H177492   2.259   0.023   3.839
25750WAT     H277493   2.399   0.105   3.854
25751WAT      O77494   0.159   5.741   8.192
25751WAT     H177495   0.206   5.778   8.112
25751WAT     H277496   0.143   5.643   8.179
25752WAT      O77497   9.590   8.703   1.632
25752WAT     H177498   9.510   8.758   1.659
25752WAT     H277499   9.669   8.731   1.687
25753WAT      O77500   7.354   3.767   0.862
25753WAT     H177501   7.255   3.758   0.861
25753WAT     H277502   7.389   3.748   0.954
25754WAT      O77503   3.180   2.017   8.260
25754WAT     H177504   3.103   2.069   8.297
25754WAT     H277505   3.153   1.922   8.246
25755WAT      O77506   1.675   9.256   1.012
25755WAT     H177507   1.658   9.181   0.949
25755WAT     H277508   1.717   9.220   1.096
25756WAT      O77509   2.804   2.676   7.026
25756WAT     H177510   2.787   2.595   6.970
25756WAT     H277511   2.718   2.711   7.062
25757WAT      O77512   5.640   0.341   2.352
25757WAT     H177513   5.733   0.375   2.372
25757WAT     H277514   5.574   0.413   2.372
25758WAT      O77515   6.587   0.208   2.253
25758WAT     H177516   6.603   0.147   2.176
25758WAT     H277517   6.675   0.244   2.285
25759WAT      O77518   2.565   2.737   9.311
25759WAT     H177519   2.631   2.774   9.376
25759WAT     H277520   2.605   2.658   9.264
25760WAT      O77521   4.516   5.970   6.299
25760WAT     H177522   4.507   5.896   6.232
25760WAT     H277523   4.586   6.034   6.268
25761WAT      O77524   0.772   6.690   5.692
25761WAT     H177525   0.802   6.635   5.614
25761WAT     H277526   0.809   6.651   5.776
25762WAT      O77527   3.630   0.279   2.103
25762WAT     H177528   3.584   0.219   2.169
25762WAT     H277529   3.683   0.348   2.152
25763WAT      O77530   4.411   6.153   3.767
25763WAT     H177531   4.355   6.092   3.823
25763WAT     H277532   4.430   6.237   3.818
25764WAT      O77533   8.366   6.189   6.209
25764WAT     H177534   8.271   6.159   6.202
25764WAT     H277535   8.416   6.161   6.128
25765WAT      O77536   6.027   1.331   6.137
25765WAT     H177537   6.080   1.371   6.212
25765WAT     H277538   5.995   1.240   6.164
25766WAT      O77539   8.099   9.333   1.623
25766WAT     H177540   8.082   9.398   1.697
25766WAT     H277541   8.189   9.352   1.582
25767WAT      O77542   8.757   3.692   1.293
25767WAT     H177543   8.719   3.708   1.202
25767WAT     H277544   8.768   3.779   1.340
25768WAT      O77545   3.440   5.866   0.813
25768WAT     H177546   3.478   5.955   0.839
25768WAT     H277547   3.422   5.812   0.896
25769WAT      O77548   9.712   1.823   7.588
25769WAT     H177549   9.669   1.894   7.532
25769WAT     H277550   9.784   1.863   7.644
25770WAT      O77551   3.602   0.668   9.446
25770WAT     H177552   3.635   0.580   9.411
25770WAT     H277553   3.546   0.712   9.376
25771WAT      O77554   3.544   8.495   0.928
25771WAT     H177555   3.493   8.469   0.846
25771WAT     H277556   3.642   8.488   0.910
25772WAT      O77557   3.351   5.580   5.590
25772WAT     H177558   3.259   5.540   5.582
25772WAT     H277559   3.363   5.616   5.682
25773WAT      O77560   5.090   4.002   7.787
25773WAT     H177561   5.186   3.983   7.767
25773WAT     H277562   5.083   4.087   7.839
25774WAT      O77563   8.453   6.726   6.200
25774WAT     H177564   8.424   6.648   6.144
25774WAT     H277565   8.422   6.713   6.294
25775WAT      O77566   7.395   7.544   7.657
25775WAT     H177567   7.354   7.487   7.585
25775WAT     H277568   7.333   7.619   7.680
25776WAT      O77569   3.466   9.599   5.273
25776WAT     H177570   3.530   9.555   5.210
25776WAT     H277571   3.442   9.690   5.238
25777WAT      O77572   1.077   0.024   0.372
25777WAT     H177573   1.022   0.050   0.293
25777WAT     H277574   1.163   0.076   0.372
25778WAT      O77575   9.026   0.856   8.276
25778WAT     H177576   8.962   0.782   8.298
25778WAT     H277577   8.993   0.941   8.316
25779WAT      O77578   5.560   2.477   8.037
25779WAT     H177579   5.560   2.494   8.135
25779WAT     H277580   5.603   2.389   8.018
25780WAT      O77581   1.334   5.087   4.945
25780WAT     H177582   1.296   5.046   5.028
25780WAT     H277583   1.354   5.183   4.962
25781WAT      O77584   7.877   4.761   2.672
25781WAT     H177585   7.906   4.826   2.601
25781WAT     H277586   7.870   4.810   2.759
25782WAT      O77587   7.877   1.121   1.954
25782WAT     H177588   7.926   1.036   1.936
25782WAT     H277589   7.783   1.112   1.924
25783WAT      O77590   8.586   9.434   2.833
25783WAT     H177591   8.567   9.453   2.737
25783WAT     H277592   8.617   9.339   2.842
25784WAT      O77593   0.843   3.497   0.395
25784WAT     H177594   0.760   3.489   0.450
25784WAT     H277595   0.840   3.431   0.320
25785WAT      O77596   8.893   1.850   2.599
25785WAT     H177597   8.963   1.811   2.540
25785WAT     H277598   8.873   1.943   2.569
25786WAT      O77599   6.028   5.490   1.315
25786WAT     H177600   5.984   5.539   1.239
25786WAT     H277601   6.105   5.437   1.279
25787WAT      O77602   5.950   8.478   4.673
25787WAT     H177603   5.995   8.510   4.756
25787WAT     H277604   6.018   8.441   4.610
25788WAT      O77605   3.443   3.502   1.146
25788WAT     H177606   3.429   3.484   1.049
25788WAT     H277607   3.535   3.540   1.159
25789WAT      O77608   8.118   3.411   7.740
25789WAT     H177609   8.167   3.465   7.808
25789WAT     H277610   8.104   3.318   7.774
25790WAT      O77611   2.876   8.665   2.771
25790WAT     H177612   2.944   8.634   2.705
25790WAT     H277613   2.853   8.761   2.752
25791WAT      O77614   2.118   1.149   9.007
25791WAT     H177615   2.205   1.099   9.002
25791WAT     H277616   2.083   1.144   9.101
25792WAT      O77617   3.182   1.148   7.595
25792WAT     H177618   3.250   1.205   7.641
25792WAT     H277619   3.205   1.140   7.498
25793WAT      O77620   9.190   3.271   2.719
25793WAT     H177621   9.131   3.194   2.698
25793WAT     H277622   9.284   3.239   2.734
25794WAT      O77623   1.277   5.228   2.266
25794WAT     H177624   1.345   5.158   2.243
25794WAT     H277625   1.203   5.187   2.318
25795WAT      O77626   9.019   0.856   9.628
25795WAT     H177627   9.066   0.935   9.590
25795WAT     H277628   8.933   0.885   9.669
25796WAT      O77629   0.286   0.883   7.349
25796WAT     H177630   0.242   0.843   7.269
25796WAT     H277631   0.382   0.855   7.352
25797WAT      O77632   1.649   3.676   8.665
25797WAT     H177633   1.669   3.620   8.584
25797WAT     H277634   1.733   3.689   8.717
25798WAT      O77635   8.679   4.068   5.920
25798WAT     H177636   8.616   4.112   5.984
25798WAT     H277637   8.769   4.059   5.963
25799WAT      O77638   1.140   5.534   1.113
25799WAT     H177639   1.133   5.475   1.194
25799WAT     H277640   1.057   5.588   1.105
25800WAT      O77641   4.169   5.293   2.388
25800WAT     H177642   4.254   5.339   2.415
25800WAT     H277643   4.096   5.317   2.452
25801WAT      O77644   3.096   5.740   6.880
25801WAT     H177645   3.147   5.701   6.957
25801WAT     H277646   3.134   5.705   6.794
25802WAT      O77647   6.800   3.184   5.002
25802WAT     H177648   6.875   3.175   5.068
25802WAT     H277649   6.813   3.268   4.949
25803WAT      O77650   2.443   3.902   6.980
25803WAT     H177651   2.360   3.944   7.016
25803WAT     H277652   2.513   3.972   6.964
25804WAT      O77653   1.060   6.251   9.590
25804WAT     H177654   1.111   6.210   9.664
25804WAT     H277655   1.081   6.349   9.584
25805WAT      O77656   8.379   0.817   3.040
25805WAT     H177657   8.356   0.909   3.069
25805WAT     H277658   8.458   0.820   2.979
25806WAT      O77659   5.399   9.420   9.006
25806WAT     H177660   5.424   9.512   9.036
25806WAT     H277661   5.405   9.415   8.906
25807WAT      O77662   1.537   5.466   2.348
25807WAT     H177663   1.498   5.505   2.431
25807WAT     H277664   1.465   5.458   2.278
25808WAT      O77665   9.185   8.058   0.888
25808WAT     H177666   9.259   8.112   0.928
25808WAT     H277667   9.191   7.964   0.919
25809WAT      O77668   5.348   0.070   7.318
25809WAT     H177669   5.278   0.123   7.367
25809WAT     H277670   5.314   0.046   7.227
25810WAT      O77671   6.806   8.288   2.471
25810WAT     H177672   6.747   8.367   2.488
25810WAT     H277673   6.785   8.217   2.537
25811WAT      O77674   7.205   6.895   0.707
25811WAT     H177675   7.106   6.900   0.707
25811WAT     H277676   7.243   6.987   0.705
25812WAT      O77677   4.173   5.193   9.857
25812WAT     H177678   4.117   5.241   9.924
25812WAT     H277679   4.128   5.197   9.767
25813WAT      O77680   5.874   8.684   9.152
25813WAT     H177681   5.889   8.666   9.054
25813WAT     H277682   5.960   8.670   9.201
25814WAT      O77683   8.890   5.080   2.804
25814WAT     H177684   8.900   5.117   2.897
25814WAT     H277685   8.878   5.155   2.739
25815WAT      O77686   4.118   4.711   2.181
25815WAT     H177687   4.090   4.699   2.276
25815WAT     H277688   4.070   4.645   2.123
25816WAT      O77689   7.748   4.979   6.534
25816WAT     H177690   7.722   5.038   6.610
25816WAT     H277691   7.675   4.978   6.466
25817WAT      O77692   6.569   7.984   6.150
25817WAT     H177693   6.486   8.021   6.193
25817WAT     H277694   6.544   7.921   6.077
25818WAT      O77695   3.403   0.451   7.951
25818WAT     H177696   3.465   0.435   7.875
25818WAT     H277697   3.455   0.467   8.035
25819WAT      O77698   3.241   0.040   8.064
25819WAT     H177699   3.148   0.046   8.101
25819WAT     H277700   3.264  -0.056   8.046
25820WAT      O77701   5.062   9.541   7.019
25820WAT     H177702   4.995   9.544   7.093
25820WAT     H277703   5.149   9.504   7.054
25821WAT      O77704   3.078   0.414   0.825
25821WAT     H177705   2.994   0.443   0.778
25821WAT     H277706   3.060   0.406   0.923
25822WAT      O77707   6.578   4.213   5.110
25822WAT     H177708   6.641   4.172   5.176
25822WAT     H277709   6.538   4.141   5.053
25823WAT      O77710   1.412   8.416   6.032
25823WAT     H177711   1.314   8.430   6.017
25823WAT     H277712   1.449   8.359   5.958
25824WAT      O77713   2.172   8.160   9.813
25824WAT     H177714   2.226   8.241   9.836
25824WAT     H277715   2.164   8.151   9.714
25825WAT      O77716   9.762   7.298   6.690
25825WAT     H177717   9.819   7.267   6.614
25825WAT     H277718   9.738   7.394   6.676
25826WAT      O77719   3.715   5.381   9.173
25826WAT     H177720   3.689   5.360   9.078
25826WAT     H277721   3.814   5.379   9.182
25827WAT      O77722   6.142   1.050   7.774
25827WAT     H177723   6.101   1.042   7.683
25827WAT     H277724   6.213   1.120   7.772
25828WAT      O77725   8.425   4.653   2.468
25828WAT     H177726   8.458   4.711   2.394
25828WAT     H277727   8.378   4.709   2.536
25829WAT      O77728   3.639   6.598   2.102
25829WAT     H177729   3.677   6.665   2.038
25829WAT     H277730   3.568   6.545   2.056
25830WAT      O77731   6.832   8.717   9.037
25830WAT     H177732   6.870   8.808   9.053
25830WAT     H277733   6.811   8.707   8.939
25831WAT      O77734   8.419   2.956   5.133
25831WAT     H177735   8.393   2.914   5.220
25831WAT     H277736   8.359   2.924   5.060
25832WAT      O77737   4.202   7.641   2.645
25832WAT     H177738   4.117   7.690   2.626
25832WAT     H277739   4.190   7.544   2.622
25833WAT      O77740   4.986   9.256   5.581
25833WAT     H177741   5.033   9.226   5.664
25833WAT     H277742   4.918   9.325   5.605
25834WAT      O77743   0.275   4.216   0.860
25834WAT     H177744   0.219   4.194   0.939
25834WAT     H277745   0.364   4.172   0.868
25835WAT      O77746   0.076   4.771   1.558
25835WAT     H177747   0.037   4.858   1.587
25835WAT     H277748   0.174   4.782   1.541
25836WAT      O77749   5.617   7.578   6.775
25836WAT     H177750   5.576   7.487   6.766
25836WAT     H277751   5.596   7.632   6.694
25837WAT      O77752   0.797   6.110   6.090
25837WAT     H177753   0.819   6.049   6.013
25837WAT     H277754   0.876   6.168   6.110
25838WAT      O77755   6.177   9.524   3.813
25838WAT     H177756   6.159   9.447   3.751
25838WAT     H277757   6.270   9.519   3.847
25839WAT      O77758   5.565   3.414   5.533
25839WAT     H177759   5.497   3.485   5.515
25839WAT     H277760   5.550   3.338   5.471
25840WAT      O77761   2.943   6.494   7.451
25840WAT     H177762   2.921   6.514   7.355
25840WAT     H277763   2.858   6.489   7.504
25841WAT      O77764   0.427   9.666   1.051
25841WAT     H177765   0.360   9.725   1.006
25841WAT     H277766   0.518   9.706   1.043
25842WAT      O77767   8.437   2.743   5.915
25842WAT     H177768   8.408   2.811   5.983
25842WAT     H277769   8.516   2.779   5.865
25843WAT      O77770   0.841   0.183   4.585
25843WAT     H177771   0.751   0.190   4.543
25843WAT     H277772   0.892   0.267   4.569
25844WAT      O77773   6.981   0.886   7.568
25844WAT     H177774   7.006   0.870   7.664
25844WAT     H277775   7.026   0.969   7.536
25845WAT      O77776   3.609   0.449   8.669
25845WAT     H177777   3.678   0.473   8.737
25845WAT     H277778   3.518   0.464   8.708
25846WAT      O77779   8.496   6.211   8.364
25846WAT     H177780   8.519   6.218   8.267
25846WAT     H277781   8.462   6.119   8.384
25847WAT      O77782   3.552   0.368   0.922
25847WAT     H177783   3.464   0.408   0.896
25847WAT     H277784   3.551   0.347   1.020
25848WAT      O77785   3.035   4.355   8.559
25848WAT     H177786   2.997   4.320   8.644
25848WAT     H277787   3.113   4.298   8.532
25849WAT      O77788   7.210   4.762   4.546
25849WAT     H177789   7.153   4.798   4.620
25849WAT     H277790   7.156   4.760   4.462
25850WAT      O77791   9.594   6.674   1.416
25850WAT     H177792   9.552   6.743   1.474
25850WAT     H277793   9.660   6.717   1.355
25851WAT      O77794   9.514   8.403   9.302
25851WAT     H177795   9.569   8.482   9.273
25851WAT     H277796   9.542   8.375   9.394
25852WAT      O77797   2.007   6.247   1.252
25852WAT     H177798   2.067   6.233   1.330
25852WAT     H277799   2.048   6.312   1.189
25853WAT      O77800   7.010   8.722   1.212
25853WAT     H177801   7.036   8.648   1.274
25853WAT     H277802   7.072   8.799   1.224
25854WAT      O77803   3.007   3.566   8.664
25854WAT     H177804   2.980   3.629   8.736
25854WAT     H277805   2.982   3.604   8.575
25855WAT      O77806   1.372   1.835   9.624
25855WAT     H177807   1.306   1.901   9.660
25855WAT     H277808   1.431   1.803   9.698
25856WAT      O77809   1.230   5.057   1.965
25856WAT     H177810   1.303   5.098   1.910
25856WAT     H277811   1.157   5.026   1.905
25857WAT      O77812   3.252   2.953   2.338
25857WAT     H177813   3.236   3.050   2.321
25857WAT     H277814   3.263   2.905   2.251
25858WAT      O77815   2.443   6.382   6.228
25858WAT     H177816   2.511   6.438   6.276
25858WAT     H277817   2.415   6.428   6.144
25859WAT      O77818   1.467   7.514   6.302
25859WAT     H177819   1.389   7.575   6.287
25859WAT     H277820   1.544   7.568   6.337
25860WAT      O77821   6.002   8.497   5.330
25860WAT     H177822   5.979   8.498   5.427
25860WAT     H277823   5.991   8.588   5.292
25861WAT      O77824   2.819   2.067   6.765
25861WAT     H177825   2.741   2.050   6.705
25861WAT     H277826   2.858   2.157   6.744
25862WAT      O77827   3.213   6.517   6.612
25862WAT     H177828   3.122   6.548   6.587
25862WAT     H277829   3.225   6.422   6.585
25863WAT      O77830   3.602   0.821   6.155
25863WAT     H177831   3.670   0.774   6.211
25863WAT     H277832   3.614   0.919   6.164
25864WAT      O77833   1.906   6.481   0.543
25864WAT     H177834   1.942   6.523   0.459
25864WAT     H277835   1.962   6.402   0.567
25865WAT      O77836   2.522   4.164   2.156
25865WAT     H177837   2.429   4.175   2.191
25865WAT     H277838   2.550   4.248   2.110
25866WAT      O77839   8.784   5.744   9.220
25866WAT     H177840   8.701   5.774   9.172
25866WAT     H277841   8.786   5.644   9.224
25867WAT      O77842   7.132   9.010   7.416
25867WAT     H177843   7.209   9.073   7.418
25867WAT     H277844   7.095   8.999   7.509
25868WAT      O77845   9.126   4.326   5.407
25868WAT     H177846   9.141   4.255   5.339
25868WAT     H277847   9.027   4.339   5.421
25869WAT      O77848   8.451   0.616   9.681
25869WAT     H177849   8.465   0.574   9.770
25869WAT     H277850   8.396   0.699   9.691
25870WAT      O77851   1.267   4.342   7.012
25870WAT     H177852   1.333   4.292   6.957
25870WAT     H277853   1.175   4.305   6.995
25871WAT      O77854   3.768   4.167   1.365
25871WAT     H177855   3.757   4.090   1.303
25871WAT     H277856   3.857   4.210   1.350
25872WAT      O77857   7.833   4.326   3.728
25872WAT     H177858   7.896   4.249   3.722
25872WAT     H277859   7.883   4.407   3.759
25873WAT      O77860   8.690   2.290   5.150
25873WAT     H177861   8.605   2.240   5.131
25873WAT     H277862   8.728   2.325   5.065
25874WAT      O77863   3.278   0.193   5.877
25874WAT     H177864   3.243   0.174   5.969
25874WAT     H277865   3.222   0.145   5.809
25875WAT      O77866   2.666   5.159   7.147
25875WAT     H177867   2.690   5.117   7.234
25875WAT     H277868   2.702   5.104   7.072
25876WAT      O77869   1.444   4.692   2.236
25876WAT     H177870   1.412   4.784   2.212
25876WAT     H277871   1.366   4.635   2.258
25877WAT      O77872   1.183   6.156   4.781
25877WAT     H177873   1.122   6.109   4.845
25877WAT     H277874   1.209   6.093   4.708
25878WAT      O77875   1.144   7.902   8.263
25878WAT     H177876   1.212   7.927   8.333
25878WAT     H277877   1.128   7.979   8.202
25879WAT      O77878   3.945   4.268   2.328
25879WAT     H177879   3.876   4.327   2.370
25879WAT     H277880   4.033   4.316   2.324
25880WAT      O77881   3.524   5.602   7.210
25880WAT     H177882   3.613   5.555   7.211
25880WAT     H277883   3.516   5.661   7.290
25881WAT      O77884   9.174   0.518   7.357
25881WAT     H177885   9.241   0.573   7.308
25881WAT     H277886   9.190   0.421   7.337
25882WAT      O77887   9.746   7.379   1.521
25882WAT     H177888   9.807   7.391   1.599
25882WAT     H277889   9.653   7.359   1.554
25883WAT      O77890   2.204   4.694   2.057
25883WAT     H177891   2.165   4.770   2.110
25883WAT     H277892   2.303   4.694   2.068
25884WAT      O77893   2.677   5.130   0.486
25884WAT     H177894   2.710   5.158   0.395
25884WAT     H277895   2.694   5.204   0.551
25885WAT      O77896   8.572   8.337   0.482
25885WAT     H177897   8.503   8.328   0.410
25885WAT     H277898   8.531   8.380   0.562
25886WAT      O77899   5.469   0.498   6.133
25886WAT     H177900   5.511   0.581   6.095
25886WAT     H277901   5.423   0.521   6.219
25887WAT      O77902   1.188   0.460   4.848
25887WAT     H177903   1.119   0.398   4.885
25887WAT     H277904   1.253   0.408   4.792
25888WAT      O77905   5.093   1.666   2.466
25888WAT     H177906   5.192   1.682   2.465
25888WAT     H277907   5.054   1.704   2.550
25889WAT      O77908   9.229   0.430   6.557
25889WAT     H177909   9.311   0.443   6.613
25889WAT     H277910   9.222   0.504   6.490
25890WAT      O77911   1.748   9.699   6.080
25890WAT     H177912   1.738   9.687   6.179
25890WAT     H277913   1.659   9.687   6.036
25891WAT      O77914   9.820   0.105   0.121
25891WAT     H177915   9.762   0.024   0.129
25891WAT     H277916   9.789   0.176   0.184
25892WAT      O77917   7.045   9.167   6.260
25892WAT     H177918   6.952   9.199   6.242
25892WAT     H277919   7.108   9.243   6.253
25893WAT      O77920   8.900   6.030   3.590
25893WAT     H177921   8.919   6.009   3.494
25893WAT     H277922   8.860   6.122   3.597
25894WAT      O77923   1.052   4.296   6.183
25894WAT     H177924   0.997   4.244   6.117
25894WAT     H277925   1.123   4.347   6.134
25895WAT      O77926   9.762   3.201   4.206
25895WAT     H177927   9.817   3.284   4.214
25895WAT     H277928   9.692   3.214   4.136
25896WAT      O77929   8.808   4.949   3.567
25896WAT     H177930   8.883   5.007   3.599
25896WAT     H277931   8.782   4.977   3.475
25897WAT      O77932   9.475   2.407   6.971
25897WAT     H177933   9.573   2.405   6.987
25897WAT     H277934   9.457   2.407   6.872
25898WAT      O77935   7.379   8.816   7.074
25898WAT     H177936   7.337   8.838   6.986
25898WAT     H277937   7.407   8.720   7.075
25899WAT      O77938   9.166   3.159   6.981
25899WAT     H177939   9.085   3.105   6.960
25899WAT     H277940   9.161   3.192   7.076
25900WAT      O77941   4.617   4.567   2.614
25900WAT     H177942   4.696   4.584   2.554
25900WAT     H277943   4.545   4.634   2.593
25901WAT      O77944   6.366   1.274   8.387
25901WAT     H177945   6.384   1.242   8.480
25901WAT     H277946   6.392   1.202   8.322
25902WAT      O77947   5.010   2.286   3.569
25902WAT     H177948   4.995   2.285   3.668
25902WAT     H277949   5.058   2.370   3.543
25903WAT      O77950   3.002   3.257   2.439
25903WAT     H177951   2.953   3.332   2.484
25903WAT     H277952   2.979   3.255   2.342
25904WAT      O77953   9.570   8.650   2.040
25904WAT     H177954   9.526   8.624   2.126
25904WAT     H277955   9.501   8.660   1.969
25905WAT      O77956   0.317   3.721   5.304
25905WAT     H177957   0.363   3.708   5.216
25905WAT     H277958   0.305   3.632   5.349
25906WAT      O77959   3.702   7.276   0.323
25906WAT     H177960   3.694   7.373   0.342
25906WAT     H277961   3.652   7.224   0.393
25907WAT      O77962   1.053   4.362   9.208
25907WAT     H177963   1.111   4.380   9.288
25907WAT     H277964   1.045   4.263   9.194
25908WAT      O77965   6.292   1.562   6.088
25908WAT     H177966   6.283   1.474   6.042
25908WAT     H277967   6.313   1.633   6.021
25909WAT      O77968   9.659   8.291   1.073
25909WAT     H177969   9.627   8.270   0.981
25909WAT     H277970   9.630   8.383   1.098
25910WAT      O77971   2.789   6.720   6.493
25910WAT     H177972   2.875   6.748   6.536
25910WAT     H277973   2.780   6.765   6.404
25911WAT      O77974   4.442   2.099   6.557
25911WAT     H177975   4.427   2.149   6.472
25911WAT     H277976   4.387   2.015   6.557
25912WAT      O77977   5.820   0.796   2.548
25912WAT     H177978   5.793   0.758   2.460
25912WAT     H277979   5.763   0.876   2.569
25913WAT      O77980   0.628   5.381   9.344
25913WAT     H177981   0.629   5.434   9.259
25913WAT     H277982   0.696   5.418   9.408
25914WAT      O77983   2.138   0.967   4.262
25914WAT     H177984   2.053   1.012   4.235
25914WAT     H277985   2.177   1.013   4.342
25915WAT      O77986   2.197   3.385   6.152
25915WAT     H177987   2.113   3.338   6.180
25915WAT     H277988   2.187   3.416   6.058
25916WAT      O77989   0.662   0.003   2.871
25916WAT     H177990   0.738  -0.045   2.828
25916WAT     H277991   0.662   0.099   2.843
25917WAT      O77992   5.012   5.971   5.978
25917WAT     H177993   5.050   6.043   6.035
25917WAT     H277994   5.046   5.982   5.884
25918WAT      O77995   8.672   3.110   6.321
25918WAT     H177996   8.657   3.064   6.233
25918WAT     H277997   8.734   3.055   6.377
25919WAT      O77998   3.345   8.504   5.479
25919WAT     H177999   3.285   8.437   5.523
25919WAT     H278000   3.440   8.470   5.481
25920WAT      O78001   8.460   8.407   0.013
25920WAT     H178002   8.473   8.412  -0.086
25920WAT     H278003   8.416   8.491   0.046
25921WAT      O78004   7.088   4.027   1.704
25921WAT     H178005   7.049   3.957   1.644
25921WAT     H278006   7.027   4.041   1.782
25922WAT      O78007   7.431   0.866   6.024
25922WAT     H178008   7.502   0.928   6.057
25922WAT     H278009   7.362   0.918   5.974
25923WAT      O78010   9.640   2.261   8.555
25923WAT     H178011   9.616   2.165   8.544
25923WAT     H278012   9.578   2.304   8.621
25924WAT      O78013   6.143   6.765   7.243
25924WAT     H178014   6.095   6.790   7.159
25924WAT     H278015   6.242   6.767   7.226
25925WAT      O78016   0.967   7.164   2.526
25925WAT     H178017   1.049   7.188   2.473
25925WAT     H278018   0.957   7.228   2.602
25926WAT      O78019   1.372   6.411   6.566
25926WAT     H178020   1.471   6.397   6.557
25926WAT     H278021   1.328   6.388   6.479
25927WAT      O78022   8.441   1.936   5.957
25927WAT     H178023   8.510   2.008   5.959
25927WAT     H278024   8.421   1.912   5.862
25928WAT      O78025   0.673   9.447   6.595
25928WAT     H178026   0.686   9.536   6.550
25928WAT     H278027   0.576   9.432   6.612
25929WAT      O78028   6.522   8.359   5.310
25929WAT     H178029   6.583   8.347   5.389
25929WAT     H278030   6.495   8.269   5.276
25930WAT      O78031   6.006   8.223   4.820
25930WAT     H178032   6.046   8.138   4.855
25930WAT     H278033   6.044   8.243   4.730
25931WAT      O78034   5.579   5.681   7.683
25931WAT     H178035   5.511   5.750   7.659
25931WAT     H278036   5.648   5.722   7.742
25932WAT      O78037   8.146   8.337   5.705
25932WAT     H178038   8.209   8.267   5.737
25932WAT     H278039   8.193   8.425   5.699
25933WAT      O78040   0.789   4.435   1.057
25933WAT     H178041   0.755   4.487   0.978
25933WAT     H278042   0.737   4.350   1.065
25934WAT      O78043   1.190   4.475   9.413
25934WAT     H178044   1.180   4.498   9.509
25934WAT     H278045   1.251   4.540   9.368
25935WAT      O78046   6.955   2.967   6.427
25935WAT     H178047   6.873   3.016   6.456
25935WAT     H278048   7.027   3.032   6.405
25936WAT      O78049   6.963   1.397   9.627
25936WAT     H178050   6.926   1.345   9.704
25936WAT     H278051   6.894   1.403   9.555
25937WAT      O78052   0.403   3.212   7.276
25937WAT     H178053   0.386   3.209   7.177
25937WAT     H278054   0.317   3.229   7.324
25938WAT      O78055   9.192   3.463   5.776
25938WAT     H178056   9.214   3.491   5.683
25938WAT     H278057   9.093   3.445   5.783
25939WAT      O78058   3.952   5.145   4.016
25939WAT     H178059   3.944   5.120   4.112
25939WAT     H278060   4.034   5.102   3.978
25940WAT      O78061   1.335   1.952   5.975
25940WAT     H178062   1.343   1.943   6.074
25940WAT     H278063   1.299   1.867   5.936
25941WAT      O78064   7.382   2.398   8.326
25941WAT     H178065   7.422   2.471   8.270
25941WAT     H278066   7.452   2.356   8.383
25942WAT      O78067   6.323   4.481   5.665
25942WAT     H178068   6.384   4.402   5.670
25942WAT     H278069   6.236   4.454   5.624
25943WAT      O78070   3.569   3.482   7.481
25943WAT     H178071   3.514   3.564   7.492
25943WAT     H278072   3.510   3.405   7.458
25944WAT      O78073   1.464   0.943   6.918
25944WAT     H178074   1.534   0.967   6.850
25944WAT     H278075   1.480   0.850   6.951
25945WAT      O78076   5.623   6.209   8.931
25945WAT     H178077   5.557   6.200   8.857
25945WAT     H278078   5.627   6.123   8.982
25946WAT      O78079   1.132   7.491   6.149
25946WAT     H178080   1.054   7.430   6.165
25946WAT     H278081   1.174   7.469   6.062
25947WAT      O78082   5.756   2.693   0.529
25947WAT     H178083   5.727   2.784   0.497
25947WAT     H278084   5.676   2.634   0.537
25948WAT      O78085   0.772   5.718   1.913
25948WAT     H178086   0.706   5.652   1.876
25948WAT     H278087   0.839   5.670   1.970
25949WAT      O78088   7.226   9.644   1.492
25949WAT     H178089   7.282   9.648   1.575
25949WAT     H278090   7.155   9.714   1.497
25950WAT      O78091   8.044   6.975   5.091
25950WAT     H178092   8.079   6.928   5.172
25950WAT     H278093   8.069   6.923   5.009
25951WAT      O78094   0.633   2.219   9.329
25951WAT     H178095   0.594   2.249   9.416
25951WAT     H278096   0.671   2.127   9.340
25952WAT      O78097   8.427   8.642   0.446
25952WAT     H178098   8.415   8.740   0.465
25952WAT     H278099   8.395   8.589   0.525
25953WAT      O78100   8.589   7.864   1.773
25953WAT     H178101   8.661   7.795   1.777
25953WAT     H278102   8.528   7.844   1.697
25954WAT      O78103   9.420   9.362   6.285
25954WAT     H178104   9.478   9.280   6.283
25954WAT     H278105   9.405   9.395   6.192
25955WAT      O78106   5.496   2.420   9.395
25955WAT     H178107   5.469   2.337   9.345
25955WAT     H278108   5.441   2.428   9.478
25956WAT      O78109   5.446   4.834   0.439
25956WAT     H178110   5.489   4.904   0.496
25956WAT     H278111   5.357   4.867   0.407
25957WAT      O78112   2.078   3.248   2.837
25957WAT     H178113   2.025   3.232   2.919
25957WAT     H278114   2.025   3.220   2.757
25958WAT      O78115   5.059   7.984   6.686
25958WAT     H178116   5.067   7.995   6.785
25958WAT     H278117   5.032   7.890   6.665
25959WAT      O78118   2.670   7.854   8.149
25959WAT     H178119   2.668   7.953   8.166
25959WAT     H278120   2.753   7.815   8.189
25960WAT      O78121   3.980   2.257   7.553
25960WAT     H178122   3.979   2.299   7.462
25960WAT     H278123   3.886   2.236   7.582
25961WAT      O78124   6.929   9.053   2.337
25961WAT     H178125   6.981   9.112   2.399
25961WAT     H278126   6.843   9.099   2.313
25962WAT      O78127   7.240   6.172   4.356
25962WAT     H178128   7.192   6.085   4.369
25962WAT     H278129   7.261   6.212   4.445
25963WAT      O78130   6.920   3.144   5.796
25963WAT     H178131   6.824   3.126   5.819
25963WAT     H278132   6.956   3.067   5.744
25964WAT      O78133   7.965   0.197   6.795
25964WAT     H178134   7.998   0.290   6.777
25964WAT     H278135   8.039   0.142   6.833
25965WAT      O78136   6.377   3.868   0.584
25965WAT     H178137   6.414   3.777   0.564
25965WAT     H278138   6.278   3.862   0.596
25966WAT      O78139   0.249   8.900   0.559
25966WAT     H178140   0.306   8.876   0.639
25966WAT     H278141   0.226   8.997   0.562
25967WAT      O78142   1.886   7.168   9.766
25967WAT     H178143   1.899   7.160   9.865
25967WAT     H278144   1.895   7.078   9.724
25968WAT      O78145   1.288   0.146   6.884
25968WAT     H178146   1.207   0.094   6.858
25968WAT     H278147   1.305   0.218   6.817
25969WAT      O78148   2.370   9.424   8.115
25969WAT     H178149   2.292   9.481   8.143
25969WAT     H278150   2.441   9.429   8.184
25970WAT      O78151   6.844   4.565   4.652
25970WAT     H178152   6.759   4.533   4.611
25970WAT     H278153   6.909   4.490   4.658
25971WAT      O78154   3.881   0.880   3.344
25971WAT     H178155   3.941   0.895   3.266
25971WAT     H278156   3.811   0.812   3.319
25972WAT      O78157   6.026   8.122   9.417
25972WAT     H178158   6.060   8.216   9.412
25972WAT     H278159   6.038   8.087   9.510
25973WAT      O78160   7.635   8.456   4.013
25973WAT     H178161   7.641   8.450   4.113
25973WAT     H278162   7.609   8.549   3.987
25974WAT      O78163   6.417   4.980   6.727
25974WAT     H178164   6.387   4.901   6.672
25974WAT     H278165   6.348   5.000   6.797
25975WAT      O78166   2.337   6.683   4.699
25975WAT     H178167   2.266   6.718   4.761
25975WAT     H278168   2.418   6.741   4.705
25976WAT      O78169   0.251   7.562   7.893
25976WAT     H178170   0.153   7.554   7.878
25976WAT     H278171   0.300   7.530   7.812
25977WAT      O78172   5.795   9.153   2.642
25977WAT     H178173   5.878   9.204   2.622
25977WAT     H278174   5.733   9.211   2.696
25978WAT      O78175   1.455   2.045   6.863
25978WAT     H178176   1.507   2.130   6.861
25978WAT     H278177   1.361   2.064   6.889
25979WAT      O78178   9.605   4.357   9.102
25979WAT     H178179   9.666   4.436   9.091
25979WAT     H278180   9.658   4.278   9.134
25980WAT      O78181   6.011   5.083   1.995
25980WAT     H178182   6.071   5.129   2.060
25980WAT     H278183   6.056   5.002   1.959
25981WAT      O78184   7.885   0.115   9.517
25981WAT     H178185   7.960   0.108   9.583
25981WAT     H278186   7.916   0.082   9.428
25982WAT      O78187   9.355   4.826   4.640
25982WAT     H178188   9.408   4.868   4.714
25982WAT     H278189   9.416   4.774   4.580
25983WAT      O78190   7.920   4.509   5.718
25983WAT     H178191   7.941   4.479   5.625
25983WAT     H278192   7.857   4.444   5.761
25984WAT      O78193   8.541   3.222   2.110
25984WAT     H178194   8.595   3.215   2.194
25984WAT     H278195   8.602   3.227   2.031
25985WAT      O78196   3.657   1.758   8.146
25985WAT     H178197   3.699   1.841   8.111
25985WAT     H278198   3.558   1.761   8.132
25986WAT      O78199   2.124   4.303   0.924
25986WAT     H178200   2.109   4.281   0.828
25986WAT     H278201   2.164   4.394   0.931
25987WAT      O78202   0.014   6.542   7.965
25987WAT     H178203  -0.001   6.496   8.053
25987WAT     H278204   0.053   6.478   7.900
25988WAT      O78205   1.610   1.050   4.119
25988WAT     H178206   1.584   1.129   4.065
25988WAT     H278207   1.615   0.969   4.061
25989WAT      O78208   7.197   5.396   7.003
25989WAT     H178209   7.104   5.433   7.003
25989WAT     H278210   7.260   5.466   6.969
25990WAT      O78211   4.132   2.889   4.968
25990WAT     H178212   4.058   2.854   5.025
25990WAT     H278213   4.218   2.846   4.994
25991WAT      O78214   0.512   1.402   9.730
25991WAT     H178215   0.493   1.417   9.633
25991WAT     H278216   0.583   1.465   9.761
25992WAT      O78217   1.628   3.199   5.453
25992WAT     H178218   1.562   3.153   5.511
25992WAT     H278219   1.588   3.284   5.418
25993WAT      O78220   2.004   5.345   1.911
25993WAT     H178221   1.969   5.438   1.900
25993WAT     H278222   1.939   5.292   1.966
25994WAT      O78223   1.384   4.860   2.862
25994WAT     H178224   1.354   4.918   2.786
25994WAT     H278225   1.433   4.781   2.826
25995WAT      O78226   1.733   1.451   6.161
25995WAT     H178227   1.812   1.410   6.116
25995WAT     H278228   1.745   1.550   6.164
25996WAT      O78229   4.745   6.263   4.871
25996WAT     H178230   4.659   6.255   4.821
25996WAT     H278231   4.822   6.248   4.808
25997WAT      O78232   1.293   8.696   7.152
25997WAT     H178233   1.243   8.763   7.095
25997WAT     H278234   1.372   8.741   7.194
25998WAT      O78235   5.303   6.681   1.702
25998WAT     H178236   5.212   6.681   1.660
25998WAT     H278237   5.317   6.768   1.750
25999WAT      O78238   0.472   1.968   4.701
25999WAT     H178239   0.416   1.994   4.623
25999WAT     H278240   0.435   2.009   4.784
26000WAT      O78241   3.612   6.363   4.956
26000WAT     H178242   3.711   6.361   4.969
26000WAT     H278243   3.576   6.270   4.958
26001WAT      O78244   0.871   0.532   5.031
26001WAT     H178245   0.829   0.603   5.088
26001WAT     H278246   0.897   0.454   5.087
26002WAT      O78247   1.786   5.968   2.260
26002WAT     H178248   1.871   5.924   2.290
26002WAT     H278249   1.763   5.937   2.168
26003WAT      O78250   6.001   0.923   5.290
26003WAT     H178251   5.939   0.993   5.256
26003WAT     H278252   6.062   0.962   5.359
26004WAT      O78253   6.891   6.673   3.667
26004WAT     H178254   6.811   6.644   3.720
26004WAT     H278255   6.951   6.728   3.725
26005WAT      O78256   7.027   1.838   6.204
26005WAT     H178257   7.091   1.785   6.259
26005WAT     H278258   7.066   1.928   6.185
26006WAT      O78259   1.899   9.437   6.085
26006WAT     H178260   1.845   9.499   6.142
26006WAT     H278261   1.873   9.342   6.105
26007WAT      O78262   4.764   6.861   6.487
26007WAT     H178263   4.819   6.859   6.404
26007WAT     H278264   4.763   6.954   6.523
26008WAT      O78265   0.940   0.753   5.332
26008WAT     H178266   0.862   0.759   5.270
26008WAT     H278267   0.929   0.821   5.405
26009WAT      O78268   7.148   6.672   9.342
26009WAT     H178269   7.074   6.717   9.292
26009WAT     H278270   7.113   6.640   9.430
26010WAT      O78271   2.417   7.042   5.132
26010WAT     H178272   2.507   7.000   5.142
26010WAT     H278273   2.364   7.026   5.215
26011WAT      O78274   3.914   5.654   4.907
26011WAT     H178275   3.967   5.641   4.824
26011WAT     H278276   3.870   5.743   4.906
26012WAT      O78277   7.065   2.258   3.732
26012WAT     H178278   7.143   2.319   3.723
26012WAT     H278279   6.996   2.301   3.790
26013WAT      O78280   9.847   0.413   1.789
26013WAT     H178281   9.939   0.375   1.789
26013WAT     H278282   9.795   0.373   1.713
26014WAT      O78283   5.378   8.189   1.205
26014WAT     H178284   5.415   8.246   1.279
26014WAT     H278285   5.292   8.229   1.172
26015WAT      O78286   1.019   1.114   9.668
26015WAT     H178287   1.102   1.100   9.723
26015WAT     H278288   1.044   1.156   9.581
26016WAT      O78289   9.435   0.371   2.576
26016WAT     H178290   9.395   0.403   2.662
26016WAT     H278291   9.521   0.420   2.560
26017WAT      O78292   9.688   4.458   6.352
26017WAT     H178293   9.722   4.551   6.339
26017WAT     H278294   9.593   4.452   6.322
26018WAT      O78295   9.190   8.596   0.546
26018WAT     H178296   9.270   8.650   0.521
26018WAT     H278297   9.122   8.601   0.473
26019WAT      O78298   4.914   8.017   8.548
26019WAT     H178299   4.904   8.092   8.614
26019WAT     H278300   5.006   7.977   8.557
26020WAT      O78301   6.434   0.471   5.100
26020WAT     H178302   6.350   0.521   5.081
26020WAT     H278303   6.481   0.513   5.178
26021WAT      O78304   3.109   2.284   2.981
26021WAT     H178305   3.024   2.327   3.012
26021WAT     H278306   3.163   2.255   3.060
26022WAT      O78307   4.502   2.029   2.737
26022WAT     H178308   4.427   1.964   2.746
26022WAT     H278309   4.561   2.001   2.662
26023WAT      O78310   9.216   7.873   5.824
26023WAT     H178311   9.188   7.952   5.768
26023WAT     H278312   9.260   7.805   5.765
26024WAT      O78313   3.747   5.455   3.083
26024WAT     H178314   3.811   5.529   3.101
26024WAT     H278315   3.775   5.405   3.002
26025WAT      O78316   7.346   1.572   7.143
26025WAT     H178317   7.431   1.576   7.197
26025WAT     H278318   7.356   1.630   7.062
26026WAT      O78319   7.517   3.589   6.542
26026WAT     H178320   7.536   3.557   6.449
26026WAT     H278321   7.427   3.633   6.544
26027WAT      O78322   3.532   6.654   4.248
26027WAT     H178323   3.491   6.568   4.278
26027WAT     H278324   3.471   6.729   4.271
26028WAT      O78325   9.062   9.198   3.743
26028WAT     H178326   9.061   9.298   3.736
26028WAT     H278327   9.140   9.162   3.693
26029WAT      O78328   9.749   0.466   5.062
26029WAT     H178329   9.711   0.533   5.126
26029WAT     H278330   9.764   0.509   4.973
26030WAT      O78331   3.870   4.275   9.153
26030WAT     H178332   3.784   4.292   9.200
26030WAT     H278333   3.853   4.256   9.056
26031WAT      O78334   1.521   2.427   5.948
26031WAT     H178335   1.568   2.432   6.036
26031WAT     H278336   1.558   2.496   5.887
26032WAT      O78337   1.892   7.693   0.916
26032WAT     H178338   1.802   7.651   0.915
26032WAT     H278339   1.901   7.756   0.838
26033WAT      O78340   1.002   3.290   7.888
26033WAT     H178341   1.096   3.293   7.923
26033WAT     H278342   1.004   3.285   7.788
26034WAT      O78343   2.524   2.493   1.940
26034WAT     H178344   2.604   2.438   1.966
26034WAT     H278345   2.525   2.579   1.990
26035WAT      O78346   1.130   5.842   0.426
26035WAT     H178347   1.208   5.791   0.462
26035WAT     H278348   1.127   5.932   0.469
26036WAT      O78349   9.559   3.179   3.992
26036WAT     H178350   9.488   3.110   4.008
26036WAT     H278351   9.526   3.268   4.021
26037WAT      O78352   3.881   1.333   7.814
26037WAT     H178353   3.902   1.376   7.901
26037WAT     H278354   3.961   1.283   7.781
26038WAT      O78355   4.076   3.364   4.816
26038WAT     H178356   4.129   3.287   4.853
26038WAT     H278357   4.014   3.398   4.886
26039WAT      O78358   8.758   0.635   6.652
26039WAT     H178359   8.677   0.578   6.667
26039WAT     H278360   8.833   0.602   6.709
26040WAT      O78361   9.530   2.726   7.868
26040WAT     H178362   9.500   2.741   7.774
26040WAT     H278363   9.627   2.701   7.869
26041WAT      O78364   9.386   3.270   1.252
26041WAT     H178365   9.384   3.341   1.322
26041WAT     H278366   9.370   3.311   1.162
26042WAT      O78367   4.500   2.002   0.155
26042WAT     H178368   4.566   2.008   0.080
26042WAT     H278369   4.548   2.001   0.242
26043WAT      O78370   5.471   9.295   5.243
26043WAT     H178371   5.564   9.270   5.267
26043WAT     H278372   5.406   9.244   5.300
26044WAT      O78373   8.474   4.806   6.495
26044WAT     H178374   8.482   4.731   6.561
26044WAT     H278375   8.377   4.826   6.479
26045WAT      O78376   5.449   7.010   2.782
26045WAT     H178377   5.488   6.924   2.815
26045WAT     H278378   5.515   7.056   2.723
26046WAT      O78379   4.948   6.516   4.660
26046WAT     H178380   4.892   6.436   4.640
26046WAT     H278381   4.895   6.600   4.646
26047WAT      O78382   5.559   7.953   9.382
26047WAT     H178383   5.618   8.026   9.345
26047WAT     H278384   5.614   7.890   9.436
26048WAT      O78385   6.478   4.544   8.940
26048WAT     H178386   6.382   4.532   8.965
26048WAT     H278387   6.537   4.504   9.010
26049WAT      O78388   7.534   1.729   8.194
26049WAT     H178389   7.582   1.648   8.160
26049WAT     H278390   7.578   1.812   8.159
26050WAT      O78391   5.327   1.412   5.565
26050WAT     H178392   5.391   1.472   5.516
26050WAT     H278393   5.245   1.398   5.510
26051WAT      O78394   0.890   5.645   6.450
26051WAT     H178395   0.928   5.711   6.385
26051WAT     H278396   0.811   5.685   6.496
26052WAT      O78397   8.298   9.234   1.991
26052WAT     H178398   8.216   9.222   1.936
26052WAT     H278399   8.369   9.170   1.960
26053WAT      O78400   4.190   8.081   1.751
26053WAT     H178401   4.149   8.118   1.834
26053WAT     H278402   4.120   8.072   1.680
26054WAT      O78403   2.751   3.508   0.897
26054WAT     H178404   2.777   3.481   0.990
26054WAT     H278405   2.827   3.556   0.854
26055WAT      O78406   2.980   4.541   0.651
26055WAT     H178407   2.987   4.631   0.610
26055WAT     H278408   2.913   4.486   0.600
26056WAT      O78409   3.744   7.500   9.248
26056WAT     H178410   3.717   7.407   9.275
26056WAT     H278411   3.812   7.495   9.175
26057WAT      O78412   6.427   4.773   5.309
26057WAT     H178413   6.512   4.799   5.262
26057WAT     H278414   6.380   4.856   5.340
26058WAT      O78415   5.279   4.918   4.386
26058WAT     H178416   5.309   4.925   4.291
26058WAT     H278417   5.249   5.007   4.418
26059WAT      O78418   6.340   0.525   7.716
26059WAT     H178419   6.349   0.608   7.660
26059WAT     H278420   6.257   0.531   7.770
26060WAT      O78421   0.727   1.144   3.700
26060WAT     H178422   0.743   1.241   3.678
26060WAT     H278423   0.646   1.137   3.758
26061WAT      O78424   9.666   4.798   4.498
26061WAT     H178425   9.630   4.773   4.408
26061WAT     H278426   9.745   4.740   4.519
26062WAT      O78427   4.440   2.734   8.981
26062WAT     H178428   4.458   2.769   8.889
26062WAT     H278429   4.461   2.805   9.049
26063WAT      O78430   4.862   6.779   9.617
26063WAT     H178431   4.835   6.705   9.556
26063WAT     H278432   4.915   6.742   9.693
26064WAT      O78433   1.736   1.207   8.590
26064WAT     H178434   1.678   1.229   8.669
26064WAT     H278435   1.815   1.269   8.588
26065WAT      O78436   3.891   6.888   2.317
26065WAT     H178437   3.915   6.979   2.353
26065WAT     H278438   3.953   6.864   2.243
26066WAT      O78439   0.623   2.284   3.655
26066WAT     H178440   0.555   2.221   3.690
26066WAT     H278441   0.686   2.236   3.593
26067WAT      O78442   7.286   4.712   8.063
26067WAT     H178443   7.382   4.723   8.037
26067WAT     H278444   7.232   4.786   8.022
26068WAT      O78445   3.997   0.873   0.155
26068WAT     H178446   3.960   0.924   0.077
26068WAT     H278447   4.090   0.906   0.175
26069WAT      O78448   4.056   5.182   9.594
26069WAT     H178449   3.968   5.229   9.585
26069WAT     H278450   4.055   5.098   9.539
26070WAT      O78451   5.084   0.530   0.845
26070WAT     H178452   5.169   0.567   0.880
26070WAT     H278453   5.103   0.458   0.778
26071WAT      O78454   5.672   0.021   7.514
26071WAT     H178455   5.627  -0.002   7.428
26071WAT     H278456   5.614  -0.006   7.591
26072WAT      O78457   1.720   0.254   7.621
26072WAT     H178458   1.820   0.248   7.622
26072WAT     H278459   1.682   0.167   7.593
26073WAT      O78460   7.654   0.464   9.882
26073WAT     H178461   7.746   0.434   9.856
26073WAT     H278462   7.661   0.541   9.945
26074WAT      O78463   9.462   6.376   9.875
26074WAT     H178464   9.423   6.302   9.930
26074WAT     H278465   9.521   6.433   9.932
26075WAT      O78466   8.506   0.888   1.007
26075WAT     H178467   8.454   0.970   0.982
26075WAT     H278468   8.513   0.883   1.107
26076WAT      O78469   4.238   6.524   1.512
26076WAT     H178470   4.143   6.511   1.540
26076WAT     H278471   4.287   6.573   1.584
26077WAT      O78472   5.721   4.803   1.107
26077WAT     H178473   5.663   4.728   1.075
26077WAT     H278474   5.732   4.796   1.207
26078WAT      O78475   0.737   4.178   0.286
26078WAT     H178476   0.812   4.177   0.352
26078WAT     H278477   0.745   4.098   0.225
26079WAT      O78478   3.174   2.438   5.011
26079WAT     H178479   3.189   2.434   5.110
26079WAT     H278480   3.122   2.358   4.982
26080WAT      O78481   2.832   1.437   6.845
26080WAT     H178482   2.926   1.409   6.864
26080WAT     H278483   2.778   1.357   6.819
26081WAT      O78484   4.837   1.559   5.605
26081WAT     H178485   4.931   1.591   5.620
26081WAT     H278486   4.800   1.524   5.691
26082WAT      O78487   8.730   6.912   9.186
26082WAT     H178488   8.693   6.898   9.278
26082WAT     H278489   8.826   6.885   9.183
26083WAT      O78490   4.723   3.726   0.552
26083WAT     H178491   4.708   3.643   0.499
26083WAT     H278492   4.817   3.757   0.540
26084WAT      O78493   7.914   7.331   4.918
26084WAT     H178494   7.975   7.274   4.862
26084WAT     H278495   7.837   7.275   4.950
26085WAT      O78496   5.182   8.534   1.320
26085WAT     H178497   5.123   8.456   1.299
26085WAT     H278498   5.139   8.618   1.287
26086WAT      O78499   1.839   5.194   2.059
26086WAT     H178500   1.787   5.113   2.085
26086WAT     H278501   1.782   5.275   2.070
26087WAT      O78502   7.076   2.497   5.406
26087WAT     H178503   7.086   2.525   5.502
26087WAT     H278504   7.126   2.561   5.348
26088WAT      O78505   3.649   0.826   1.612
26088WAT     H178506   3.674   0.752   1.549
26088WAT     H278507   3.705   0.820   1.694
26089WAT      O78508   6.981   0.729   8.815
26089WAT     H178509   6.948   0.743   8.908
26089WAT     H278510   7.005   0.632   8.803
26090WAT      O78511   7.455   7.979   5.884
26090WAT     H178512   7.453   8.048   5.956
26090WAT     H278513   7.501   8.017   5.804
26091WAT      O78514   9.155   6.139   7.220
26091WAT     H178515   9.176   6.041   7.211
26091WAT     H278516   9.078   6.150   7.283
26092WAT      O78517   1.171   8.241   7.996
26092WAT     H178518   1.199   8.308   8.065
26092WAT     H278519   1.115   8.170   8.039
26093WAT      O78520   8.517   6.608   4.149
26093WAT     H178521   8.616   6.592   4.150
26093WAT     H278522   8.498   6.698   4.110
26094WAT      O78523   7.320   8.603   4.257
26094WAT     H178524   7.384   8.668   4.297
26094WAT     H278525   7.364   8.514   4.247
26095WAT      O78526   8.362   2.014   8.672
26095WAT     H178527   8.446   2.066   8.684
26095WAT     H278528   8.309   2.053   8.597
26096WAT      O78529   7.590   2.511   1.386
26096WAT     H178530   7.611   2.427   1.336
26096WAT     H278531   7.526   2.566   1.332
26097WAT      O78532   0.036   7.829   3.294
26097WAT     H178533   0.063   7.834   3.198
26097WAT     H278534  -0.041   7.890   3.311
26098WAT      O78535   5.897   1.013   4.740
26098WAT     H178536   5.816   1.020   4.800
26098WAT     H278537   5.877   0.950   4.665
26099WAT      O78538   9.599   2.074   7.879
26099WAT     H178539   9.648   2.089   7.793
26099WAT     H278540   9.558   1.983   7.879
26100WAT      O78541   4.032   7.606   8.243
26100WAT     H178542   4.024   7.612   8.342
26100WAT     H278543   4.095   7.676   8.210
26101WAT      O78544   1.675   0.838   9.093
26101WAT     H178545   1.673   0.759   9.154
26101WAT     H278546   1.689   0.921   9.148
26102WAT      O78547   5.268   9.262   3.166
26102WAT     H178548   5.209   9.275   3.087
26102WAT     H278549   5.348   9.321   3.159
26103WAT      O78550   3.638   1.161   0.098
26103WAT     H178551   3.659   1.065   0.077
26103WAT     H278552   3.722   1.215   0.092
26104WAT      O78553   6.807   6.897   2.845
26104WAT     H178554   6.798   6.816   2.903
26104WAT     H278555   6.759   6.974   2.887
26105WAT      O78556   1.424   0.597   9.781
26105WAT     H178557   1.352   0.531   9.760
26105WAT     H278558   1.420   0.672   9.716
26106WAT      O78559   1.218   6.580   5.191
26106WAT     H178560   1.305   6.584   5.143
26106WAT     H278561   1.145   6.559   5.126
26107WAT      O78562   4.688   7.910   5.295
26107WAT     H178563   4.693   8.007   5.317
26107WAT     H278564   4.691   7.897   5.196
26108WAT      O78565   8.798   1.499   0.469
26108WAT     H178566   8.774   1.595   0.457
26108WAT     H278567   8.892   1.491   0.503
26109WAT      O78568   2.763   3.811   0.364
26109WAT     H178569   2.672   3.854   0.365
26109WAT     H278570   2.770   3.746   0.439
26110WAT      O78571   6.934   9.809   3.055
26110WAT     H178572   6.905   9.901   3.083
26110WAT     H278573   7.004   9.776   3.117
26111WAT      O78574   4.795   9.462   5.644
26111WAT     H178575   4.699   9.438   5.629
26111WAT     H278576   4.810   9.483   5.740
26112WAT      O78577   0.801   2.229   7.569
26112WAT     H178578   0.754   2.142   7.580
26112WAT     H278579   0.734   2.302   7.555
26113WAT      O78580   0.618   5.918   3.053
26113WAT     H178581   0.660   5.829   3.035
26113WAT     H278582   0.666   5.964   3.128
26114WAT      O78583   7.524   6.975   1.934
26114WAT     H178584   7.523   7.070   1.964
26114WAT     H278585   7.597   6.926   1.981
26115WAT      O78586   1.600   4.558   5.395
26115WAT     H178587   1.694   4.580   5.423
26115WAT     H278588   1.567   4.478   5.445
26116WAT      O78589   6.686   0.020   4.640
26116WAT     H178590   6.691   0.024   4.740
26116WAT     H278591   6.653   0.108   4.604
26117WAT      O78592   1.282   6.879   9.818
26117WAT     H178593   1.194   6.885   9.866
26117WAT     H278594   1.281   6.940   9.738
26118WAT      O78595   8.815   0.553   9.807
26118WAT     H178596   8.834   0.553   9.709
26118WAT     H278597   8.901   0.547   9.858
26119WAT      O78598   8.683   1.476   5.597
26119WAT     H178599   8.780   1.498   5.608
26119WAT     H278600   8.658   1.478   5.500
26120WAT      O78601   1.969   2.412   9.480
26120WAT     H178602   2.028   2.380   9.407
26120WAT     H278603   1.920   2.335   9.520
26121WAT      O78604   6.550   2.486   8.643
26121WAT     H178605   6.510   2.558   8.587
26121WAT     H278606   6.648   2.504   8.657
26122WAT      O78607   2.642   9.511   7.880
26122WAT     H178608   2.696   9.444   7.931
26122WAT     H278609   2.653   9.601   7.922
26123WAT      O78610   1.481   6.954   7.323
26123WAT     H178611   1.569   6.996   7.348
26123WAT     H278612   1.486   6.922   7.229
26124WAT      O78613   2.238   7.307   1.269
26124WAT     H178614   2.180   7.368   1.216
26124WAT     H278615   2.200   7.294   1.361
26125WAT      O78616   2.911   3.511   2.481
26125WAT     H178617   2.912   3.588   2.418
26125WAT     H278618   2.913   3.545   2.575
26126WAT      O78619   1.208   0.670   8.088
26126WAT     H178620   1.150   0.620   8.024
26126WAT     H278621   1.292   0.699   8.042
26127WAT      O78622   0.130   7.932   3.028
26127WAT     H178623   0.097   7.886   2.945
26127WAT     H278624   0.132   8.031   3.012
26128WAT      O78625   5.502   5.080   9.803
26128WAT     H178626   5.432   5.095   9.733
26128WAT     H278627   5.592   5.081   9.761
26129WAT      O78628   7.542   8.236   5.546
26129WAT     H178629   7.449   8.225   5.511
26129WAT     H278630   7.553   8.328   5.584
26130WAT      O78631   1.310   6.401   3.373
26130WAT     H178632   1.253   6.478   3.402
26130WAT     H278633   1.344   6.417   3.281
26131WAT      O78634   1.273   0.737   4.602
26131WAT     H178635   1.307   0.696   4.686
26131WAT     H278636   1.291   0.676   4.525
26132WAT      O78637   3.380   0.200   7.300
26132WAT     H178638   3.378   0.109   7.340
26132WAT     H278639   3.289   0.242   7.309
26133WAT      O78640   7.264   3.000   8.338
26133WAT     H178641   7.221   3.084   8.303
26133WAT     H278642   7.353   2.988   8.295
26134WAT      O78643   2.555   1.224   5.885
26134WAT     H178644   2.607   1.229   5.800
26134WAT     H278645   2.480   1.158   5.876
26135WAT      O78646   2.680   0.127   2.303
26135WAT     H178647   2.755   0.184   2.337
26135WAT     H278648   2.706   0.087   2.215
26136WAT      O78649   8.275   1.037   1.867
26136WAT     H178650   8.368   1.053   1.900
26136WAT     H278651   8.245   1.115   1.812
26137WAT      O78652   3.454   6.075   1.584
26137WAT     H178653   3.424   6.158   1.538
26137WAT     H278654   3.387   6.002   1.568
26138WAT      O78655   5.926   2.552   4.381
26138WAT     H178656   5.956   2.466   4.341
26138WAT     H278657   5.989   2.625   4.353
26139WAT      O78658   3.364   0.638   8.205
26139WAT     H178659   3.362   0.722   8.260
26139WAT     H278660   3.424   0.571   8.248
26140WAT      O78661   9.032   5.909   4.355
26140WAT     H178662   9.097   5.892   4.429
26140WAT     H278663   8.939   5.908   4.391
26141WAT      O78664   6.665   8.100   4.760
26141WAT     H178665   6.666   8.073   4.857
26141WAT     H278666   6.610   8.183   4.749
26142WAT      O78667   3.957   0.806   2.762
26142WAT     H178668   3.885   0.875   2.749
26142WAT     H278669   3.978   0.799   2.860
26143WAT      O78670   6.428   1.667   6.502
26143WAT     H178671   6.425   1.606   6.423
26143WAT     H278672   6.498   1.737   6.488
26144WAT      O78673   2.598   1.983   0.548
26144WAT     H178674   2.584   1.978   0.449
26144WAT     H278675   2.549   2.062   0.585
26145WAT      O78676   9.047   1.380   1.068
26145WAT     H178677   9.004   1.471   1.064
26145WAT     H278678   8.979   1.310   1.046
26146WAT      O78679   9.580   0.624   6.504
26146WAT     H178680   9.624   0.635   6.415
26146WAT     H278681   9.645   0.647   6.577
26147WAT      O78682   1.410   6.823   7.057
26147WAT     H178683   1.425   6.780   6.968
26147WAT     H278684   1.342   6.771   7.109
26148WAT      O78685   4.857   2.517   1.588
26148WAT     H178686   4.761   2.523   1.558
26148WAT     H278687   4.901   2.438   1.544
26149WAT      O78688   4.574   3.349   4.115
26149WAT     H178689   4.476   3.367   4.103
26149WAT     H278690   4.617   3.428   4.159
26150WAT      O78691   0.117   2.310   1.761
26150WAT     H178692   0.023   2.282   1.781
26150WAT     H278693   0.118   2.409   1.746
26151WAT      O78694   6.711   1.875   8.922
26151WAT     H178695   6.744   1.864   8.828
26151WAT     H278696   6.654   1.956   8.929
26152WAT      O78697   4.270   3.618   0.443
26152WAT     H178698   4.257   3.545   0.509
26152WAT     H278699   4.181   3.651   0.412
26153WAT      O78700   5.542   6.697   8.473
26153WAT     H178701   5.594   6.781   8.493
26153WAT     H278702   5.453   6.722   8.436
26154WAT      O78703   1.390   5.243   2.681
26154WAT     H178704   1.444   5.325   2.701
26154WAT     H278705   1.413   5.172   2.747
26155WAT      O78706   8.934   2.022   6.508
26155WAT     H178707   8.996   2.074   6.450
26155WAT     H278708   8.943   1.925   6.488
26156WAT      O78709   1.222   9.231   5.087
26156WAT     H178710   1.264   9.204   5.000
26156WAT     H278711   1.288   9.283   5.141
26157WAT      O78712   7.521   4.059   1.901
26157WAT     H178713   7.424   4.037   1.906
26157WAT     H278714   7.566   3.997   1.837
26158WAT      O78715   0.210   4.915   0.592
26158WAT     H178716   0.169   4.911   0.501
26158WAT     H278717   0.241   5.008   0.611
26159WAT      O78718   8.953   5.654   1.177
26159WAT     H178719   8.958   5.710   1.260
26159WAT     H278720   8.875   5.684   1.122
26160WAT      O78721   1.395   7.634   3.068
26160WAT     H178722   1.377   7.646   3.166
26160WAT     H278723   1.493   7.635   3.052
26161WAT      O78724   3.921   3.698   1.282
26161WAT     H178725   4.006   3.671   1.236
26161WAT     H278726   3.939   3.714   1.379
26162WAT      O78727   6.365   7.662   4.870
26162WAT     H178728   6.304   7.604   4.814
26162WAT     H278729   6.318   7.688   4.954
26163WAT      O78730   4.228   4.068   2.914
26163WAT     H178731   4.201   4.027   2.827
26163WAT     H278732   4.160   4.046   2.984
26164WAT      O78733   9.434   8.259   6.681
26164WAT     H178734   9.485   8.318   6.744
26164WAT     H278735   9.397   8.314   6.606
26165WAT      O78736   9.704   8.262   7.304
26165WAT     H178737   9.702   8.348   7.356
26165WAT     H278738   9.710   8.185   7.368
26166WAT      O78739   2.731   1.329   1.075
26166WAT     H178740   2.637   1.323   1.040
26166WAT     H278741   2.795   1.335   0.999
26167WAT      O78742   2.555   6.649   8.932
26167WAT     H178743   2.464   6.631   8.970
26167WAT     H278744   2.611   6.697   9.000
26168WAT      O78745   1.207   3.273   9.022
26168WAT     H178746   1.176   3.189   9.066
26168WAT     H278747   1.223   3.255   8.925
26169WAT      O78748   6.948   6.519   7.384
26169WAT     H178749   6.909   6.588   7.446
26169WAT     H278750   7.046   6.510   7.402
26170WAT      O78751   7.347   9.506   5.371
26170WAT     H178752   7.251   9.494   5.394
26170WAT     H278753   7.392   9.417   5.366
26171WAT      O78754   3.426   5.464   6.383
26171WAT     H178755   3.358   5.512   6.327
26171WAT     H278756   3.382   5.430   6.466
26172WAT      O78757   3.313   9.494   4.530
26172WAT     H178758   3.409   9.467   4.538
26172WAT     H278759   3.261   9.451   4.603
26173WAT      O78760   4.231   7.630   0.488
26173WAT     H178761   4.212   7.701   0.555
26173WAT     H278762   4.176   7.549   0.508
26174WAT      O78763   5.283   8.615   0.360
26174WAT     H178764   5.227   8.667   0.296
26174WAT     H278765   5.241   8.620   0.451
26175WAT      O78766   5.934   3.309   0.632
26175WAT     H178767   6.008   3.317   0.698
26175WAT     H278768   5.859   3.369   0.659
26176WAT      O78769   6.906   2.136   1.137
26176WAT     H178770   6.940   2.043   1.152
26176WAT     H278771   6.823   2.133   1.082
26177WAT      O78772   6.406   0.254   8.814
26177WAT     H178773   6.311   0.248   8.782
26177WAT     H278774   6.419   0.341   8.862
26178WAT      O78775   0.480   1.605   4.310
26178WAT     H178776   0.394   1.630   4.265
26178WAT     H278777   0.485   1.650   4.400
26179WAT      O78778   6.394   6.785   2.959
26179WAT     H178779   6.358   6.871   2.997
26179WAT     H278780   6.488   6.798   2.929
26180WAT      O78781   9.461   7.661   0.651
26180WAT     H178782   9.494   7.570   0.678
26180WAT     H278783   9.529   7.706   0.593
26181WAT      O78784   7.479   9.748   8.689
26181WAT     H178785   7.562   9.700   8.661
26181WAT     H278786   7.455   9.816   8.620
26182WAT      O78787   7.257   4.332   5.609
26182WAT     H178788   7.205   4.287   5.682
26182WAT     H278789   7.355   4.325   5.630
26183WAT      O78790   8.452   9.067   0.650
26183WAT     H178791   8.508   9.125   0.708
26183WAT     H278792   8.509   8.998   0.606
26184WAT      O78793   5.384   5.053   6.351
26184WAT     H178794   5.418   5.056   6.445
26184WAT     H278795   5.418   4.971   6.306
26185WAT      O78796   7.106   4.488   5.409
26185WAT     H178797   7.058   4.547   5.475
26185WAT     H278798   7.156   4.417   5.459
26186WAT      O78799   8.052   3.995   9.697
26186WAT     H178800   8.010   3.939   9.769
26186WAT     H278801   8.057   4.090   9.727
26187WAT      O78802   6.134   0.807   0.043
26187WAT     H178803   6.214   0.794   0.102
26187WAT     H278804   6.164   0.841  -0.046
26188WAT      O78805   6.122   0.951   5.570
26188WAT     H178806   6.200   1.013   5.565
26188WAT     H278807   6.153   0.860   5.595
26189WAT      O78808   4.182   7.160   7.888
26189WAT     H178809   4.159   7.245   7.935
26189WAT     H278810   4.124   7.149   7.807
26190WAT      O78811   5.839   1.458   3.434
26190WAT     H178812   5.844   1.359   3.420
26190WAT     H278813   5.820   1.478   3.530
26191WAT      O78814   8.691   3.147   3.195
26191WAT     H178815   8.654   3.160   3.287
26191WAT     H278816   8.709   3.236   3.153
26192WAT      O78817   2.658   8.845   4.434
26192WAT     H178818   2.688   8.907   4.361
26192WAT     H278819   2.562   8.821   4.420
26193WAT      O78820   9.194   6.858   8.964
26193WAT     H178821   9.266   6.927   8.959
26193WAT     H278822   9.235   6.768   8.980
26194WAT      O78823   6.017   8.691   2.773
26194WAT     H178824   5.946   8.716   2.707
26194WAT     H278825   6.074   8.618   2.736
26195WAT      O78826   5.058   2.701   0.805
26195WAT     H178827   5.035   2.615   0.849
26195WAT     H278828   5.035   2.695   0.707
26196WAT      O78829   7.583   0.390   4.247
26196WAT     H178830   7.548   0.419   4.336
26196WAT     H278831   7.677   0.422   4.236
26197WAT      O78832   9.264   6.922   5.801
26197WAT     H178833   9.294   7.016   5.816
26197WAT     H278834   9.166   6.922   5.780
26198WAT      O78835   0.931   3.539   2.959
26198WAT     H178836   0.996   3.528   3.035
26198WAT     H278837   0.843   3.500   2.985
26199WAT      O78838   5.986   5.697   0.515
26199WAT     H178839   6.075   5.670   0.478
26199WAT     H278840   5.945   5.768   0.457
26200WAT      O78841   4.791   7.950   6.499
26200WAT     H178842   4.787   8.006   6.582
26200WAT     H278843   4.854   7.874   6.513
26201WAT      O78844   8.153   5.729   4.617
26201WAT     H178845   8.101   5.645   4.603
26201WAT     H278846   8.247   5.707   4.642
26202WAT      O78847   9.818   1.020   4.048
26202WAT     H178848   9.751   0.993   4.117
26202WAT     H278849   9.776   1.083   3.983
26203WAT      O78850   8.985   0.421   7.837
26203WAT     H178851   8.946   0.479   7.765
26203WAT     H278852   9.050   0.357   7.796
26204WAT      O78853   7.461   5.416   7.803
26204WAT     H178854   7.525   5.387   7.873
26204WAT     H278855   7.472   5.359   7.722
26205WAT      O78856   0.160   3.853   4.509
26205WAT     H178857   0.137   3.762   4.475
26205WAT     H278858   0.247   3.848   4.558
26206WAT      O78859   9.476   2.246   5.470
26206WAT     H178860   9.380   2.270   5.452
26206WAT     H278861   9.526   2.240   5.384
26207WAT      O78862   2.669   0.283   8.303
26207WAT     H178863   2.663   0.370   8.352
26207WAT     H278864   2.614   0.288   8.219
26208WAT      O78865   6.187   4.314   1.158
26208WAT     H178866   6.215   4.382   1.090
26208WAT     H278867   6.089   4.324   1.176
26209WAT      O78868   9.192   4.279   1.547
26209WAT     H178869   9.226   4.338   1.475
26209WAT     H278870   9.104   4.314   1.580
26210WAT      O78871   2.843   8.552   9.702
26210WAT     H178872   2.806   8.603   9.780
26210WAT     H278873   2.837   8.609   9.620
26211WAT      O78874   6.783   8.837   7.928
26211WAT     H178875   6.704   8.807   7.980
26211WAT     H278876   6.754   8.902   7.858
26212WAT      O78877   7.658   9.001   4.473
26212WAT     H178878   7.562   8.973   4.484
26212WAT     H278879   7.662   9.100   4.456
26213WAT      O78880   7.503   2.570   9.121
26213WAT     H178881   7.441   2.506   9.166
26213WAT     H278882   7.553   2.623   9.191
26214WAT      O78883   7.901   1.533   8.098
26214WAT     H178884   7.972   1.604   8.093
26214WAT     H278885   7.925   1.457   8.038
26215WAT      O78886   4.252   5.486   2.730
26215WAT     H178887   4.214   5.415   2.790
26215WAT     H278888   4.203   5.572   2.745
26216WAT      O78889   4.324   7.181   1.631
26216WAT     H178890   4.228   7.185   1.602
26216WAT     H278891   4.336   7.233   1.715
26217WAT      O78892   8.770   0.934   0.569
26217WAT     H178893   8.852   0.988   0.549
26217WAT     H278894   8.766   0.916   0.668
26218WAT      O78895   7.996   5.087   5.901
26218WAT     H178896   8.020   4.999   5.861
26218WAT     H278897   8.068   5.154   5.880
26219WAT      O78898   1.792   8.829   5.282
26219WAT     H178899   1.809   8.745   5.333
26219WAT     H278900   1.877   8.861   5.240
26220WAT      O78901   5.278   2.037   9.461
26220WAT     H178902   5.237   2.058   9.550
26220WAT     H278903   5.374   2.062   9.462
26221WAT      O78904   7.641   2.348   0.662
26221WAT     H178905   7.667   2.357   0.758
26221WAT     H278906   7.587   2.265   0.650
26222WAT      O78907   6.650   0.962   4.630
26222WAT     H178908   6.636   0.866   4.655
26222WAT     H278909   6.743   0.989   4.655
26223WAT      O78910   3.748   1.266   2.567
26223WAT     H178911   3.822   1.282   2.501
26223WAT     H278912   3.681   1.203   2.528
26224WAT      O78913   4.541   2.365   1.176
26224WAT     H178914   4.462   2.308   1.154
26224WAT     H278915   4.510   2.454   1.210
26225WAT      O78916   1.162   9.170   3.401
26225WAT     H178917   1.259   9.167   3.374
26225WAT     H278918   1.144   9.096   3.466
26226WAT      O78919   4.712   5.901   3.019
26226WAT     H178920   4.768   5.821   2.995
26226WAT     H278921   4.771   5.980   3.035
26227WAT      O78922   8.954   8.325   4.356
26227WAT     H178923   9.042   8.282   4.374
26227WAT     H278924   8.965   8.397   4.287
26228WAT      O78925   2.314   5.959   7.260
26228WAT     H178926   2.354   5.875   7.225
26228WAT     H278927   2.373   6.037   7.236
26229WAT      O78928   2.622   0.946   0.453
26229WAT     H178929   2.573   0.862   0.479
26229WAT     H278930   2.717   0.940   0.485
26230WAT      O78931   0.654   3.097   3.637
26230WAT     H178932   0.614   3.008   3.660
26230WAT     H278933   0.581   3.164   3.627
26231WAT      O78934   3.806   4.381   8.290
26231WAT     H178935   3.837   4.411   8.200
26231WAT     H278936   3.707   4.397   8.297
26232WAT      O78937   5.714   7.222   9.859
26232WAT     H178938   5.772   7.288   9.906
26232WAT     H278939   5.746   7.129   9.879
26233WAT      O78940   7.136   6.717   0.150
26233WAT     H178941   7.199   6.639   0.144
26233WAT     H278942   7.129   6.746   0.245
26234WAT      O78943   1.546   1.587   3.821
26234WAT     H178944   1.479   1.661   3.822
26234WAT     H278945   1.594   1.585   3.733
26235WAT      O78946   5.261   4.652   5.880
26235WAT     H178947   5.185   4.673   5.942
26235WAT     H278948   5.226   4.640   5.787
26236WAT      O78949   8.728   0.819   0.304
26236WAT     H178950   8.717   0.723   0.332
26236WAT     H278951   8.729   0.877   0.385
26237WAT      O78952   3.730   7.305   8.893
26237WAT     H178953   3.690   7.396   8.908
26237WAT     H278954   3.656   7.238   8.880
26238WAT      O78955   9.477   4.701   5.750
26238WAT     H178956   9.492   4.744   5.661
26238WAT     H278957   9.526   4.614   5.754
26239WAT      O78958   8.593   2.561   8.693
26239WAT     H178959   8.615   2.639   8.751
26239WAT     H278960   8.580   2.592   8.599
26240WAT      O78961   9.630   2.256   7.693
26240WAT     H178962   9.617   2.340   7.642
26240WAT     H278963   9.565   2.252   7.769
26241WAT      O78964   5.237   5.126   8.900
26241WAT     H178965   5.166   5.068   8.857
26241WAT     H278966   5.245   5.102   8.996
26242WAT      O78967   1.945   7.700   7.706
26242WAT     H178968   1.959   7.753   7.790
26242WAT     H278969   1.954   7.602   7.726
26243WAT      O78970   8.556   2.720   1.859
26243WAT     H178971   8.599   2.744   1.773
26243WAT     H278972   8.492   2.792   1.886
26244WAT      O78973   3.731   3.143   6.067
26244WAT     H178974   3.809   3.087   6.097
26244WAT     H278975   3.756   3.193   5.984
26245WAT      O78976   6.299   4.257   4.963
26245WAT     H178977   6.305   4.352   4.994
26245WAT     H278978   6.359   4.200   5.019
26246WAT      O78979   5.299   3.584   3.608
26246WAT     H178980   5.387   3.559   3.647
26246WAT     H278981   5.227   3.573   3.676
26247WAT      O78982   1.593   0.038   4.974
26247WAT     H178983   1.587  -0.059   4.948
26247WAT     H278984   1.512   0.063   5.028
26248WAT      O78985   9.752   7.079   2.341
26248WAT     H178986   9.666   7.115   2.376
26248WAT     H278987   9.828   7.112   2.398
26249WAT      O78988   1.553   3.267   1.869
26249WAT     H178989   1.600   3.287   1.955
26249WAT     H278990   1.619   3.266   1.794
26250WAT      O78991   8.566   8.504   8.813
26250WAT     H178992   8.477   8.490   8.856
26250WAT     H278993   8.599   8.595   8.835
26251WAT      O78994   8.564   7.283   9.481
26251WAT     H178995   8.550   7.324   9.391
26251WAT     H278996   8.527   7.190   9.481
26252WAT      O78997   8.533   3.867   7.029
26252WAT     H178998   8.623   3.845   7.066
26252WAT     H278999   8.544   3.910   6.939
26253WAT      O79000   5.651   6.195   1.064
26253WAT     H179001   5.734   6.251   1.053
26253WAT     H279002   5.571   6.253   1.048
26254WAT      O79003   0.928   6.114   3.610
26254WAT     H179004   0.910   6.045   3.681
26254WAT     H279005   0.842   6.135   3.562
26255WAT      O79006   4.093   3.019   9.826
26255WAT     H179007   4.165   3.030   9.757
26255WAT     H279008   4.036   3.101   9.827
26256WAT      O79009   9.541   6.453   2.503
26256WAT     H179010   9.463   6.430   2.446
26256WAT     H279011   9.620   6.474   2.446
26257WAT      O79012   7.391   6.836   6.210
26257WAT     H179013   7.306   6.802   6.250
26257WAT     H279014   7.441   6.888   6.279
26258WAT      O79015   4.361   2.458   8.973
26258WAT     H179016   4.361   2.432   9.069
26258WAT     H279017   4.384   2.555   8.965
26259WAT      O79018   3.016   4.605   6.828
26259WAT     H179019   3.070   4.682   6.794
26259WAT     H279020   3.075   4.526   6.842
26260WAT      O79021   8.084   6.736   3.427
26260WAT     H179022   8.138   6.682   3.363
26260WAT     H279023   8.093   6.833   3.405
26261WAT      O79024   3.296   7.571   8.325
26261WAT     H179025   3.277   7.659   8.282
26261WAT     H279026   3.245   7.499   8.278
26262WAT      O79027   6.738   7.418   4.830
26262WAT     H179028   6.695   7.490   4.775
26262WAT     H279029   6.738   7.444   4.926
26263WAT      O79030   2.739   5.327   0.664
26263WAT     H179031   2.720   5.359   0.757
26263WAT     H279032   2.814   5.381   0.625
26264WAT      O79033   9.839   7.069   5.762
26264WAT     H179034   9.876   6.976   5.764
26264WAT     H279035   9.914   7.134   5.748
26265WAT      O79036   5.373   0.312   1.622
26265WAT     H179037   5.434   0.300   1.700
26265WAT     H279038   5.425   0.305   1.537
26266WAT      O79039   1.403   0.543   7.360
26266WAT     H179040   1.450   0.537   7.448
26266WAT     H279041   1.363   0.454   7.338
26267WAT      O79042   9.631   6.547   1.944
26267WAT     H179043   9.598   6.516   1.855
26267WAT     H279044   9.705   6.612   1.931
26268WAT      O79045   2.496   5.677   9.048
26268WAT     H179046   2.400   5.695   9.027
26268WAT     H279047   2.506   5.654   9.145
26269WAT      O79048   0.262   4.092   7.934
26269WAT     H179049   0.327   4.044   7.993
26269WAT     H279050   0.260   4.048   7.844
26270WAT      O79051   5.715   0.347   4.082
26270WAT     H179052   5.695   0.443   4.060
26270WAT     H279053   5.638   0.290   4.052
26271WAT      O79054   1.642   2.176   8.202
26271WAT     H179055   1.575   2.103   8.205
26271WAT     H279056   1.605   2.257   8.247
26272WAT      O79057   2.027   0.845   6.428
26272WAT     H179058   2.063   0.914   6.491
26272WAT     H279059   2.101   0.783   6.402
26273WAT      O79060   1.238   9.561   0.364
26273WAT     H179061   1.152   9.548   0.314
26273WAT     H279062   1.314   9.564   0.299
26274WAT      O79063   3.286   2.708   1.246
26274WAT     H179064   3.236   2.694   1.161
26274WAT     H279065   3.290   2.805   1.268
26275WAT      O79066   2.325   4.550   3.619
26275WAT     H179067   2.262   4.501   3.679
26275WAT     H279068   2.317   4.648   3.637
26276WAT      O79069   8.873   2.882   0.183
26276WAT     H179070   8.803   2.952   0.171
26276WAT     H279071   8.950   2.901   0.122
26277WAT      O79072   5.103   2.706   1.981
26277WAT     H179073   5.098   2.746   1.889
26277WAT     H279074   5.020   2.730   2.032
26278WAT      O79075   0.583   2.845   6.394
26278WAT     H179076   0.507   2.897   6.433
26278WAT     H279077   0.558   2.748   6.390
26279WAT      O79078   4.040   9.127   1.703
26279WAT     H179079   4.068   9.210   1.653
26279WAT     H279080   4.121   9.079   1.737
26280WAT      O79081   5.843   1.666   6.321
26280WAT     H179082   5.822   1.577   6.280
26280WAT     H279083   5.936   1.693   6.297
26281WAT      O79084   7.333   7.927   0.632
26281WAT     H179085   7.383   7.879   0.560
26281WAT     H279086   7.357   8.024   0.630
26282WAT      O79087   7.407   7.866   1.830
26282WAT     H179088   7.317   7.899   1.801
26282WAT     H279089   7.396   7.780   1.881
26283WAT      O79090   1.094   4.594   2.563
26283WAT     H179091   1.038   4.580   2.644
26283WAT     H279092   1.091   4.690   2.535
26284WAT      O79093   3.326   7.195   6.184
26284WAT     H179094   3.283   7.137   6.115
26284WAT     H279095   3.398   7.249   6.141
26285WAT      O79096   0.916   4.132   0.788
26285WAT     H179097   0.848   4.163   0.855
26285WAT     H279098   1.008   4.148   0.824
26286WAT      O79099   6.358   5.755   0.928
26286WAT     H179100   6.322   5.691   0.996
26286WAT     H279101   6.284   5.788   0.870
26287WAT      O79102   7.130   3.095   1.110
26287WAT     H179103   7.060   3.149   1.062
26287WAT     H279104   7.174   3.151   1.180
26288WAT      O79105   5.669   8.791   6.315
26288WAT     H179106   5.663   8.693   6.334
26288WAT     H279107   5.765   8.818   6.308
26289WAT      O79108   9.696   3.874   6.053
26289WAT     H179109   9.766   3.851   5.986
26289WAT     H279110   9.725   3.844   6.143
26290WAT      O79111   7.475   5.707   4.569
26290WAT     H179112   7.504   5.689   4.475
26290WAT     H279113   7.471   5.622   4.620
26291WAT      O79114   0.041   3.993   3.714
26291WAT     H179115   0.006   4.083   3.739
26291WAT     H279116   0.092   4.000   3.628
26292WAT      O79117   5.510   9.554   0.920
26292WAT     H179118   5.470   9.512   0.839
26292WAT     H279119   5.603   9.584   0.900
26293WAT      O79120   6.999   9.586   9.579
26293WAT     H179121   6.983   9.488   9.584
26293WAT     H279122   6.928   9.629   9.524
26294WAT      O79123   1.700   2.518   0.726
26294WAT     H179124   1.646   2.456   0.782
26294WAT     H279125   1.654   2.532   0.638
26295WAT      O79126   5.360   2.044   3.958
26295WAT     H179127   5.412   2.124   3.989
26295WAT     H279128   5.422   1.979   3.913
26296WAT      O79129   3.265   2.561   1.774
26296WAT     H179130   3.231   2.624   1.705
26296WAT     H279131   3.217   2.576   1.861
26297WAT      O79132   5.210   9.161   7.228
26297WAT     H179133   5.259   9.151   7.314
26297WAT     H279134   5.160   9.076   7.208
26298WAT      O79135   2.624   8.004   4.995
26298WAT     H179136   2.627   7.922   5.051
26298WAT     H279137   2.672   8.079   5.041
26299WAT      O79138   8.098   6.363   0.823
26299WAT     H179139   8.113   6.264   0.823
26299WAT     H279140   8.006   6.382   0.787
26300WAT      O79141   4.291   0.091   4.940
26300WAT     H179142   4.251   0.001   4.960
26300WAT     H279143   4.239   0.162   4.987
26301WAT      O79144   5.619   0.644   7.822
26301WAT     H179145   5.657   0.598   7.902
26301WAT     H279146   5.528   0.608   7.802
26302WAT      O79147   1.278   0.120   3.796
26302WAT     H179148   1.227   0.172   3.727
26302WAT     H279149   1.217   0.054   3.840
26303WAT      O79150   9.269   7.051   1.854
26303WAT     H179151   9.256   7.113   1.931
26303WAT     H279152   9.223   7.089   1.773
26304WAT      O79153   7.406   9.834   6.446
26304WAT     H179154   7.361   9.830   6.357
26304WAT     H279155   7.473   9.908   6.446
26305WAT      O79156   4.986   7.267   0.498
26305WAT     H179157   4.983   7.307   0.589
26305WAT     H279158   4.892   7.259   0.462
26306WAT      O79159   5.591   2.373   6.285
26306WAT     H179160   5.623   2.379   6.379
26306WAT     H279161   5.612   2.458   6.237
26307WAT      O79162   2.600   4.543   0.324
26307WAT     H179163   2.527   4.486   0.362
26307WAT     H279164   2.571   4.639   0.325
26308WAT      O79165   7.326   3.658   0.075
26308WAT     H179166   7.402   3.693   0.131
26308WAT     H279167   7.249   3.721   0.081
26309WAT      O79168   3.012   1.316   0.194
26309WAT     H179169   3.038   1.405   0.231
26309WAT     H279170   3.094   1.267   0.164
26310WAT      O79171   2.240   0.827   5.072
26310WAT     H179172   2.181   0.859   5.146
26310WAT     H279173   2.314   0.893   5.058
26311WAT      O79174   0.668   4.518   7.293
26311WAT     H179175   0.700   4.424   7.309
26311WAT     H279176   0.661   4.535   7.195
26312WAT      O79177   2.988   4.842   5.270
26312WAT     H179178   2.941   4.754   5.276
26312WAT     H279179   3.048   4.843   5.191
26313WAT      O79180   9.233   1.201   8.066
26313WAT     H179181   9.192   1.120   8.024
26313WAT     H279182   9.263   1.179   8.158
26314WAT      O79183   7.017   7.356   1.589
26314WAT     H179184   7.035   7.321   1.497
26314WAT     H279185   6.981   7.282   1.646
26315WAT      O79186   6.188   6.701   7.841
26315WAT     H179187   6.178   6.627   7.773
26315WAT     H279188   6.272   6.687   7.893
26316WAT      O79189   8.884   7.201   4.190
26316WAT     H179190   8.865   7.286   4.141
26316WAT     H279191   8.863   7.123   4.131
26317WAT      O79192   2.074   5.206   0.559
26317WAT     H179193   2.052   5.171   0.468
26317WAT     H279194   2.097   5.304   0.552
26318WAT      O79195   7.221   5.253   9.610
26318WAT     H179196   7.265   5.201   9.684
26318WAT     H279197   7.282   5.327   9.582
26319WAT      O79198   4.819   8.012   2.010
26319WAT     H179199   4.913   8.026   1.979
26319WAT     H279200   4.797   8.079   2.082
26320WAT      O79201   1.323   7.703   7.564
26320WAT     H179202   1.301   7.606   7.578
26320WAT     H279203   1.303   7.728   7.469
26321WAT      O79204   0.887   8.314   2.113
26321WAT     H179205   0.906   8.309   2.211
26321WAT     H279206   0.893   8.223   2.073
26322WAT      O79207   7.754   9.706   2.843
26322WAT     H179208   7.662   9.678   2.812
26322WAT     H279209   7.822   9.667   2.781
26323WAT      O79210   3.019   4.566   3.656
26323WAT     H179211   3.117   4.581   3.645
26323WAT     H279212   2.981   4.636   3.716
26324WAT      O79213   3.516   5.672   2.126
26324WAT     H179214   3.437   5.647   2.183
26324WAT     H279215   3.591   5.608   2.143
26325WAT      O79216   9.324   1.376   5.896
26325WAT     H179217   9.339   1.457   5.838
26325WAT     H279218   9.284   1.303   5.840
26326WAT      O79219   3.298   0.061   4.683
26326WAT     H179220   3.272   0.016   4.598
26326WAT     H279221   3.216   0.097   4.728
26327WAT      O79222   1.783   1.533   4.279
26327WAT     H179223   1.693   1.576   4.276
26327WAT     H279224   1.843   1.578   4.213
26328WAT      O79225   8.454   5.861   7.711
26328WAT     H179226   8.364   5.886   7.746
26328WAT     H279227   8.451   5.858   7.611
26329WAT      O79228   5.192   7.124   7.352
26329WAT     H179229   5.290   7.109   7.360
26329WAT     H279230   5.169   7.145   7.257
26330WAT      O79231   3.312   4.047   7.691
26330WAT     H179232   3.327   4.042   7.592
26330WAT     H279233   3.329   3.958   7.732
26331WAT      O79234   3.841   0.832   9.365
26331WAT     H179235   3.775   0.773   9.410
26331WAT     H279236   3.851   0.805   9.269
26332WAT      O79237   8.590   3.717   0.431
26332WAT     H179238   8.597   3.621   0.460
26332WAT     H279239   8.645   3.731   0.349
26333WAT      O79240   0.057   0.203   6.728
26333WAT     H179241   0.082   0.120   6.779
26333WAT     H279242  -0.040   0.201   6.706
26334WAT      O79243   0.183   3.517   9.891
26334WAT     H179244   0.281   3.501   9.882
26334WAT     H279245   0.166   3.616   9.897
26335WAT      O79246   8.825   4.192   0.052
26335WAT     H179247   8.856   4.133  -0.022
26335WAT     H279248   8.767   4.264   0.015
26336WAT      O79249   2.597   1.705   8.160
26336WAT     H179250   2.630   1.789   8.116
26336WAT     H279251   2.674   1.646   8.183
26337WAT      O79252   2.040   1.233   8.455
26337WAT     H179253   2.127   1.265   8.494
26337WAT     H279254   1.982   1.312   8.434
26338WAT      O79255   4.268   8.983   4.418
26338WAT     H179256   4.297   9.025   4.504
26338WAT     H279257   4.180   8.936   4.432
26339WAT      O79258   4.159   3.340   6.904
26339WAT     H179259   4.233   3.392   6.946
26339WAT     H279260   4.084   3.402   6.879
26340WAT      O79261   4.245   0.816   3.852
26340WAT     H179262   4.299   0.786   3.930
26340WAT     H279263   4.149   0.794   3.868
26341WAT      O79264   5.426   2.097   6.242
26341WAT     H179265   5.348   2.120   6.301
26341WAT     H279266   5.493   2.171   6.244
26342WAT      O79267   1.921   8.744   1.683
26342WAT     H179268   1.826   8.723   1.661
26342WAT     H279269   1.977   8.737   1.600
26343WAT      O79270   9.061   2.864   6.714
26343WAT     H179271   9.092   2.778   6.753
26343WAT     H279272   9.047   2.853   6.615
26344WAT      O79273   1.359   4.685   4.209
26344WAT     H179274   1.452   4.715   4.228
26344WAT     H279275   1.299   4.713   4.284
26345WAT      O79276   4.968   4.975   0.112
26345WAT     H179277   5.014   4.929   0.036
26345WAT     H279278   5.000   4.936   0.199
26346WAT      O79279   3.012   6.947   1.317
26346WAT     H179280   2.946   6.918   1.386
26346WAT     H279281   3.090   6.990   1.361
26347WAT      O79282   5.885   2.118   0.259
26347WAT     H179283   5.946   2.169   0.320
26347WAT     H279284   5.934   2.096   0.175
26348WAT      O79285   0.286   5.955   4.606
26348WAT     H179286   0.330   6.021   4.545
26348WAT     H279287   0.339   5.870   4.608
26349WAT      O79288   3.388   8.100   4.362
26349WAT     H179289   3.374   8.007   4.396
26349WAT     H279290   3.387   8.164   4.438
26350WAT      O79291   6.286   6.898   2.620
26350WAT     H179292   6.241   6.840   2.552
26350WAT     H279293   6.248   6.879   2.711
26351WAT      O79294   3.276   8.764   8.303
26351WAT     H179295   3.334   8.771   8.221
26351WAT     H279296   3.291   8.675   8.346
26352WAT      O79297   3.622   3.382   0.784
26352WAT     H179298   3.602   3.331   0.700
26352WAT     H279299   3.537   3.413   0.825
26353WAT      O79300   4.561   8.248   2.014
26353WAT     H179301   4.568   8.310   1.936
26353WAT     H279302   4.501   8.171   1.991
26354WAT      O79303   3.939   6.131   2.110
26354WAT     H179304   3.984   6.139   2.199
26354WAT     H279305   3.840   6.140   2.122
26355WAT      O79306   4.919   3.539   7.941
26355WAT     H179307   4.854   3.525   7.867
26355WAT     H279308   5.007   3.567   7.903
26356WAT      O79309   2.171   3.465   5.878
26356WAT     H179310   2.248   3.412   5.844
26356WAT     H279311   2.097   3.464   5.811
26357WAT      O79312   6.870   7.769   2.385
26357WAT     H179313   6.930   7.750   2.463
26357WAT     H279314   6.892   7.859   2.347
26358WAT      O79315   0.746   4.964   1.124
26358WAT     H179316   0.683   4.983   1.199
26358WAT     H279317   0.694   4.940   1.042
26359WAT      O79318   5.883   3.794   0.634
26359WAT     H179319   5.867   3.696   0.645
26359WAT     H279320   5.799   3.838   0.601
26360WAT      O79321   7.634   2.872   9.580
26360WAT     H179322   7.687   2.840   9.501
26360WAT     H279323   7.586   2.794   9.621
26361WAT      O79324   9.227   0.438   9.618
26361WAT     H179325   9.196   0.504   9.686
26361WAT     H279326   9.196   0.467   9.527
26362WAT      O79327   7.604   3.592   5.615
26362WAT     H179328   7.691   3.636   5.589
26362WAT     H279329   7.617   3.541   5.700
26363WAT      O79330   7.768   0.882   9.783
26363WAT     H179331   7.740   0.874   9.687
26363WAT     H279332   7.715   0.955   9.827
26364WAT      O79333   8.476   8.047   8.025
26364WAT     H179334   8.460   8.101   8.108
26364WAT     H279335   8.388   8.016   7.989
26365WAT      O79336   4.763   6.044   4.511
26365WAT     H179337   4.748   5.945   4.507
26365WAT     H279338   4.677   6.090   4.531
26366WAT      O79339   5.535   7.411   9.738
26366WAT     H179340   5.600   7.342   9.769
26366WAT     H279341   5.445   7.393   9.778
26367WAT      O79342   4.860   6.522   7.215
26367WAT     H179343   4.882   6.517   7.118
26367WAT     H279344   4.944   6.536   7.268
26368WAT      O79345   5.630   2.295   1.666
26368WAT     H179346   5.612   2.335   1.755
26368WAT     H279347   5.607   2.197   1.668
26369WAT      O79348   3.057   7.008   8.439
26369WAT     H179349   3.051   6.986   8.341
26369WAT     H279350   3.083   6.926   8.490
26370WAT      O79351   8.161   6.297   0.245
26370WAT     H179352   8.229   6.346   0.191
26370WAT     H279353   8.115   6.229   0.188
26371WAT      O79354   6.949   8.653   8.127
26371WAT     H179355   7.048   8.643   8.121
26371WAT     H279356   6.927   8.746   8.158
26372WAT      O79357   8.893   9.015   4.220
26372WAT     H179358   8.837   9.095   4.240
26372WAT     H279359   8.837   8.946   4.174
26373WAT      O79360   8.709   1.754   0.345
26373WAT     H179361   8.676   1.822   0.279
26373WAT     H279362   8.780   1.795   0.402
26374WAT      O79363   4.328   0.700   1.808
26374WAT     H179364   4.408   0.722   1.752
26374WAT     H279365   4.344   0.614   1.857
26375WAT      O79366   3.160   1.100   4.014
26375WAT     H179367   3.066   1.111   3.984
26375WAT     H279368   3.205   1.189   4.016
26376WAT      O79369   3.871   0.144   5.262
26376WAT     H179370   3.944   0.203   5.228
26376WAT     H279371   3.895   0.048   5.245
26377WAT      O79372   6.318   1.030   3.540
26377WAT     H179373   6.240   1.012   3.601
26377WAT     H279374   6.352   0.944   3.503
26378WAT      O79375   8.918   4.351   1.051
26378WAT     H179376   8.937   4.419   1.121
26378WAT     H279377   8.823   4.320   1.061
26379WAT      O79378   0.369   9.198   9.051
26379WAT     H179379   0.424   9.140   8.991
26379WAT     H279380   0.427   9.237   9.122
26380WAT      O79381   9.236   0.174   7.805
26380WAT     H179382   9.249   0.113   7.883
26380WAT     H279383   9.159   0.142   7.750
26381WAT      O79384   3.848   5.068   0.741
26381WAT     H179385   3.847   4.993   0.675
26381WAT     H279386   3.877   5.034   0.830
26382WAT      O79387   4.276   5.481   8.243
26382WAT     H179388   4.350   5.472   8.310
26382WAT     H279389   4.311   5.458   8.152
26383WAT      O79390   2.681   9.489   1.222
26383WAT     H179391   2.588   9.462   1.196
26383WAT     H279392   2.745   9.417   1.196
26384WAT      O79393   2.711   6.069   6.263
26384WAT     H179394   2.731   6.145   6.201
26384WAT     H279395   2.614   6.072   6.289
26385WAT      O79396   9.696   3.222   0.939
26385WAT     H179397   9.793   3.196   0.935
26385WAT     H279398   9.673   3.247   1.033
26386WAT      O79399   9.780   2.442   9.680
26386WAT     H179400   9.747   2.382   9.753
26386WAT     H279401   9.799   2.533   9.718
26387WAT      O79402   1.115   7.005   1.152
26387WAT     H179403   1.210   7.029   1.173
26387WAT     H279404   1.069   7.085   1.114
26388WAT      O79405   9.421   8.534   6.070
26388WAT     H179406   9.430   8.478   5.987
26388WAT     H279407   9.415   8.474   6.150
26389WAT      O79408   5.840   7.989   3.816
26389WAT     H179409   5.813   8.056   3.746
26389WAT     H279410   5.887   8.036   3.890
26390WAT      O79411   8.411   0.472   6.437
26390WAT     H179412   8.406   0.522   6.523
26390WAT     H279413   8.474   0.394   6.448
26391WAT      O79414   5.656   5.109   8.727
26391WAT     H179415   5.650   5.016   8.690
26391WAT     H279416   5.705   5.108   8.813
26392WAT      O79417   2.844   0.486   0.686
26392WAT     H179418   2.843   0.582   0.659
26392WAT     H279419   2.779   0.434   0.631
26393WAT      O79420   2.520   8.060   5.281
26393WAT     H179421   2.602   8.022   5.322
26393WAT     H279422   2.440   8.009   5.314
26394WAT      O79423   7.323   1.769   7.645
26394WAT     H179424   7.330   1.858   7.599
26394WAT     H279425   7.414   1.741   7.675
26395WAT      O79426   0.310   2.258   5.563
26395WAT     H179427   0.346   2.308   5.642
26395WAT     H279428   0.225   2.211   5.589
26396WAT      O79429   3.695   3.231   0.490
26396WAT     H179430   3.728   3.325   0.490
26396WAT     H279431   3.595   3.230   0.492
26397WAT      O79432   1.609   7.960   2.366
26397WAT     H179433   1.684   7.998   2.312
26397WAT     H279434   1.639   7.876   2.411
26398WAT      O79435   5.050   9.846   1.008
26398WAT     H179436   5.085   9.753   1.019
26398WAT     H279437   5.037   9.888   1.098
26399WAT      O79438   1.037   4.638   5.546
26399WAT     H179439   1.030   4.658   5.448
26399WAT     H279440   1.120   4.681   5.583
26400WAT      O79441   4.611   5.089   4.518
26400WAT     H179442   4.701   5.089   4.475
26400WAT     H279443   4.603   5.009   4.577
26401WAT      O79444   7.482   2.450   1.624
26401WAT     H179445   7.533   2.480   1.544
26401WAT     H279446   7.432   2.527   1.663
26402WAT      O79447   7.629   7.134   8.462
26402WAT     H179448   7.659   7.050   8.507
26402WAT     H279449   7.535   7.155   8.489
26403WAT      O79450   0.276   3.081   2.010
26403WAT     H179451   0.223   3.126   1.939
26403WAT     H279452   0.227   2.999   2.041
26404WAT      O79453   3.221   6.513   7.071
26404WAT     H179454   3.168   6.594   7.094
26404WAT     H279455   3.316   6.525   7.101
26405WAT      O79456   9.182   7.108   6.994
26405WAT     H179457   9.087   7.083   7.011
26405WAT     H279458   9.221   7.149   7.076
26406WAT      O79459   5.482   1.084   6.172
26406WAT     H179460   5.552   1.017   6.197
26406WAT     H279461   5.485   1.099   6.073
26407WAT      O79462   4.352   7.774   6.312
26407WAT     H179463   4.353   7.855   6.371
26407WAT     H279464   4.443   7.733   6.310
26408WAT      O79465   2.197   8.265   0.438
26408WAT     H179466   2.182   8.314   0.353
26408WAT     H279467   2.266   8.312   0.493
26409WAT      O79468   4.735   9.175   6.605
26409WAT     H179469   4.835   9.178   6.615
26409WAT     H279470   4.693   9.190   6.695
26410WAT      O79471   5.837   4.243   1.830
26410WAT     H179472   5.876   4.151   1.826
26410WAT     H279473   5.787   4.261   1.745
26411WAT      O79474   8.470   0.389   7.010
26411WAT     H179475   8.395   0.357   6.953
26411WAT     H279476   8.503   0.477   6.975
26412WAT      O79477   7.735   7.377   3.789
26412WAT     H179478   7.688   7.289   3.794
26412WAT     H279479   7.668   7.450   3.800
26413WAT      O79480   5.580   4.592   6.399
26413WAT     H179481   5.640   4.659   6.355
26413WAT     H279482   5.529   4.636   6.473
26414WAT      O79483   9.002   6.910   2.089
26414WAT     H179484   9.099   6.936   2.096
26414WAT     H279485   8.954   6.978   2.033
26415WAT      O79486   4.106   5.053   8.379
26415WAT     H179487   4.087   5.012   8.290
26415WAT     H279488   4.109   5.152   8.371
26416WAT      O79489   4.341   1.940   9.481
26416WAT     H179490   4.329   1.961   9.578
26416WAT     H279491   4.381   2.019   9.434
26417WAT      O79492   0.853   1.409   2.431
26417WAT     H179493   0.925   1.403   2.361
26417WAT     H279494   0.872   1.486   2.492
26418WAT      O79495   5.628   9.618   1.865
26418WAT     H179496   5.642   9.569   1.779
26418WAT     H279497   5.658   9.560   1.941
26419WAT      O79498   4.026   2.760   4.457
26419WAT     H179499   4.043   2.836   4.520
26419WAT     H279500   4.031   2.793   4.363
26420WAT      O79501   1.530   9.662   7.441
26420WAT     H179502   1.512   9.675   7.343
26420WAT     H279503   1.534   9.564   7.461
26421WAT      O79504   7.058   5.688   0.194
26421WAT     H179505   7.130   5.727   0.252
26421WAT     H279506   7.032   5.598   0.230
26422WAT      O79507   4.210   6.137   8.202
26422WAT     H179508   4.114   6.119   8.182
26422WAT     H279509   4.226   6.236   8.200
26423WAT      O79510   4.295   4.014   8.729
26423WAT     H179511   4.305   4.017   8.828
26423WAT     H279512   4.360   4.077   8.687
26424WAT      O79513   7.706   4.765   0.069
26424WAT     H179514   7.767   4.788   0.144
26424WAT     H279515   7.644   4.692   0.098
26425WAT      O79516   5.765   2.505   7.767
26425WAT     H179517   5.763   2.590   7.820
26425WAT     H279518   5.825   2.439   7.811
26426WAT      O79519   7.070   8.796   2.854
26426WAT     H179520   7.019   8.726   2.805
26426WAT     H279521   7.114   8.755   2.934
26427WAT      O79522   5.617   0.899   1.827
26427WAT     H179523   5.570   0.832   1.770
26427WAT     H279524   5.662   0.853   1.903
26428WAT      O79525   1.689   6.035   7.149
26428WAT     H179526   1.731   6.121   7.180
26428WAT     H279527   1.589   6.044   7.154
26429WAT      O79528   9.175   1.263   7.276
26429WAT     H179529   9.204   1.270   7.371
26429WAT     H279530   9.135   1.350   7.246
26430WAT      O79531   7.976   3.721   9.014
26430WAT     H179532   7.982   3.808   9.064
26430WAT     H279533   7.893   3.720   8.959
26431WAT      O79534   5.156   0.685   9.086
26431WAT     H179535   5.091   0.644   9.150
26431WAT     H279536   5.152   0.636   8.999
26432WAT      O79537   4.899   2.343   9.222
26432WAT     H179538   4.926   2.359   9.128
26432WAT     H279539   4.931   2.419   9.279
26433WAT      O79540   8.459   1.314   2.268
26433WAT     H179541   8.389   1.347   2.204
26433WAT     H279542   8.499   1.392   2.316
26434WAT      O79543   1.850   2.627   9.039
26434WAT     H179544   1.835   2.686   8.960
26434WAT     H279545   1.915   2.555   9.015
26435WAT      O79546   9.780   4.736   6.324
26435WAT     H179547   9.833   4.782   6.396
26435WAT     H279548   9.686   4.770   6.325
26436WAT      O79549   1.412   0.109   6.468
26436WAT     H179550   1.325   0.070   6.499
26436WAT     H279551   1.414   0.111   6.368
26437WAT      O79552   5.803   3.778   9.366
26437WAT     H179553   5.884   3.818   9.408
26437WAT     H279554   5.810   3.678   9.366
26438WAT      O79555   1.707   3.453   5.796
26438WAT     H179556   1.652   3.524   5.840
26438WAT     H279557   1.652   3.405   5.727
26439WAT      O79558   7.691   8.914   2.720
26439WAT     H179559   7.772   8.912   2.661
26439WAT     H279560   7.609   8.903   2.665
26440WAT      O79561   9.565   2.775   4.037
26440WAT     H179562   9.585   2.760   4.134
26440WAT     H279563   9.528   2.867   4.026
26441WAT      O79564   7.617   0.757   7.695
26441WAT     H179565   7.573   0.843   7.721
26441WAT     H279566   7.649   0.763   7.600
26442WAT      O79567   8.907   7.192   0.931
26442WAT     H179568   8.968   7.195   0.852
26442WAT     H279569   8.821   7.237   0.908
26443WAT      O79570   7.807   6.929   0.347
26443WAT     H179571   7.805   6.834   0.376
26443WAT     H279572   7.899   6.967   0.362
26444WAT      O79573   7.004   1.492   4.780
26444WAT     H179574   7.011   1.420   4.710
26444WAT     H279575   7.031   1.455   4.869
26445WAT      O79576   7.759   6.818   5.572
26445WAT     H179577   7.853   6.824   5.607
26445WAT     H279578   7.695   6.839   5.646
26446WAT      O79579   2.379   6.646   4.445
26446WAT     H179580   2.352   6.642   4.541
26446WAT     H279581   2.449   6.717   4.433
26447WAT      O79582   8.499   9.476   8.854
26447WAT     H179583   8.420   9.480   8.915
26447WAT     H279584   8.582   9.458   8.907
26448WAT      O79585   6.221   7.164   2.636
26448WAT     H179586   6.265   7.076   2.621
26448WAT     H279587   6.121   7.152   2.632
26449WAT      O79588   8.111   4.579   7.145
26449WAT     H179589   8.070   4.509   7.087
26449WAT     H279590   8.096   4.556   7.241
26450WAT      O79591   5.632   2.803   5.317
26450WAT     H179592   5.545   2.775   5.358
26450WAT     H279593   5.708   2.765   5.369
26451WAT      O79594   6.183   5.577   2.078
26451WAT     H179595   6.116   5.521   2.030
26451WAT     H279596   6.263   5.521   2.102
26452WAT      O79597   2.427   7.583   8.991
26452WAT     H179598   2.448   7.675   8.958
26452WAT     H279599   2.330   7.563   8.975
26453WAT      O79600   1.899   4.688   2.706
26453WAT     H179601   1.854   4.740   2.633
26453WAT     H279602   1.860   4.596   2.711
26454WAT      O79603   8.690   2.013   1.592
26454WAT     H179604   8.788   2.028   1.586
26454WAT     H279605   8.653   2.063   1.671
26455WAT      O79606   3.770   1.523   2.935
26455WAT     H179607   3.807   1.436   2.968
26455WAT     H279608   3.681   1.540   2.977
26456WAT      O79609   4.101   8.532   5.311
26456WAT     H179610   4.175   8.596   5.333
26456WAT     H279611   4.124   8.441   5.347
26457WAT      O79612   2.829   2.618   2.168
26457WAT     H179613   2.913   2.672   2.166
26457WAT     H279614   2.755   2.670   2.125
26458WAT      O79615   1.302   7.422   6.722
26458WAT     H179616   1.332   7.498   6.780
26458WAT     H279617   1.219   7.449   6.672
26459WAT      O79618   6.088   0.769   6.586
26459WAT     H179619   6.094   0.714   6.503
26459WAT     H279620   6.167   0.749   6.645
26460WAT      O79621   3.970   6.860   3.612
26460WAT     H179622   3.931   6.849   3.521
26460WAT     H279623   3.980   6.770   3.655
26461WAT      O79624   8.548   7.062   8.258
26461WAT     H179625   8.502   6.991   8.204
26461WAT     H279626   8.607   7.117   8.199
26462WAT      O79627   3.297   3.363   5.911
26462WAT     H179628   3.217   3.411   5.946
26462WAT     H279629   3.358   3.428   5.866
26463WAT      O79630   5.768   3.215   3.013
26463WAT     H179631   5.845   3.168   3.055
26463WAT     H279632   5.682   3.183   3.053
26464WAT      O79633   5.198   6.086   0.994
26464WAT     H179634   5.221   5.990   1.009
26464WAT     H279635   5.259   6.124   0.924
26465WAT      O79636   8.240   7.771   9.795
26465WAT     H179637   8.261   7.839   9.864
26465WAT     H279638   8.273   7.681   9.825
26466WAT      O79639   2.241   9.073   5.304
26466WAT     H179640   2.339   9.068   5.284
26466WAT     H279641   2.223   9.035   5.394
26467WAT      O79642   8.719   7.397   7.092
26467WAT     H179643   8.648   7.328   7.082
26467WAT     H279644   8.714   7.438   7.183
26468WAT      O79645   2.403   4.443   9.734
26468WAT     H179646   2.345   4.515   9.771
26468WAT     H279647   2.469   4.483   9.671
26469WAT      O79648   2.153   2.507   2.541
26469WAT     H179649   2.140   2.606   2.538
26469WAT     H279650   2.240   2.486   2.587
26470WAT      O79651   9.134   2.050   0.333
26470WAT     H179652   9.172   2.034   0.242
26470WAT     H279653   9.165   1.979   0.395
26471WAT      O79654   8.601   6.573   4.701
26471WAT     H179655   8.525   6.532   4.649
26471WAT     H279656   8.599   6.672   4.690
26472WAT      O79657   7.896   9.767   5.718
26472WAT     H179658   7.850   9.845   5.675
26472WAT     H279659   7.848   9.743   5.803
26473WAT      O79660   7.955   1.793   3.484
26473WAT     H179661   8.011   1.818   3.405
26473WAT     H279662   7.858   1.794   3.457
26474WAT      O79663   0.118   2.771   2.461
26474WAT     H179664   0.033   2.719   2.465
26474WAT     H279665   0.165   2.752   2.374
26475WAT      O79666   9.881   8.168   5.061
26475WAT     H179667   9.905   8.200   4.969
26475WAT     H279668   9.887   8.068   5.064
26476WAT      O79669   0.364   0.091   7.665
26476WAT     H179670   0.344   0.184   7.636
26476WAT     H279671   0.385   0.035   7.585
26477WAT      O79672   2.271   9.086   6.804
26477WAT     H179673   2.314   9.176   6.799
26477WAT     H279674   2.172   9.095   6.792
26478WAT      O79675   0.024   4.297   6.380
26478WAT     H179676   0.098   4.363   6.374
26478WAT     H279677  -0.064   4.344   6.373
26479WAT      O79678   4.864   6.938   7.728
26479WAT     H179679   4.847   6.884   7.646
26479WAT     H279680   4.793   6.918   7.796
26480WAT      O79681   1.503   5.501   0.501
26480WAT     H179682   1.572   5.428   0.506
26480WAT     H279683   1.443   5.484   0.423
26481WAT      O79684   6.518   4.367   9.643
26481WAT     H179685   6.444   4.302   9.659
26481WAT     H279686   6.490   4.458   9.673
26482WAT      O79687   8.463   3.289   2.476
26482WAT     H179688   8.452   3.192   2.456
26482WAT     H279689   8.378   3.337   2.455
26483WAT      O79690   6.128   0.634   9.623
26483WAT     H179691   6.130   0.729   9.653
26483WAT     H279692   6.038   0.594   9.643
26484WAT      O79693   2.686   2.430   4.140
26484WAT     H179694   2.747   2.397   4.212
26484WAT     H279695   2.739   2.457   4.060
26485WAT      O79696   2.529   6.887   9.728
26485WAT     H179697   2.617   6.914   9.768
26485WAT     H279698   2.533   6.790   9.701
26486WAT      O79699   4.165   0.656   6.756
26486WAT     H179700   4.178   0.562   6.787
26486WAT     H279701   4.204   0.719   6.824
26487WAT      O79702   9.030   8.566   1.500
26487WAT     H179703   9.044   8.472   1.529
26487WAT     H279704   9.008   8.569   1.402
26488WAT      O79705   1.191   3.464   0.590
26488WAT     H179706   1.185   3.421   0.500
26488WAT     H279707   1.228   3.557   0.579
26489WAT      O79708   2.228   4.571   9.318
26489WAT     H179709   2.230   4.493   9.380
26489WAT     H279710   2.137   4.579   9.277
26490WAT      O79711   4.401   7.844   0.244
26490WAT     H179712   4.383   7.747   0.255
26490WAT     H279713   4.498   7.862   0.259
26491WAT      O79714   9.659   9.414   2.085
26491WAT     H179715   9.688   9.350   2.156
26491WAT     H279716   9.697   9.504   2.103
26492WAT      O79717   2.749   3.220   4.391
26492WAT     H179718   2.740   3.312   4.355
26492WAT     H279719   2.829   3.176   4.351
26493WAT      O79720   1.376   3.371   4.434
26493WAT     H179721   1.340   3.459   4.464
26493WAT     H279722   1.313   3.329   4.369
26494WAT      O79723   1.425   5.151   1.792
26494WAT     H179724   1.481   5.233   1.798
26494WAT     H279725   1.376   5.150   1.705
26495WAT      O79726   1.934   0.224   0.383
26495WAT     H179727   1.903   0.202   0.290
26495WAT     H279728   2.028   0.258   0.378
26496WAT      O79729   5.284   7.209   4.081
26496WAT     H179730   5.283   7.253   3.992
26496WAT     H279731   5.346   7.130   4.079
26497WAT      O79732   5.072   3.818   8.553
26497WAT     H179733   5.033   3.762   8.480
26497WAT     H279734   5.021   3.803   8.638
26498WAT      O79735   6.829   1.227   1.438
26498WAT     H179736   6.836   1.270   1.528
26498WAT     H279737   6.853   1.130   1.444
26499WAT      O79738   0.044   7.198   2.549
26499WAT     H179739   0.108   7.247   2.490
26499WAT     H279740  -0.027   7.261   2.580
26500WAT      O79741   5.547   5.549   0.464
26500WAT     H179742   5.485   5.607   0.411
26500WAT     H279743   5.632   5.537   0.413
26501WAT      O79744   2.121   0.143   9.592
26501WAT     H179745   2.119   0.043   9.592
26501WAT     H279746   2.079   0.177   9.676
26502WAT      O79747   4.146   6.298   1.084
26502WAT     H179748   4.166   6.312   1.181
26502WAT     H279749   4.047   6.302   1.070
26503WAT      O79750   9.571   8.631   3.549
26503WAT     H179751   9.603   8.577   3.627
26503WAT     H279752   9.558   8.726   3.577
26504WAT      O79753   1.675   1.376   5.531
26504WAT     H179754   1.631   1.294   5.495
26504WAT     H279755   1.738   1.413   5.462
26505WAT      O79756   8.181   5.419   8.309
26505WAT     H179757   8.153   5.515   8.312
26505WAT     H279758   8.279   5.412   8.291
26506WAT      O79759   0.248   2.379   7.275
26506WAT     H179760   0.330   2.386   7.217
26506WAT     H279761   0.271   2.404   7.369
26507WAT      O79762   0.412   4.437   4.796
26507WAT     H179763   0.447   4.500   4.867
26507WAT     H279764   0.456   4.348   4.807
26508WAT      O79765   7.746   5.880   7.427
26508WAT     H179766   7.735   5.792   7.473
26508WAT     H279767   7.751   5.953   7.496
26509WAT      O79768   9.133   6.008   1.152
26509WAT     H179769   9.114   5.940   1.223
26509WAT     H279770   9.047   6.048   1.121
26510WAT      O79771   4.601   5.310   0.613
26510WAT     H179772   4.603   5.231   0.675
26510WAT     H279773   4.529   5.372   0.642
26511WAT      O79774   9.890   9.526   0.153
26511WAT     H179775   9.875   9.483   0.064
26511WAT     H279776   9.867   9.461   0.225
26512WAT      O79777   0.616   9.131   8.426
26512WAT     H179778   0.577   9.171   8.342
26512WAT     H279779   0.572   9.173   8.505
26513WAT      O79780   6.318   6.031   0.913
26513WAT     H179781   6.360   6.092   0.845
26513WAT     H279782   6.366   5.943   0.914
26514WAT      O79783   0.825   2.533   8.136
26514WAT     H179784   0.772   2.510   8.054
26514WAT     H279785   0.922   2.514   8.118
26515WAT      O79786   2.181   4.367   5.674
26515WAT     H179787   2.089   4.327   5.668
26515WAT     H279788   2.217   4.383   5.583
26516WAT      O79789   7.091   5.101   5.559
26516WAT     H179790   7.158   5.028   5.572
26516WAT     H279791   7.023   5.098   5.633
26517WAT      O79792   4.681   4.293   9.822
26517WAT     H179793   4.769   4.336   9.842
26517WAT     H279794   4.638   4.264   9.908
26518WAT      O79795   1.365   1.179   3.574
26518WAT     H179796   1.379   1.246   3.647
26518WAT     H279797   1.346   1.227   3.488
26519WAT      O79798   9.489   3.790   0.847
26519WAT     H179799   9.523   3.763   0.757
26519WAT     H279800   9.461   3.708   0.897
26520WAT      O79801   9.454   8.921   3.553
26520WAT     H179802   9.365   8.959   3.530
26520WAT     H279803   9.503   8.898   3.469
26521WAT      O79804   4.070   7.399   2.321
26521WAT     H179805   4.060   7.489   2.277
26521WAT     H279806   3.997   7.339   2.290
26522WAT      O79807   4.106   4.856   5.244
26522WAT     H179808   4.200   4.889   5.249
26522WAT     H279809   4.087   4.821   5.152
26523WAT      O79810   9.147   0.090   3.607
26523WAT     H179811   9.058   0.045   3.598
26523WAT     H279812   9.136   0.173   3.662
26524WAT      O79813   8.023   8.188   9.822
26524WAT     H179814   7.961   8.146   9.756
26524WAT     H279815   8.105   8.221   9.775
26525WAT      O79816   3.763   6.770   4.998
26525WAT     H179817   3.810   6.850   5.037
26525WAT     H279818   3.672   6.797   4.967
26526WAT      O79819   4.387   2.503   3.871
26526WAT     H179820   4.365   2.596   3.842
26526WAT     H279821   4.425   2.453   3.793
26527WAT      O79822   5.678   3.286   1.381
26527WAT     H179823   5.620   3.362   1.408
26527WAT     H279824   5.714   3.303   1.289
26528WAT      O79825   7.629   4.479   0.545
26528WAT     H179826   7.689   4.516   0.474
26528WAT     H279827   7.549   4.437   0.502
26529WAT      O79828   6.038   2.602   9.370
26529WAT     H179829   6.105   2.530   9.350
26529WAT     H279830   5.961   2.564   9.420
26530WAT      O79831   8.013   3.840   5.021
26530WAT     H179832   7.917   3.861   5.001
26530WAT     H279833   8.024   3.826   5.119
26531WAT      O79834   0.767   5.294   6.793
26531WAT     H179835   0.863   5.276   6.814
26531WAT     H279836   0.758   5.317   6.696
26532WAT      O79837   3.715   8.204   7.641
26532WAT     H179838   3.799   8.152   7.627
26532WAT     H279839   3.699   8.215   7.739
26533WAT      O79840   8.509   3.910   7.870
26533WAT     H179841   8.520   3.906   7.970
26533WAT     H279842   8.564   3.838   7.828
26534WAT      O79843   6.407   8.496   2.442
26534WAT     H179844   6.390   8.574   2.381
26534WAT     H279845   6.365   8.414   2.405
26535WAT      O79846   8.603   2.157   7.334
26535WAT     H179847   8.523   2.166   7.394
26535WAT     H279848   8.605   2.064   7.296
26536WAT      O79849   2.280   2.632   7.136
26536WAT     H179850   2.262   2.716   7.188
26536WAT     H279851   2.201   2.571   7.143
26537WAT      O79852   5.573   1.667   2.785
26537WAT     H179853   5.664   1.658   2.827
26537WAT     H279854   5.539   1.576   2.761
26538WAT      O79855   7.295   5.664   0.884
26538WAT     H179856   7.391   5.685   0.867
26538WAT     H279857   7.267   5.586   0.828
26539WAT      O79858   3.097   8.927   4.544
26539WAT     H179859   3.186   8.903   4.504
26539WAT     H279860   3.107   8.940   4.642
26540WAT      O79861   8.011   7.226   4.273
26540WAT     H179862   8.006   7.310   4.327
26540WAT     H279863   7.994   7.148   4.332
26541WAT      O79864   1.458   8.049   5.047
26541WAT     H179865   1.385   8.117   5.053
26541WAT     H279866   1.435   7.971   5.104
26542WAT      O79867   3.759   0.826   3.022
26542WAT     H179868   3.724   0.790   2.935
26542WAT     H279869   3.747   0.925   3.023
26543WAT      O79870   8.280   5.267   2.258
26543WAT     H179871   8.196   5.282   2.310
26543WAT     H279872   8.259   5.218   2.173
26544WAT      O79873   8.678   5.667   1.765
26544WAT     H179874   8.665   5.591   1.829
26544WAT     H279875   8.649   5.638   1.673
26545WAT      O79876   5.008   7.116   5.956
26545WAT     H179877   5.096   7.117   5.908
26545WAT     H279878   4.936   7.087   5.894
26546WAT      O79879   5.638   1.312   6.409
26546WAT     H179880   5.648   1.290   6.313
26546WAT     H279881   5.727   1.336   6.448
26547WAT      O79882   7.924   5.078   7.472
26547WAT     H179883   7.886   4.997   7.428
26547WAT     H279884   7.971   5.052   7.556
26548WAT      O79885   4.391   1.538   2.753
26548WAT     H179886   4.341   1.549   2.667
26548WAT     H279887   4.394   1.441   2.777
26549WAT      O79888   9.218   3.569   8.309
26549WAT     H179889   9.180   3.479   8.334
26549WAT     H279890   9.144   3.629   8.278
26550WAT      O79891   1.878   9.529   8.259
26550WAT     H179892   1.947   9.598   8.282
26550WAT     H279893   1.813   9.521   8.334
26551WAT      O79894   3.194   4.154   4.621
26551WAT     H179895   3.095   4.137   4.620
26551WAT     H279896   3.237   4.107   4.544
26552WAT      O79897   7.439   2.203   8.789
26552WAT     H179898   7.419   2.109   8.816
26552WAT     H279899   7.534   2.225   8.812
26553WAT      O79900   1.483   5.381   8.811
26553WAT     H179901   1.553   5.328   8.763
26553WAT     H279902   1.500   5.377   8.909
26554WAT      O79903   4.808   1.192   4.985
26554WAT     H179904   4.787   1.257   5.057
26554WAT     H279905   4.758   1.106   5.001
26555WAT      O79906   6.428   1.449   2.625
26555WAT     H179907   6.419   1.352   2.601
26555WAT     H279908   6.344   1.479   2.671
26556WAT      O79909   5.177   0.142   4.514
26556WAT     H179910   5.192   0.063   4.573
26556WAT     H279911   5.183   0.113   4.418
26557WAT      O79912   5.294   9.216   6.811
26557WAT     H179913   5.309   9.255   6.720
26557WAT     H279914   5.283   9.291   6.877
26558WAT      O79915   2.002   0.748   4.369
26558WAT     H179916   2.058   0.680   4.417
26558WAT     H279917   2.062   0.815   4.326
26559WAT      O79918   7.557   6.004   0.826
26559WAT     H179919   7.544   6.019   0.924
26559WAT     H279920   7.601   6.084   0.786
26560WAT      O79921   5.234   2.174   7.961
26560WAT     H179922   5.314   2.219   7.922
26560WAT     H279923   5.202   2.102   7.899
26561WAT      O79924   0.857   0.980   6.199
26561WAT     H179925   0.846   0.940   6.108
26561WAT     H279926   0.827   1.075   6.197
26562WAT      O79927   1.386   9.385   1.898
26562WAT     H179928   1.342   9.389   1.987
26562WAT     H279929   1.327   9.337   1.833
26563WAT      O79930   4.618   1.664   2.635
26563WAT     H179931   4.559   1.602   2.688
26563WAT     H279932   4.669   1.611   2.568
26564WAT      O79933   1.822   7.594   8.637
26564WAT     H179934   1.912   7.637   8.651
26564WAT     H279935   1.825   7.538   8.554
26565WAT      O79936   5.488   1.747   0.541
26565WAT     H179937   5.503   1.844   0.562
26565WAT     H279938   5.389   1.729   0.538
26566WAT      O79939   1.662   8.323   6.303
26566WAT     H179940   1.732   8.256   6.280
26566WAT     H279941   1.626   8.365   6.220
26567WAT      O79942   1.821   9.222   3.953
26567WAT     H179943   1.912   9.228   3.912
26567WAT     H279944   1.752   9.208   3.882
26568WAT      O79945   7.128   7.657   6.764
26568WAT     H179946   7.087   7.739   6.804
26568WAT     H279947   7.059   7.585   6.758
26569WAT      O79948   6.395   4.926   8.625
26569WAT     H179949   6.408   5.020   8.594
26569WAT     H279950   6.358   4.871   8.550
26570WAT      O79951   2.175   6.757   7.691
26570WAT     H179952   2.191   6.675   7.635
26570WAT     H279953   2.178   6.732   7.787
26571WAT      O79954   8.196   1.666   2.333
26571WAT     H179955   8.142   1.745   2.360
26571WAT     H279956   8.136   1.586   2.325
26572WAT      O79957   7.585   8.578   3.043
26572WAT     H179958   7.649   8.652   3.024
26572WAT     H279959   7.509   8.581   2.979
26573WAT      O79960   5.953   8.606   1.754
26573WAT     H179961   6.034   8.592   1.697
26573WAT     H279962   5.976   8.583   1.849
26574WAT      O79963   8.063   5.359   3.471
26574WAT     H179964   8.040   5.371   3.567
26574WAT     H279965   7.983   5.324   3.422
26575WAT      O79966   3.018   4.781   1.556
26575WAT     H179967   3.021   4.862   1.614
26575WAT     H279968   2.987   4.806   1.464
26576WAT      O79969   4.147   0.140   4.042
26576WAT     H179970   4.205   0.145   4.124
26576WAT     H279971   4.055   0.173   4.065
26577WAT      O79972   6.760   5.400   2.819
26577WAT     H179973   6.854   5.399   2.784
26577WAT     H279974   6.696   5.403   2.743
26578WAT      O79975   5.516   3.773   5.956
26578WAT     H179976   5.473   3.840   6.016
26578WAT     H279977   5.470   3.774   5.867
26579WAT      O79978   5.221   6.800   8.801
26579WAT     H179979   5.163   6.723   8.827
26579WAT     H279980   5.167   6.867   8.751
26580WAT      O79981   9.139   5.500   4.175
26580WAT     H179982   9.164   5.596   4.186
26580WAT     H279983   9.215   5.442   4.203
26581WAT      O79984   1.835   5.971   4.565
26581WAT     H179985   1.782   5.948   4.483
26581WAT     H279986   1.834   6.070   4.580
26582WAT      O79987   6.385   2.763   3.141
26582WAT     H179988   6.430   2.840   3.187
26582WAT     H279989   6.320   2.799   3.073
26583WAT      O79990   3.353   3.823   0.020
26583WAT     H179991   3.308   3.734   0.030
26583WAT     H279992   3.407   3.842   0.102
26584WAT      O79993   4.913   0.445   2.513
26584WAT     H179994   4.961   0.369   2.468
26584WAT     H279995   4.924   0.437   2.612
26585WAT      O79996   6.533   3.077   9.475
26585WAT     H179997   6.527   3.133   9.558
26585WAT     H279998   6.563   3.134   9.398
26586WAT      O79999   4.230   8.786   8.144
26586WAT     H180000   4.183   8.698   8.132
26586WAT     H280001   4.164   8.855   8.173
26587WAT      O80002   8.751   9.537   0.396
26587WAT     H180003   8.693   9.600   0.447
26587WAT     H280004   8.695   9.481   0.335
26588WAT      O80005   1.943   8.987   7.667
26588WAT     H180006   1.851   8.960   7.637
26588WAT     H280007   1.941   9.079   7.705
26589WAT      O80008   4.961   7.388   9.705
26589WAT     H180009   4.917   7.413   9.791
26589WAT     H280010   4.932   7.450   9.633
26590WAT      O80011   3.520   7.281   2.678
26590WAT     H180012   3.523   7.368   2.728
26590WAT     H280013   3.527   7.206   2.743
26591WAT      O80014   7.622   9.109   7.533
26591WAT     H180015   7.678   9.077   7.457
26591WAT     H280016   7.658   9.196   7.567
26592WAT      O80017   7.129   5.365   2.421
26592WAT     H180018   7.150   5.457   2.456
26592WAT     H280019   7.173   5.296   2.478
26593WAT      O80020   5.065   3.911   1.556
26593WAT     H180021   5.026   3.914   1.464
26593WAT     H280022   5.055   4.001   1.598
26594WAT      O80023   1.996   9.125   2.789
26594WAT     H180024   2.081   9.094   2.831
26594WAT     H280025   1.981   9.076   2.703
26595WAT      O80026   9.373   8.153   5.018
26595WAT     H180027   9.464   8.191   5.035
26595WAT     H280028   9.305   8.225   5.029
26596WAT      O80029   8.698   3.366   2.762
26596WAT     H180030   8.717   3.456   2.801
26596WAT     H280031   8.627   3.375   2.692
26597WAT      O80032   1.384   3.962   8.797
26597WAT     H180033   1.392   4.035   8.865
26597WAT     H280034   1.468   3.908   8.796
26598WAT      O80035   9.494   1.733   2.473
26598WAT     H180036   9.496   1.830   2.499
26598WAT     H280037   9.435   1.683   2.536
26599WAT      O80038   8.780   5.363   4.856
26599WAT     H180039   8.854   5.370   4.923
26599WAT     H280040   8.745   5.269   4.857
26600WAT      O80041   9.452   3.627   2.604
26600WAT     H180042   9.383   3.698   2.621
26600WAT     H280043   9.504   3.611   2.688
26601WAT      O80044   4.302   7.137   8.773
26601WAT     H180045   4.210   7.097   8.776
26601WAT     H280046   4.309   7.200   8.696
26602WAT      O80047   0.569   2.661   9.485
26602WAT     H180048   0.668   2.648   9.482
26602WAT     H280049   0.530   2.604   9.558
26603WAT      O80050   6.454   0.401   0.661
26603WAT     H180051   6.548   0.409   0.694
26603WAT     H280052   6.450   0.334   0.587
26604WAT      O80053   3.447   8.165   5.170
26604WAT     H180054   3.484   8.176   5.077
26604WAT     H280055   3.391   8.244   5.193
26605WAT      O80056   8.885   2.107   4.335
26605WAT     H180057   8.838   2.050   4.403
26605WAT     H280058   8.860   2.077   4.243
26606WAT      O80059   3.520   8.388   8.578
26606WAT     H180060   3.522   8.290   8.597
26606WAT     H280061   3.488   8.437   8.659
26607WAT      O80062   3.325   4.069   1.817
26607WAT     H180063   3.404   4.009   1.822
26607WAT     H280064   3.314   4.103   1.723
26608WAT      O80065   9.209   9.844   9.132
26608WAT     H180066   9.131   9.840   9.069
26608WAT     H280067   9.186   9.795   9.216
26609WAT      O80068   2.810   3.646   5.295
26609WAT     H180069   2.900   3.691   5.300
26609WAT     H280070   2.743   3.711   5.259
26610WAT      O80071   0.476   5.124   5.005
26610WAT     H180072   0.555   5.112   4.945
26610WAT     H280073   0.507   5.125   5.100
26611WAT      O80074   8.780   8.622   8.069
26611WAT     H180075   8.763   8.571   7.985
26611WAT     H280076   8.873   8.657   8.068
26612WAT      O80077   4.562   8.126   7.185
26612WAT     H180078   4.594   8.063   7.255
26612WAT     H280079   4.483   8.177   7.219
26613WAT      O80080   0.962   1.545   9.047
26613WAT     H180081   1.015   1.628   9.030
26613WAT     H280082   0.865   1.568   9.051
26614WAT      O80083   0.870   4.453   5.049
26614WAT     H180084   0.896   4.378   4.989
26614WAT     H280085   0.787   4.429   5.099
26615WAT      O80086   9.018   1.365   1.957
26615WAT     H180087   9.018   1.443   1.895
26615WAT     H280088   9.110   1.348   1.991
26616WAT      O80089   4.007   1.999   1.300
26616WAT     H180090   4.054   2.008   1.212
26616WAT     H280091   3.941   2.073   1.310
26617WAT      O80092   9.735   9.348   7.746
26617WAT     H180093   9.769   9.422   7.688
26617WAT     H280094   9.811   9.307   7.796
26618WAT      O80095   7.226   6.654   4.037
26618WAT     H180096   7.219   6.730   3.973
26618WAT     H280097   7.166   6.580   4.008
26619WAT      O80098   6.470   7.390   9.853
26619WAT     H180099   6.384   7.390   9.801
26619WAT     H280100   6.517   7.478   9.840
26620WAT      O80101   1.612   5.114   1.055
26620WAT     H180102   1.633   5.205   1.018
26620WAT     H280103   1.517   5.092   1.037
26621WAT      O80104   0.421   4.992   3.887
26621WAT     H180105   0.392   5.070   3.943
26621WAT     H280106   0.521   4.987   3.887
26622WAT      O80107   8.017   0.845   4.783
26622WAT     H180108   8.067   0.783   4.843
26622WAT     H280109   8.036   0.940   4.810
26623WAT      O80110   2.526   0.587   2.511
26623WAT     H180111   2.458   0.535   2.459
26623WAT     H280112   2.593   0.627   2.448
26624WAT      O80113   4.688   9.701   6.977
26624WAT     H180114   4.730   9.698   6.887
26624WAT     H280115   4.708   9.617   7.027
26625WAT      O80116   8.416   1.354   5.897
26625WAT     H180117   8.495   1.415   5.906
26625WAT     H280118   8.374   1.339   5.987
26626WAT      O80119   8.196   0.740   0.759
26626WAT     H180120   8.170   0.645   0.745
26626WAT     H280121   8.283   0.758   0.713
26627WAT      O80122   9.217   9.547   0.697
26627WAT     H180123   9.181   9.528   0.788
26627WAT     H280124   9.161   9.500   0.629
26628WAT      O80125   2.952   0.755   4.253
26628WAT     H180126   2.929   0.658   4.248
26628WAT     H280127   2.918   0.801   4.171
26629WAT      O80128   6.371   7.839   2.048
26629WAT     H180129   6.379   7.751   2.096
26629WAT     H280130   6.462   7.877   2.034
26630WAT      O80131   0.264   7.821   0.737
26630WAT     H180132   0.346   7.841   0.684
26630WAT     H280133   0.270   7.730   0.776
26631WAT      O80134   1.752   9.556   3.658
26631WAT     H180135   1.693   9.492   3.609
26631WAT     H280136   1.720   9.649   3.642
26632WAT      O80137   1.114   3.956   4.792
26632WAT     H180138   1.024   4.000   4.792
26632WAT     H280139   1.123   3.898   4.872
26633WAT      O80140   3.619   5.974   8.759
26633WAT     H180141   3.643   5.878   8.746
26633WAT     H280142   3.560   6.005   8.685
26634WAT      O80143   1.474   9.096   1.920
26634WAT     H180144   1.455   9.194   1.928
26634WAT     H280145   1.513   9.063   2.006
26635WAT      O80146   3.242   9.752   3.608
26635WAT     H180147   3.279   9.770   3.517
26635WAT     H280148   3.282   9.817   3.673
26636WAT      O80149   5.943   4.694   5.529
26636WAT     H180150   5.915   4.638   5.450
26636WAT     H280151   5.883   4.774   5.536
26637WAT      O80152   1.526   3.316   8.838
26637WAT     H180153   1.503   3.409   8.809
26637WAT     H280154   1.609   3.286   8.791
26638WAT      O80155   0.794   2.612   6.171
26638WAT     H180156   0.715   2.552   6.159
26638WAT     H280157   0.874   2.557   6.194
26639WAT      O80158   7.895   2.102   5.157
26639WAT     H180159   7.830   2.146   5.219
26639WAT     H280160   7.847   2.065   5.078
26640WAT      O80161   1.778   5.520   6.881
26640WAT     H180162   1.806   5.442   6.936
26640WAT     H280163   1.727   5.585   6.938
26641WAT      O80164   4.998   1.464   6.314
26641WAT     H180165   5.080   1.520   6.330
26641WAT     H280166   4.975   1.465   6.217
26642WAT      O80167   0.132   6.834   5.405
26642WAT     H180168   0.068   6.867   5.336
26642WAT     H280169   0.082   6.791   5.480
26643WAT      O80170   7.439   1.987   3.385
26643WAT     H180171   7.472   1.988   3.291
26643WAT     H280172   7.353   1.936   3.390
26644WAT      O80173   0.081   5.122   8.438
26644WAT     H180174  -0.019   5.119   8.435
26644WAT     H280175   0.110   5.185   8.509
26645WAT      O80176   0.090   4.719   3.937
26645WAT     H180177   0.059   4.798   3.990
26645WAT     H280178   0.076   4.635   3.990
26646WAT      O80179   6.237   6.309   9.595
26646WAT     H180180   6.151   6.259   9.584
26646WAT     H280181   6.279   6.320   9.505
26647WAT      O80182   2.028   3.526   2.046
26647WAT     H180183   2.054   3.507   1.952
26647WAT     H280184   1.948   3.585   2.048
26648WAT      O80185   9.507   6.009   7.551
26648WAT     H180186   9.491   5.917   7.585
26648WAT     H280187   9.482   6.014   7.454
26649WAT      O80188   3.538   4.361   5.949
26649WAT     H180189   3.563   4.273   5.908
26649WAT     H280190   3.597   4.378   6.028
26650WAT      O80191   4.366   5.488   9.836
26650WAT     H180192   4.320   5.569   9.873
26650WAT     H280193   4.320   5.458   9.753
26651WAT      O80194   9.087   8.168   6.355
26651WAT     H180195   9.154   8.243   6.358
26651WAT     H280196   9.073   8.140   6.260
26652WAT      O80197   0.277   6.974   6.077
26652WAT     H180198   0.203   7.041   6.077
26652WAT     H280199   0.293   6.940   5.984
26653WAT      O80200   4.046   9.245   4.848
26653WAT     H180201   4.018   9.339   4.826
26653WAT     H280202   4.145   9.238   4.847
26654WAT      O80203   4.616   7.419   4.090
26654WAT     H180204   4.615   7.350   4.018
26654WAT     H280205   4.655   7.379   4.173
26655WAT      O80206   3.540   1.995   5.120
26655WAT     H180207   3.493   1.940   5.051
26655WAT     H280208   3.560   1.938   5.200
26656WAT      O80209   1.920   9.242   3.160
26656WAT     H180210   1.918   9.333   3.118
26656WAT     H280211   1.883   9.175   3.097
26657WAT      O80212   5.755   6.271   2.447
26657WAT     H180213   5.781   6.194   2.388
26657WAT     H280214   5.728   6.237   2.537
26658WAT      O80215   6.574   2.306   8.436
26658WAT     H180216   6.486   2.265   8.416
26658WAT     H280217   6.568   2.360   8.520
26659WAT      O80218   3.218   1.223   2.643
26659WAT     H180219   3.175   1.313   2.652
26659WAT     H280220   3.317   1.233   2.643
26660WAT      O80221   3.003   2.416   0.586
26660WAT     H180222   2.950   2.337   0.618
26660WAT     H280223   3.078   2.434   0.650
26661WAT      O80224   6.788   4.669   4.360
26661WAT     H180225   6.723   4.675   4.284
26661WAT     H280226   6.822   4.575   4.368
26662WAT      O80227   0.844   3.117   1.058
26662WAT     H180228   0.858   3.216   1.055
26662WAT     H280229   0.908   3.073   0.994
26663WAT      O80230   2.183   7.387   5.341
26663WAT     H180231   2.186   7.428   5.432
26663WAT     H280232   2.170   7.459   5.273
26664WAT      O80233   1.062   2.947   0.267
26664WAT     H180234   1.060   2.851   0.292
26664WAT     H280235   1.063   3.003   0.350
26665WAT      O80236   9.289   6.443   3.076
26665WAT     H180237   9.307   6.424   2.980
26665WAT     H280238   9.374   6.470   3.121
26666WAT      O80239   8.285   7.991   7.041
26666WAT     H180240   8.295   8.040   6.954
26666WAT     H280241   8.375   7.966   7.076
26667WAT      O80242   8.957   0.120   7.293
26667WAT     H180243   8.931   0.177   7.370
26667WAT     H280244   9.053   0.136   7.271
26668WAT      O80245   8.073   7.634   5.644
26668WAT     H180246   8.136   7.698   5.600
26668WAT     H280247   8.010   7.685   5.703
26669WAT      O80248   4.758   3.672   3.570
26669WAT     H180249   4.749   3.753   3.511
26669WAT     H280250   4.842   3.624   3.547
26670WAT      O80251   0.743   0.642   4.074
26670WAT     H180252   0.759   0.559   4.020
26670WAT     H280253   0.807   0.644   4.151
26671WAT      O80254   5.199   4.903   1.870
26671WAT     H180255   5.249   4.985   1.899
26671WAT     H280256   5.103   4.926   1.853
26672WAT      O80257   1.433   8.741   2.018
26672WAT     H180258   1.480   8.718   2.102
26672WAT     H280259   1.499   8.767   1.948
26673WAT      O80260   1.960   7.291   2.154
26673WAT     H180261   1.898   7.215   2.169
26673WAT     H280262   1.918   7.376   2.186
26674WAT      O80263   4.488   8.779   3.820
26674WAT     H180264   4.436   8.715   3.878
26674WAT     H280265   4.489   8.869   3.864
26675WAT      O80266   5.553   8.334   4.418
26675WAT     H180267   5.550   8.425   4.377
26675WAT     H280268   5.467   8.286   4.399
26676WAT      O80269   1.285   7.774   9.674
26676WAT     H180270   1.352   7.715   9.719
26676WAT     H280271   1.229   7.719   9.612
26677WAT      O80272   4.593   5.273   0.958
26677WAT     H180273   4.687   5.263   0.926
26677WAT     H280274   4.587   5.350   1.022
26678WAT      O80275   7.732   1.972   3.798
26678WAT     H180276   7.633   1.974   3.812
26678WAT     H280277   7.778   1.989   3.885
26679WAT      O80278   4.752   2.667   8.728
26679WAT     H180279   4.717   2.576   8.708
26679WAT     H280280   4.748   2.683   8.827
26680WAT      O80281   4.186   2.061   8.805
26680WAT     H180282   4.106   2.098   8.851
26680WAT     H280283   4.267   2.116   8.829
26681WAT      O80284   9.767   2.726   2.160
26681WAT     H180285   9.753   2.799   2.227
26681WAT     H280286   9.680   2.699   2.120
26682WAT      O80287   2.609   8.122   7.166
26682WAT     H180288   2.546   8.150   7.093
26682WAT     H280289   2.572   8.151   7.254
26683WAT      O80290   8.848   5.621   4.462
26683WAT     H180291   8.823   5.579   4.549
26683WAT     H280292   8.807   5.712   4.455
26684WAT      O80293   0.368   3.526   4.141
26684WAT     H180294   0.353   3.517   4.240
26684WAT     H280295   0.331   3.614   4.110
26685WAT      O80296   1.387   0.392   3.380
26685WAT     H180297   1.371   0.491   3.386
26685WAT     H280298   1.392   0.353   3.472
26686WAT      O80299   3.189   6.834   9.199
26686WAT     H180300   3.268   6.776   9.216
26686WAT     H280301   3.122   6.822   9.272
26687WAT      O80302   6.385   8.117   1.498
26687WAT     H180303   6.326   8.119   1.418
26687WAT     H280304   6.464   8.057   1.481
26688WAT      O80305   3.872   8.474   3.827
26688WAT     H180306   3.817   8.443   3.749
26688WAT     H280307   3.956   8.420   3.831
26689WAT      O80308   8.602   6.644   0.763
26689WAT     H180309   8.514   6.671   0.724
26689WAT     H280310   8.614   6.689   0.851
26690WAT      O80311   4.436   8.745   9.645
26690WAT     H180312   4.490   8.691   9.580
26690WAT     H280313   4.342   8.710   9.647
26691WAT      O80314   1.066   0.746   3.003
26691WAT     H180315   1.027   0.774   2.915
26691WAT     H280316   1.086   0.828   3.058
26692WAT      O80317   9.143   4.381   0.628
26692WAT     H180318   9.100   4.458   0.581
26692WAT     H280319   9.201   4.415   0.702
26693WAT      O80320   4.512   3.603   2.758
26693WAT     H180321   4.523   3.700   2.780
26693WAT     H280322   4.444   3.593   2.686
26694WAT      O80323   6.532   3.178   7.363
26694WAT     H180324   6.492   3.269   7.374
26694WAT     H280325   6.536   3.155   7.266
26695WAT      O80326   3.166   9.291   0.554
26695WAT     H180327   3.234   9.231   0.512
26695WAT     H280328   3.203   9.383   0.561
26696WAT      O80329   7.441   3.072   9.555
26696WAT     H180330   7.376   3.057   9.481
26696WAT     H280331   7.517   3.007   9.547
26697WAT      O80332   4.762   0.559   5.760
26697WAT     H180333   4.687   0.622   5.740
26697WAT     H280334   4.799   0.579   5.851
26698WAT      O80335   1.240   0.496   0.706
26698WAT     H180336   1.265   0.425   0.641
26698WAT     H280337   1.283   0.582   0.680
26699WAT      O80338   4.922   6.436   5.661
26699WAT     H180339   4.830   6.468   5.640
26699WAT     H280340   4.987   6.512   5.648
26700WAT      O80341   1.562   1.927   2.733
26700WAT     H180342   1.584   2.005   2.790
26700WAT     H280343   1.636   1.910   2.668
26701WAT      O80344   2.028   8.374   0.237
26701WAT     H180345   1.977   8.302   0.190
26701WAT     H280346   1.968   8.418   0.305
26702WAT      O80347   1.634   0.760   6.237
26702WAT     H180348   1.716   0.743   6.183
26702WAT     H280349   1.630   0.696   6.313
26703WAT      O80350   5.127   0.641   3.057
26703WAT     H180351   5.071   0.676   3.132
26703WAT     H280352   5.185   0.567   3.090
26704WAT      O80353   7.588   8.182   8.347
26704WAT     H180354   7.529   8.158   8.423
26704WAT     H280355   7.571   8.120   8.270
26705WAT      O80356   7.413   5.090   8.656
26705WAT     H180357   7.366   5.047   8.733
26705WAT     H280358   7.503   5.122   8.684
26706WAT      O80359   9.795   6.930   1.451
26706WAT     H180360   9.856   7.009   1.457
26706WAT     H280361   9.819   6.875   1.372
26707WAT      O80362   6.178   6.087   3.693
26707WAT     H180363   6.115   6.157   3.658
26707WAT     H280364   6.174   6.085   3.793
26708WAT      O80365   7.604   2.206   1.549
26708WAT     H180366   7.603   2.149   1.631
26708WAT     H280367   7.551   2.289   1.566
26709WAT      O80368   8.792   4.997   3.291
26709WAT     H180369   8.801   5.096   3.285
26709WAT     H280370   8.881   4.954   3.274
26710WAT      O80371   8.507   2.442   1.826
26710WAT     H180372   8.505   2.540   1.847
26710WAT     H280373   8.597   2.416   1.793
26711WAT      O80374   3.760   1.475   9.755
26711WAT     H180375   3.735   1.566   9.790
26711WAT     H280376   3.769   1.479   9.656
26712WAT      O80377   5.335   5.654   9.734
26712WAT     H180378   5.277   5.665   9.814
26712WAT     H280379   5.330   5.560   9.702
26713WAT      O80380   9.686   2.514   3.653
26713WAT     H180381   9.664   2.517   3.751
26713WAT     H280382   9.617   2.458   3.606
26714WAT      O80383   3.887   6.100   8.966
26714WAT     H180384   3.834   6.137   8.890
26714WAT     H280385   3.824   6.060   9.034
26715WAT      O80386   3.281   2.242   8.814
26715WAT     H180387   3.327   2.318   8.861
26715WAT     H280388   3.263   2.169   8.880
26716WAT      O80389   9.612   8.138   9.520
26716WAT     H180390   9.597   8.071   9.592
26716WAT     H280391   9.643   8.092   9.437
26717WAT      O80392   1.560   2.574   0.476
26717WAT     H180393   1.604   2.663   0.465
26717WAT     H280394   1.462   2.587   0.485
26718WAT      O80395   6.331   3.669   9.027
26718WAT     H180396   6.381   3.678   9.113
26718WAT     H280397   6.313   3.572   9.009
26719WAT      O80398   4.653   5.005   6.026
26719WAT     H180399   4.560   4.971   6.011
26719WAT     H280400   4.695   5.027   5.938
26720WAT      O80401   3.524   5.107   6.583
26720WAT     H180402   3.522   5.173   6.659
26720WAT     H280403   3.448   5.126   6.521
26721WAT      O80404   0.165   7.558   4.867
26721WAT     H180405   0.133   7.651   4.845
26721WAT     H280406   0.210   7.518   4.788
26722WAT      O80407   5.578   2.244   8.579
26722WAT     H180408   5.621   2.335   8.573
26722WAT     H280409   5.608   2.188   8.502
26723WAT      O80410   1.628   6.240   8.031
26723WAT     H180411   1.712   6.285   8.061
26723WAT     H280412   1.556   6.309   8.020
26724WAT      O80413   7.842   1.719   4.614
26724WAT     H180414   7.846   1.656   4.692
26724WAT     H280415   7.808   1.808   4.646
26725WAT      O80416   8.826   0.061   4.333
26725WAT     H180417   8.862  -0.003   4.401
26725WAT     H280418   8.826   0.153   4.371
26726WAT      O80419   9.725   2.831   0.721
26726WAT     H180420   9.776   2.894   0.662
26726WAT     H280421   9.634   2.817   0.682
26727WAT      O80422   9.813   8.113   6.586
26727WAT     H180423   9.889   8.048   6.583
26727WAT     H280424   9.847   8.203   6.613
26728WAT      O80425   7.947   5.738   1.882
26728WAT     H180426   7.964   5.792   1.964
26728WAT     H280427   7.852   5.752   1.852
26729WAT      O80428   9.561   1.998   5.096
26729WAT     H180429   9.506   2.080   5.110
26729WAT     H280430   9.543   1.932   5.169
26730WAT      O80431   9.422   2.265   1.576
26730WAT     H180432   9.392   2.273   1.671
26730WAT     H280433   9.516   2.231   1.574
26731WAT      O80434   0.047   7.890   4.162
26731WAT     H180435   0.079   7.977   4.200
26731WAT     H280436   0.075   7.883   4.066
26732WAT      O80437   0.584   8.903   3.211
26732WAT     H180438   0.535   8.988   3.191
26732WAT     H280439   0.679   8.925   3.236
26733WAT      O80440   4.995   0.743   3.252
26733WAT     H180441   5.002   0.783   3.343
26733WAT     H280442   4.905   0.765   3.213
26734WAT      O80443   5.917   1.087   6.262
26734WAT     H180444   5.984   1.029   6.216
26734WAT     H280445   5.921   1.072   6.361
26735WAT      O80446   2.824   2.385   2.005
26735WAT     H180447   2.878   2.390   1.921
26735WAT     H280448   2.851   2.459   2.066
26736WAT      O80449   5.952   6.446   8.429
26736WAT     H180450   5.857   6.475   8.417
26736WAT     H280451   5.978   6.386   8.354
26737WAT      O80452   0.792   8.339   5.664
26737WAT     H180453   0.699   8.376   5.662
26737WAT     H280454   0.850   8.390   5.600
26738WAT      O80455   5.023   6.376   8.280
26738WAT     H180456   5.072   6.289   8.293
26738WAT     H280457   5.054   6.442   8.348
26739WAT      O80458   7.921   6.759   3.912
26739WAT     H180459   7.965   6.837   3.956
26739WAT     H280460   7.915   6.775   3.813
26740WAT      O80461   8.953   6.311   4.618
26740WAT     H180462   8.939   6.214   4.598
26740WAT     H280463   8.890   6.339   4.691
26741WAT      O80464   2.566   2.851   7.139
26741WAT     H180465   2.572   2.786   7.215
26741WAT     H280466   2.535   2.940   7.173
26742WAT      O80467   8.477   5.422   2.248
26742WAT     H180468   8.398   5.362   2.262
26742WAT     H280469   8.488   5.481   2.328
26743WAT      O80470   3.442   6.800   6.241
26743WAT     H180471   3.344   6.783   6.248
26743WAT     H280472   3.486   6.722   6.196
26744WAT      O80473   2.234   6.234   3.014
26744WAT     H180474   2.140   6.268   3.020
26744WAT     H280475   2.256   6.182   3.097
26745WAT      O80476   3.217   1.613   7.733
26745WAT     H180477   3.152   1.689   7.729
26745WAT     H280478   3.305   1.642   7.693
26746WAT      O80479   0.353   6.246   4.152
26746WAT     H180480   0.363   6.210   4.244
26746WAT     H280481   0.262   6.225   4.117
26747WAT      O80482   7.506   2.120   0.598
26747WAT     H180483   7.528   2.122   0.501
26747WAT     H280484   7.412   2.089   0.611
26748WAT      O80485   9.612   0.990   3.342
26748WAT     H180486   9.668   0.973   3.424
26748WAT     H280487   9.557   1.072   3.355
26749WAT      O80488   4.961   9.131   9.498
26749WAT     H180489   4.978   9.136   9.400
26749WAT     H280490   4.967   9.223   9.538
26750WAT      O80491   7.744   1.809   2.215
26750WAT     H180492   7.799   1.798   2.298
26750WAT     H280493   7.709   1.721   2.185
26751WAT      O80494   7.003   3.201   3.410
26751WAT     H180495   7.066   3.128   3.435
26751WAT     H280496   6.909   3.172   3.427
26752WAT      O80497   4.257   8.690   6.153
26752WAT     H180498   4.311   8.655   6.230
26752WAT     H280499   4.192   8.619   6.124
26753WAT      O80500   7.043   2.474   0.315
26753WAT     H180501   6.964   2.418   0.339
26753WAT     H280502   7.033   2.565   0.357
26754WAT      O80503   3.850   3.367   6.690
26754WAT     H180504   3.761   3.392   6.730
26754WAT     H280505   3.923   3.412   6.740
26755WAT      O80506   6.162   5.754   4.857
26755WAT     H180507   6.090   5.733   4.923
26755WAT     H280508   6.164   5.683   4.787
26756WAT      O80509   0.403   1.847   4.976
26756WAT     H180510   0.444   1.821   5.063
26756WAT     H280511   0.425   1.942   4.955
26757WAT      O80512   4.058   7.265   8.509
26757WAT     H180513   4.030   7.283   8.414
26757WAT     H280514   4.075   7.167   8.520
26758WAT      O80515   1.877   8.776   2.051
26758WAT     H180516   1.930   8.790   1.967
26758WAT     H280517   1.940   8.754   2.126
26759WAT      O80518   7.586   2.153   7.743
26759WAT     H180519   7.650   2.091   7.697
26759WAT     H280520   7.516   2.100   7.790
26760WAT      O80521   4.413   2.815   7.168
26760WAT     H180522   4.401   2.825   7.069
26760WAT     H280523   4.508   2.792   7.188
26761WAT      O80524   4.843   5.130   6.691
26761WAT     H180525   4.765   5.074   6.662
26761WAT     H280526   4.915   5.071   6.727
26762WAT      O80527   6.908   3.827   0.340
26762WAT     H180528   6.895   3.873   0.252
26762WAT     H280529   6.838   3.757   0.351
26763WAT      O80530   9.244   9.728   2.006
26763WAT     H180531   9.152   9.726   2.043
26763WAT     H280532   9.310   9.704   2.079
26764WAT      O80533   9.648   1.824   3.789
26764WAT     H180534   9.642   1.846   3.887
26764WAT     H280535   9.574   1.871   3.740
26765WAT      O80536   0.195   4.775   2.101
26765WAT     H180537   0.205   4.732   2.192
26765WAT     H280538   0.277   4.830   2.082
26766WAT      O80539   0.167   3.576   4.646
26766WAT     H180540   0.203   3.541   4.733
26766WAT     H280541   0.075   3.612   4.659
26767WAT      O80542   2.041   7.354   1.799
26767WAT     H180543   2.064   7.451   1.799
26767WAT     H280544   2.091   7.308   1.872
26768WAT      O80545   0.151   7.240   4.454
26768WAT     H180546   0.083   7.303   4.417
26768WAT     H280547   0.128   7.147   4.429
26769WAT      O80548   8.101   0.468   1.070
26769WAT     H180549   8.080   0.547   1.127
26769WAT     H280550   8.047   0.389   1.101
26770WAT      O80551   6.524   0.923   7.299
26770WAT     H180552   6.610   0.919   7.349
26770WAT     H280553   6.474   0.837   7.312
26771WAT      O80554   3.597   2.164   9.248
26771WAT     H180555   3.659   2.087   9.234
26771WAT     H280556   3.567   2.199   9.159
26772WAT      O80557   1.722   7.764   3.310
26772WAT     H180558   1.809   7.749   3.356
26772WAT     H280559   1.734   7.831   3.237
26773WAT      O80560   7.005   1.179   2.923
26773WAT     H180561   7.053   1.099   2.886
26773WAT     H280562   6.970   1.157   3.015
26774WAT      O80563   6.581   1.815   8.047
26774WAT     H180564   6.607   1.763   8.129
26774WAT     H280565   6.662   1.862   8.011
26775WAT      O80566   4.808   4.789   6.353
26775WAT     H180567   4.884   4.794   6.417
26775WAT     H280568   4.812   4.867   6.290
26776WAT      O80569   6.850   5.683   2.095
26776WAT     H180570   6.867   5.656   2.000
26776WAT     H280571   6.906   5.627   2.156
26777WAT      O80572   7.947   5.722   7.229
26777WAT     H180573   7.946   5.688   7.135
26777WAT     H280574   7.951   5.644   7.292
26778WAT      O80575   3.606   7.192   6.718
26778WAT     H180576   3.587   7.094   6.731
26778WAT     H280577   3.705   7.207   6.716
26779WAT      O80578   2.044   2.048   8.876
26779WAT     H180579   2.017   1.957   8.845
26779WAT     H280580   2.008   2.117   8.814
26780WAT      O80581   6.510   5.427   2.608
26780WAT     H180582   6.480   5.333   2.623
26780WAT     H280583   6.471   5.461   2.523
26781WAT      O80584   6.840   2.570   7.054
26781WAT     H180585   6.859   2.568   7.153
26781WAT     H280586   6.922   2.597   7.005
26782WAT      O80587   8.466   4.526   3.502
26782WAT     H180588   8.528   4.503   3.576
26782WAT     H280589   8.516   4.572   3.429
26783WAT      O80590   9.324   7.211   7.914
26783WAT     H180591   9.267   7.167   7.983
26783WAT     H280592   9.420   7.203   7.940
26784WAT      O80593   2.517   7.340   1.200
26784WAT     H180594   2.418   7.352   1.210
26784WAT     H280595   2.543   7.251   1.237
26785WAT      O80596   2.380   9.754   2.717
26785WAT     H180597   2.362   9.806   2.633
26785WAT     H280598   2.301   9.762   2.778
26786WAT      O80599   9.661   8.254   2.526
26786WAT     H180600   9.732   8.198   2.570
26786WAT     H280601   9.702   8.338   2.491
26787WAT      O80602   1.671   8.597   9.638
26787WAT     H180603   1.620   8.532   9.694
26787WAT     H280604   1.725   8.548   9.570
26788WAT      O80605   2.701   8.942   7.850
26788WAT     H180606   2.646   9.026   7.849
26788WAT     H280607   2.644   8.865   7.821
26789WAT      O80608   8.321   0.775   2.440
26789WAT     H180609   8.372   0.827   2.371
26789WAT     H280610   8.375   0.770   2.524
26790WAT      O80611   7.147   0.306   2.806
26790WAT     H180612   7.203   0.353   2.874
26790WAT     H280613   7.193   0.308   2.717
26791WAT      O80614   4.996   7.854   1.153
26791WAT     H180615   5.043   7.792   1.215
26791WAT     H280616   5.057   7.881   1.079
26792WAT      O80617   7.970   6.345   1.756
26792WAT     H180618   7.909   6.421   1.775
26792WAT     H280619   7.997   6.347   1.659
26793WAT      O80620   3.416   5.732   8.021
26793WAT     H180621   3.491   5.666   8.025
26793WAT     H280622   3.436   5.802   7.952
26794WAT      O80623   1.982   6.819   3.027
26794WAT     H180624   2.018   6.803   3.119
26794WAT     H280625   1.883   6.808   3.027
26795WAT      O80626   8.112   0.910   1.419
26795WAT     H180627   8.023   0.954   1.410
26795WAT     H280628   8.183   0.980   1.430
26796WAT      O80629   3.376   9.663   8.507
26796WAT     H180630   3.375   9.629   8.601
26796WAT     H280631   3.326   9.750   8.503
26797WAT      O80632   3.069   1.805   4.051
26797WAT     H180633   3.030   1.720   4.017
26797WAT     H280634   2.995   1.866   4.081
26798WAT      O80635   2.421   2.177   0.696
26798WAT     H180636   2.368   2.153   0.778
26798WAT     H280637   2.365   2.236   0.637
26799WAT      O80638   4.078   9.842   7.938
26799WAT     H180639   3.985   9.812   7.960
26799WAT     H280640   4.128   9.860   8.022
26800WAT      O80641   8.698   0.070   4.882
26800WAT     H180642   8.764   0.144   4.870
26800WAT     H280643   8.606   0.108   4.889
26801WAT      O80644   5.543   7.528   0.325
26801WAT     H180645   5.574   7.433   0.329
26801WAT     H280646   5.449   7.534   0.358
26802WAT      O80647   3.043   7.356   0.529
26802WAT     H180648   3.047   7.370   0.430
26802WAT     H280649   3.132   7.376   0.569
26803WAT      O80650   3.834   7.692   6.254
26803WAT     H180651   3.904   7.640   6.305
26803WAT     H280652   3.821   7.781   6.298
26804WAT      O80653   0.377   3.820   8.806
26804WAT     H180654   0.397   3.843   8.711
26804WAT     H280655   0.287   3.777   8.812
26805WAT      O80656   9.182   4.670   5.664
26805WAT     H180657   9.181   4.770   5.671
26805WAT     H280658   9.272   4.640   5.634
26806WAT      O80659   9.087   1.425   3.671
26806WAT     H180660   9.169   1.467   3.709
26806WAT     H280661   9.110   1.335   3.635
26807WAT      O80662   0.186   7.973   3.473
26807WAT     H180663   0.117   8.028   3.521
26807WAT     H280664   0.141   7.915   3.405
26808WAT      O80665   2.075   0.444   7.120
26808WAT     H180666   2.160   0.393   7.106
26808WAT     H280667   1.999   0.380   7.128
26809WAT      O80668   8.980   7.583   2.492
26809WAT     H180669   9.028   7.630   2.566
26809WAT     H280670   9.038   7.583   2.410
26810WAT      O80671   5.478   1.674   1.298
26810WAT     H180672   5.489   1.771   1.319
26810WAT     H280673   5.391   1.642   1.334
26811WAT      O80674   2.024   7.389   4.286
26811WAT     H180675   2.086   7.368   4.211
26811WAT     H280676   2.064   7.357   4.372
26812WAT      O80677   4.800   0.527   8.147
26812WAT     H180678   4.826   0.584   8.226
26812WAT     H280679   4.852   0.557   8.067
26813WAT      O80680   3.503   6.795   0.998
26813WAT     H180681   3.558   6.711   0.998
26813WAT     H280682   3.525   6.850   0.918
26814WAT      O80683   7.667   8.888   9.603
26814WAT     H180684   7.635   8.821   9.671
26814WAT     H280685   7.749   8.933   9.638
26815WAT      O80686   3.562   8.916   3.928
26815WAT     H180687   3.498   8.990   3.944
26815WAT     H280688   3.538   8.868   3.844
26816WAT      O80689   5.459   5.725   3.545
26816WAT     H180690   5.522   5.647   3.542
26816WAT     H280691   5.427   5.739   3.638
26817WAT      O80692   7.551   4.657   6.937
26817WAT     H180693   7.557   4.565   6.900
26817WAT     H280694   7.546   4.723   6.862
26818WAT      O80695   0.458   2.528   5.354
26818WAT     H180696   0.365   2.499   5.375
26818WAT     H280697   0.460   2.575   5.266
26819WAT      O80698   6.125   9.827   5.736
26819WAT     H180699   6.102   9.746   5.790
26819WAT     H280700   6.041   9.868   5.702
26820WAT      O80701   0.583   5.333   3.758
26820WAT     H180702   0.591   5.396   3.835
26820WAT     H280703   0.596   5.239   3.789
26821WAT      O80704   6.560   1.370   1.458
26821WAT     H180705   6.616   1.292   1.432
26821WAT     H280706   6.570   1.443   1.390
26822WAT      O80707   6.310   2.603   6.041
26822WAT     H180708   6.364   2.605   5.957
26822WAT     H280709   6.234   2.668   6.033
26823WAT      O80710   8.339   6.872   4.351
26823WAT     H180711   8.318   6.811   4.274
26823WAT     H280712   8.299   6.835   4.434
26824WAT      O80713   9.335   7.475   3.828
26824WAT     H180714   9.336   7.380   3.798
26824WAT     H280715   9.317   7.479   3.926
26825WAT      O80716   1.591   0.029   7.581
26825WAT     H180717   1.591  -0.052   7.522
26825WAT     H280718   1.590   0.000   7.677
26826WAT      O80719   7.112   9.099   8.911
26826WAT     H180720   7.174   9.177   8.900
26826WAT     H280721   7.022   9.121   8.873
26827WAT      O80722   1.805   6.554   6.947
26827WAT     H180723   1.708   6.532   6.933
26827WAT     H280724   1.842   6.594   6.863
26828WAT      O80725   5.298   0.005   0.333
26828WAT     H180726   5.268  -0.080   0.289
26828WAT     H280727   5.292  -0.004   0.432
26829WAT      O80728   2.565   9.804   9.881
26829WAT     H180729   2.491   9.866   9.909
26829WAT     H280730   2.551   9.776   9.786
26830WAT      O80731   6.161   3.709   5.527
26830WAT     H180732   6.122   3.758   5.605
26830WAT     H280733   6.091   3.651   5.485
26831WAT      O80734   3.635   4.694   6.094
26831WAT     H180735   3.542   4.658   6.083
26831WAT     H280736   3.683   4.688   6.007
26832WAT      O80737   0.557   8.347   7.318
26832WAT     H180738   0.482   8.301   7.269
26832WAT     H280739   0.519   8.409   7.386
26833WAT      O80740   3.739   2.247   7.228
26833WAT     H180741   3.665   2.237   7.295
26833WAT     H280742   3.699   2.263   7.138
26834WAT      O80743   5.377   0.517   7.744
26834WAT     H180744   5.416   0.425   7.750
26834WAT     H280745   5.288   0.519   7.789
26835WAT      O80746   3.147   1.449   5.547
26835WAT     H180747   3.065   1.391   5.545
26835WAT     H280748   3.228   1.391   5.539
26836WAT      O80749   3.819   4.362   4.247
26836WAT     H180750   3.735   4.310   4.228
26836WAT     H280751   3.802   4.425   4.323
26837WAT      O80752   4.518   2.096   8.612
26837WAT     H180753   4.590   2.149   8.568
26837WAT     H280754   4.474   2.152   8.683
26838WAT      O80755   2.806   8.173   5.146
26838WAT     H180756   2.744   8.250   5.162
26838WAT     H280757   2.845   8.142   5.232
26839WAT      O80758   1.336   4.503   9.713
26839WAT     H180759   1.241   4.530   9.699
26839WAT     H280760   1.354   4.492   9.811
26840WAT      O80761   7.488   0.329   9.736
26840WAT     H180762   7.563   0.281   9.692
26840WAT     H280763   7.523   0.386   9.810
26841WAT      O80764   3.064   2.205   1.140
26841WAT     H180765   2.979   2.226   1.091
26841WAT     H280766   3.068   2.107   1.160
26842WAT      O80767   2.002   1.615   1.836
26842WAT     H180768   2.071   1.617   1.908
26842WAT     H280769   2.025   1.682   1.766
26843WAT      O80770   0.325   8.417   0.176
26843WAT     H180771   0.344   8.320   0.194
26843WAT     H280772   0.405   8.471   0.202
26844WAT      O80773   2.264   2.301   7.984
26844WAT     H180774   2.167   2.322   7.998
26844WAT     H280775   2.279   2.204   8.000
26845WAT      O80776   6.435   2.502   0.661
26845WAT     H180777   6.362   2.473   0.722
26845WAT     H280778   6.509   2.543   0.715
26846WAT      O80779   9.554   6.981   2.705
26846WAT     H180780   9.512   6.893   2.684
26846WAT     H280781   9.652   6.977   2.688
26847WAT      O80782   3.624   9.815   4.238
26847WAT     H180783   3.707   9.835   4.289
26847WAT     H280784   3.560   9.892   4.247
26848WAT      O80785   4.397   9.353   5.460
26848WAT     H180786   4.333   9.359   5.383
26848WAT     H280787   4.428   9.444   5.486
26849WAT      O80788   9.737   7.360   5.177
26849WAT     H180789   9.817   7.353   5.118
26849WAT     H280790   9.762   7.408   5.261
26850WAT      O80791   0.415   1.051   0.358
26850WAT     H180792   0.330   1.001   0.342
26850WAT     H280793   0.492   0.989   0.347
26851WAT      O80794   2.721   7.450   5.955
26851WAT     H180795   2.705   7.387   5.879
26851WAT     H280796   2.698   7.405   6.041
26852WAT      O80797   5.422   4.032   2.284
26852WAT     H180798   5.519   4.026   2.260
26852WAT     H280799   5.386   4.120   2.253
26853WAT      O80800   7.371   0.384   1.644
26853WAT     H180801   7.305   0.451   1.609
26853WAT     H280802   7.329   0.331   1.718
26854WAT      O80803   0.695   8.676   9.175
26854WAT     H180804   0.708   8.775   9.187
26854WAT     H280805   0.615   8.660   9.116
26855WAT      O80806   4.498   4.613   2.975
26855WAT     H180807   4.425   4.570   2.922
26855WAT     H280808   4.476   4.610   3.072
26856WAT      O80809   3.696   2.104   0.801
26856WAT     H180810   3.790   2.138   0.801
26856WAT     H280811   3.683   2.041   0.877
26857WAT      O80812   2.806   8.599   7.725
26857WAT     H180813   2.871   8.623   7.798
26857WAT     H280814   2.715   8.633   7.749
26858WAT      O80815   9.020   4.008   2.561
26858WAT     H180816   9.098   4.046   2.511
26858WAT     H280817   9.008   3.912   2.535
26859WAT      O80818   1.102   2.577   4.086
26859WAT     H180819   1.006   2.603   4.078
26859WAT     H280820   1.153   2.615   4.010
26860WAT      O80821   5.807   7.849   9.050
26860WAT     H180822   5.836   7.863   9.144
26860WAT     H280823   5.776   7.936   9.011
26861WAT      O80824   0.038   1.776   6.954
26861WAT     H180825   0.062   1.869   6.926
26861WAT     H280826   0.117   1.716   6.940
26862WAT      O80827   8.128   6.418   6.240
26862WAT     H180828   8.056   6.485   6.221
26862WAT     H280829   8.095   6.327   6.216
26863WAT      O80830   8.480   8.425   9.634
26863WAT     H180831   8.575   8.454   9.633
26863WAT     H280832   8.421   8.506   9.634
26864WAT      O80833   2.906   4.914   3.908
26864WAT     H180834   2.878   4.848   3.839
26864WAT     H280835   2.926   5.002   3.864
26865WAT      O80836   6.381   6.214   3.540
26865WAT     H180837   6.457   6.186   3.599
26865WAT     H280838   6.296   6.177   3.577
26866WAT      O80839   3.323   0.492   9.115
26866WAT     H180840   3.236   0.499   9.067
26866WAT     H280841   3.358   0.584   9.134
26867WAT      O80842   8.687   5.110   7.489
26867WAT     H180843   8.784   5.112   7.466
26867WAT     H280844   8.633   5.113   7.405
26868WAT      O80845   6.933   5.394   6.728
26868WAT     H180846   6.900   5.432   6.814
26868WAT     H280847   7.032   5.406   6.722
26869WAT      O80848   6.830   3.044   3.811
26869WAT     H180849   6.831   3.023   3.713
26869WAT     H280850   6.911   3.099   3.834
26870WAT      O80851   4.673   8.694   8.337
26870WAT     H180852   4.630   8.777   8.301
26870WAT     H280853   4.733   8.655   8.268
26871WAT      O80854   9.656   5.053   4.559
26871WAT     H180855   9.673   4.954   4.557
26871WAT     H280856   9.558   5.070   4.549
26872WAT      O80857   0.350   3.302   9.688
26872WAT     H180858   0.401   3.263   9.766
26872WAT     H280859   0.413   3.357   9.633
26873WAT      O80860   2.368   1.468   9.442
26873WAT     H180861   2.371   1.487   9.344
26873WAT     H280862   2.460   1.474   9.480
26874WAT      O80863   6.333   1.989   1.505
26874WAT     H180864   6.380   2.073   1.532
26874WAT     H280865   6.235   2.006   1.496
26875WAT      O80866   6.396   8.034   3.708
26875WAT     H180867   6.428   7.942   3.686
26875WAT     H280868   6.445   8.068   3.788
26876WAT      O80869   1.230   9.332   2.113
26876WAT     H180870   1.209   9.403   2.179
26876WAT     H280871   1.279   9.257   2.158
26877WAT      O80872   3.662   4.362   3.270
26877WAT     H180873   3.680   4.341   3.366
26877WAT     H280874   3.606   4.445   3.265
26878WAT      O80875   2.802   2.651   5.453
26878WAT     H180876   2.827   2.650   5.356
26878WAT     H280877   2.848   2.576   5.500
26879WAT      O80878   6.144   4.470   1.793
26879WAT     H180879   6.091   4.510   1.718
26879WAT     H280880   6.089   4.471   1.877
26880WAT      O80881   7.466   2.405   7.732
26880WAT     H180882   7.369   2.384   7.729
26880WAT     H280883   7.519   2.320   7.738
26881WAT      O80884   8.579   7.832   7.593
26881WAT     H180885   8.560   7.740   7.556
26881WAT     H280886   8.638   7.824   7.673
26882WAT      O80887   9.325   2.623   5.719
26882WAT     H180888   9.321   2.717   5.753
26882WAT     H280889   9.270   2.564   5.778
26883WAT      O80890   3.171   8.827   2.451
26883WAT     H180891   3.247   8.858   2.509
26883WAT     H280892   3.207   8.775   2.374
26884WAT      O80893   3.763   6.853   1.282
26884WAT     H180894   3.668   6.825   1.267
26884WAT     H280895   3.765   6.949   1.308
26885WAT      O80896   0.835   8.087   5.581
26885WAT     H180897   0.922   8.060   5.540
26885WAT     H280898   0.843   8.180   5.618
26886WAT      O80899   7.635   5.243   5.089
26886WAT     H180900   7.653   5.163   5.147
26886WAT     H280901   7.537   5.248   5.069
26887WAT      O80902   0.101   3.858   7.501
26887WAT     H180903   0.013   3.882   7.541
26887WAT     H280904   0.170   3.847   7.573
26888WAT      O80905   0.869   1.535   6.367
26888WAT     H180906   0.810   1.455   6.383
26888WAT     H280907   0.964   1.511   6.389
26889WAT      O80908   6.521   8.996   9.196
26889WAT     H180909   6.534   8.922   9.263
26889WAT     H280910   6.451   8.970   9.130
26890WAT      O80911   7.193   2.654   8.993
26890WAT     H180912   7.191   2.737   9.049
26890WAT     H280913   7.280   2.649   8.945
26891WAT      O80914   7.261   4.659   0.663
26891WAT     H180915   7.310   4.644   0.749
26891WAT     H280916   7.227   4.572   0.628
26892WAT      O80917   9.872   3.185   8.111
26892WAT     H180918   9.910   3.231   8.031
26892WAT     H280919   9.907   3.227   8.194
26893WAT      O80920   6.883   5.274   2.547
26893WAT     H180921   6.848   5.181   2.557
26893WAT     H280922   6.983   5.272   2.538
26894WAT      O80923   4.988   6.290   6.693
26894WAT     H180924   4.992   6.349   6.613
26894WAT     H280925   5.079   6.285   6.735
26895WAT      O80926   0.198   3.473   6.958
26895WAT     H180927   0.153   3.558   6.985
26895WAT     H280928   0.147   3.395   6.995
26896WAT      O80929   2.591   8.456   2.378
26896WAT     H180930   2.589   8.360   2.349
26896WAT     H280931   2.665   8.470   2.443
26897WAT      O80932   3.583   0.696   4.360
26897WAT     H180933   3.534   0.610   4.380
26897WAT     H280934   3.657   0.708   4.427
26898WAT      O80935   5.059   4.556   1.679
26898WAT     H180936   5.089   4.575   1.772
26898WAT     H280937   4.978   4.497   1.682
26899WAT      O80938   6.577   0.703   5.845
26899WAT     H180939   6.538   0.614   5.865
26899WAT     H280940   6.674   0.703   5.869
26900WAT      O80941   8.726   4.726   7.197
26900WAT     H180942   8.670   4.807   7.183
26900WAT     H280943   8.799   4.746   7.263
26901WAT      O80944   0.033   4.773   3.646
26901WAT     H180945   0.059   4.772   3.742
26901WAT     H280946  -0.057   4.730   3.636
26902WAT      O80947   2.267   5.361   9.469
26902WAT     H180948   2.217   5.371   9.555
26902WAT     H280949   2.285   5.264   9.452
26903WAT      O80950   0.775   6.639   3.188
26903WAT     H180951   0.726   6.605   3.108
26903WAT     H280952   0.860   6.684   3.159
26904WAT      O80953   9.280   0.923   4.464
26904WAT     H180954   9.207   0.974   4.510
26904WAT     H280955   9.269   0.932   4.365
26905WAT      O80956   5.309   6.821   8.333
26905WAT     H180957   5.347   6.783   8.249
26905WAT     H280958   5.212   6.795   8.341
26906WAT      O80959   3.824   4.263   8.519
26906WAT     H180960   3.821   4.301   8.427
26906WAT     H280961   3.918   4.234   8.540
26907WAT      O80962   1.805   9.413   9.686
26907WAT     H180963   1.758   9.478   9.627
26907WAT     H280964   1.769   9.421   9.779
26908WAT      O80965   4.856   9.518   5.320
26908WAT     H180966   4.851   9.489   5.415
26908WAT     H280967   4.845   9.439   5.259
26909WAT      O80968   3.228   6.694   3.015
26909WAT     H180969   3.190   6.713   3.105
26909WAT     H280970   3.169   6.735   2.945
26910WAT      O80971   4.012   6.009   0.947
26910WAT     H180972   3.929   5.968   0.984
26910WAT     H280973   4.083   6.010   1.018
26911WAT      O80974   0.857   5.310   7.411
26911WAT     H180975   0.867   5.224   7.461
26911WAT     H280976   0.783   5.302   7.344
26912WAT      O80977   4.603   2.570   3.521
26912WAT     H180978   4.635   2.624   3.599
26912WAT     H280979   4.671   2.501   3.499
26913WAT      O80980   2.119   7.772   5.533
26913WAT     H180981   2.132   7.674   5.551
26913WAT     H280982   2.091   7.818   5.618
26914WAT      O80983   8.723   2.331   4.886
26914WAT     H180984   8.760   2.255   4.833
26914WAT     H280985   8.644   2.370   4.838
26915WAT      O80986   1.381   9.032   0.339
26915WAT     H180987   1.474   9.002   0.361
26915WAT     H280988   1.318   9.001   0.411
26916WAT      O80989   1.276   1.724   1.450
26916WAT     H180990   1.328   1.678   1.522
26916WAT     H280991   1.248   1.657   1.381
26917WAT      O80992   5.819   4.340   6.277
26917WAT     H180993   5.733   4.332   6.228
26917WAT     H280994   5.834   4.258   6.333
26918WAT      O80995   6.269   3.116   0.445
26918WAT     H180996   6.355   3.084   0.484
26918WAT     H280997   6.258   3.080   0.352
26919WAT      O80998   4.584   1.865   8.741
26919WAT     H180999   4.630   1.779   8.721
26919WAT     H281000   4.567   1.914   8.655
26920WAT      O81001   3.130   8.343   2.913
26920WAT     H181002   3.058   8.274   2.916
26920WAT     H281003   3.176   8.338   2.824
26921WAT      O81004   4.602   2.480   2.814
26921WAT     H181005   4.581   2.494   2.911
26921WAT     H281006   4.538   2.414   2.775
26922WAT      O81007   5.009   4.971   9.288
26922WAT     H181008   4.993   4.994   9.192
26922WAT     H281009   4.962   5.037   9.347
26923WAT      O81010   8.127   8.514   9.562
26923WAT     H181011   8.170   8.570   9.633
26923WAT     H281012   8.153   8.418   9.576
26924WAT      O81013   3.523   9.638   3.052
26924WAT     H181014   3.505   9.735   3.067
26924WAT     H281015   3.533   9.621   2.954
26925WAT      O81016   6.200   0.436   9.408
26925WAT     H181017   6.181   0.338   9.421
26925WAT     H281018   6.202   0.482   9.496
26926WAT      O81019   3.748   4.406   2.653
26926WAT     H181020   3.835   4.442   2.687
26926WAT     H281021   3.674   4.438   2.713
26927WAT      O81022   0.761   0.562   6.336
26927WAT     H181023   0.737   0.583   6.430
26927WAT     H281024   0.707   0.619   6.274
26928WAT      O81025   3.519   4.408   0.534
26928WAT     H181026   3.618   4.410   0.549
26928WAT     H281027   3.486   4.314   0.544
26929WAT      O81028   6.860   4.981   1.882
26929WAT     H181029   6.919   4.907   1.912
26929WAT     H281030   6.841   4.971   1.784
26930WAT      O81031   0.128   9.024   7.389
26930WAT     H181032   0.201   8.983   7.336
26930WAT     H281033   0.121   9.122   7.368
26931WAT      O81034   4.865   0.696   2.115
26931WAT     H181035   4.884   0.686   2.213
26931WAT     H281036   4.891   0.788   2.086
26932WAT      O81037   1.746   1.063   9.724
26932WAT     H181038   1.757   0.973   9.682
26932WAT     H281039   1.726   1.131   9.653
26933WAT      O81040   6.070   3.568   4.110
26933WAT     H181041   6.135   3.493   4.126
26933WAT     H281042   5.992   3.557   4.171
26934WAT      O81043   8.765   0.370   9.503
26934WAT     H181044   8.732   0.324   9.586
26934WAT     H281045   8.826   0.445   9.528
26935WAT      O81046   8.833   2.857   0.458
26935WAT     H181047   8.928   2.879   0.482
26935WAT     H281048   8.818   2.878   0.361
26936WAT      O81049   4.714   8.610   7.687
26936WAT     H181050   4.646   8.536   7.696
26936WAT     H281051   4.687   8.686   7.746
26937WAT      O81052   3.819   9.823   0.179
26937WAT     H181053   3.843   9.908   0.132
26937WAT     H281054   3.722   9.802   0.163
26938WAT      O81055   4.820   0.352   7.809
26938WAT     H181056   4.777   0.309   7.730
26938WAT     H281057   4.758   0.420   7.848
26939WAT      O81058   7.451   8.030   3.497
26939WAT     H181059   7.439   8.123   3.461
26939WAT     H281060   7.514   7.980   3.438
26940WAT      O81061   0.899   8.690   9.598
26940WAT     H181062   0.942   8.609   9.638
26940WAT     H281063   0.882   8.757   9.669
26941WAT      O81064   2.315   9.443   5.362
26941WAT     H181065   2.308   9.541   5.346
26941WAT     H281066   2.367   9.401   5.288
26942WAT      O81067   5.721   8.648   4.660
26942WAT     H181068   5.806   8.596   4.649
26942WAT     H281069   5.644   8.585   4.667
26943WAT      O81070   6.127   7.263   8.819
26943WAT     H181071   6.121   7.258   8.719
26943WAT     H281072   6.038   7.245   8.859
26944WAT      O81073   4.892   6.831   0.309
26944WAT     H181074   4.829   6.838   0.232
26944WAT     H281075   4.959   6.905   0.305
26945WAT      O81076   0.380   1.369   2.726
26945WAT     H181077   0.375   1.271   2.744
26945WAT     H281078   0.436   1.413   2.796
26946WAT      O81079   3.228   2.505   2.898
26946WAT     H181080   3.179   2.426   2.933
26946WAT     H281081   3.227   2.503   2.798
26947WAT      O81082   5.541   2.706   1.554
26947WAT     H181083   5.484   2.646   1.499
26947WAT     H281084   5.545   2.671   1.648
26948WAT      O81085   9.483   8.308   2.765
26948WAT     H181086   9.539   8.262   2.834
26948WAT     H281087   9.536   8.320   2.682
26949WAT      O81088   4.931   9.195   3.571
26949WAT     H181089   4.974   9.234   3.490
26949WAT     H281090   4.977   9.109   3.595
26950WAT      O81091   2.970   5.452   4.399
26950WAT     H181092   2.886   5.501   4.421
26950WAT     H281093   3.049   5.506   4.427
26951WAT      O81094   8.567   8.734   0.236
26951WAT     H181095   8.639   8.682   0.190
26951WAT     H281096   8.533   8.682   0.314
26952WAT      O81097   4.779   7.686   7.212
26952WAT     H181098   4.872   7.719   7.196
26952WAT     H281099   4.768   7.663   7.308
26953WAT      O81100   8.239   7.162   7.372
26953WAT     H181101   8.280   7.191   7.459
26953WAT     H281102   8.257   7.065   7.357
26954WAT      O81103   7.973   1.562   3.878
26954WAT     H181104   7.929   1.642   3.836
26954WAT     H281105   8.053   1.536   3.825
26955WAT      O81106   4.840   5.532   3.933
26955WAT     H181107   4.927   5.485   3.918
26955WAT     H281108   4.856   5.631   3.933
26956WAT      O81109   7.425   4.162   0.240
26956WAT     H181110   7.363   4.105   0.186
26956WAT     H281111   7.502   4.107   0.270
26957WAT      O81112   9.552   6.362   0.358
26957WAT     H181113   9.483   6.422   0.319
26957WAT     H281114   9.508   6.293   0.416
26958WAT      O81115   7.716   2.075   2.301
26958WAT     H181116   7.651   2.119   2.239
26958WAT     H281117   7.699   1.976   2.301
26959WAT      O81118   8.147   7.395   1.717
26959WAT     H181119   8.085   7.332   1.672
26959WAT     H281120   8.118   7.489   1.699
26960WAT      O81121   0.725   1.560   8.714
26960WAT     H181122   0.821   1.561   8.684
26960WAT     H281123   0.700   1.651   8.746
26961WAT      O81124   0.704   7.518   3.580
26961WAT     H181125   0.791   7.561   3.604
26961WAT     H281126   0.636   7.539   3.650
26962WAT      O81127   2.698   5.262   8.792
26962WAT     H181128   2.789   5.270   8.832
26962WAT     H281129   2.702   5.290   8.696
26963WAT      O81130   1.638   0.876   2.756
26963WAT     H181131   1.641   0.923   2.668
26963WAT     H281132   1.542   0.857   2.780
26964WAT      O81133   0.698   1.547   7.422
26964WAT     H181134   0.723   1.643   7.438
26964WAT     H281135   0.599   1.541   7.408
26965WAT      O81136   6.512   6.958   5.121
26965WAT     H181137   6.434   6.903   5.152
26965WAT     H281138   6.530   7.031   5.187
26966WAT      O81139   3.067   1.978   3.283
26966WAT     H181140   2.976   2.013   3.263
26966WAT     H281141   3.067   1.935   3.373
26967WAT      O81142   6.831   2.905   1.716
26967WAT     H181143   6.824   2.805   1.712
26967WAT     H281144   6.796   2.945   1.632
26968WAT      O81145   7.530   5.663   4.312
26968WAT     H181146   7.469   5.597   4.268
26968WAT     H281147   7.577   5.717   4.242
26969WAT      O81148   1.125   4.965   6.869
26969WAT     H181149   1.133   4.905   6.948
26969WAT     H281150   1.029   4.981   6.849
26970WAT      O81151   4.881   1.716   3.089
26970WAT     H181152   4.962   1.674   3.129
26970WAT     H281153   4.909   1.792   3.030
26971WAT      O81154   8.547   3.100   4.394
26971WAT     H181155   8.596   3.072   4.311
26971WAT     H281156   8.491   3.181   4.375
26972WAT      O81157   4.232   5.032   1.421
26972WAT     H181158   4.319   5.016   1.466
26972WAT     H281159   4.229   5.126   1.387
26973WAT      O81160   4.099   5.850   0.203
26973WAT     H181161   4.008   5.885   0.179
26973WAT     H281162   4.103   5.831   0.301
26974WAT      O81163   4.657   8.529   2.116
26974WAT     H181164   4.594   8.479   2.176
26974WAT     H281165   4.719   8.584   2.172
26975WAT      O81166   6.461   3.588   0.550
26975WAT     H181167   6.493   3.573   0.643
26975WAT     H281168   6.510   3.529   0.487
26976WAT      O81169   2.906   1.832   9.003
26976WAT     H181170   2.835   1.900   8.988
26976WAT     H281171   2.958   1.855   9.085
26977WAT      O81172   5.135   7.824   0.183
26977WAT     H181173   5.103   7.755   0.118
26977WAT     H281174   5.231   7.846   0.163
26978WAT      O81175   3.987   6.610   7.516
26978WAT     H181176   4.034   6.543   7.575
26978WAT     H281177   3.989   6.699   7.560
26979WAT      O81178   3.321   7.793   9.165
26979WAT     H181179   3.338   7.874   9.221
26979WAT     H281180   3.238   7.807   9.110
26980WAT      O81181   8.068   5.226   6.367
26980WAT     H181182   8.007   5.172   6.309
26980WAT     H281183   8.031   5.319   6.377
26981WAT      O81184   0.450   6.354   3.071
26981WAT     H181185   0.427   6.315   2.981
26981WAT     H281186   0.476   6.280   3.133
26982WAT      O81187   9.278   9.240   7.042
26982WAT     H181188   9.191   9.283   7.019
26982WAT     H281189   9.270   9.141   7.031
26983WAT      O81190   1.571   5.142   2.876
26983WAT     H181191   1.657   5.180   2.909
26983WAT     H281192   1.524   5.094   2.951
26984WAT      O81193   3.302   3.010   0.500
26984WAT     H181194   3.238   2.936   0.523
26984WAT     H281195   3.388   2.972   0.466
26985WAT      O81196   9.182   3.699   3.305
26985WAT     H181197   9.124   3.766   3.259
26985WAT     H281198   9.130   3.616   3.323
26986WAT      O81199   8.408   6.903   8.047
26986WAT     H181200   8.344   6.838   8.088
26986WAT     H281201   8.464   6.857   7.979
26987WAT      O81202   5.563   4.336   5.467
26987WAT     H181203   5.568   4.431   5.436
26987WAT     H281204   5.636   4.319   5.533
26988WAT      O81205   5.171   7.969   3.080
26988WAT     H181206   5.264   8.000   3.064
26988WAT     H281207   5.168   7.907   3.158
26989WAT      O81208   9.857   5.147   4.782
26989WAT     H181209   9.949   5.128   4.745
26989WAT     H281210   9.790   5.092   4.733
26990WAT      O81211   0.418   5.311   9.502
26990WAT     H181212   0.353   5.386   9.489
26990WAT     H281213   0.501   5.330   9.450
26991WAT      O81214   1.918   8.339   7.196
26991WAT     H181215   1.867   8.421   7.171
26991WAT     H281216   1.853   8.266   7.220
26992WAT      O81217   0.295   1.190   3.733
26992WAT     H181218   0.197   1.171   3.731
26992WAT     H281219   0.333   1.181   3.641
26993WAT      O81220   4.627   9.178   7.111
26993WAT     H181221   4.592   9.270   7.128
26993WAT     H281222   4.707   9.162   7.168
26994WAT      O81223   0.996   1.000   7.113
26994WAT     H181224   1.046   1.072   7.064
26994WAT     H281225   0.903   1.030   7.132
26995WAT      O81226   6.357   6.524   4.367
26995WAT     H181227   6.290   6.598   4.361
26995WAT     H281228   6.317   6.441   4.327
26996WAT      O81229   7.919   0.119   7.961
26996WAT     H181230   8.011   0.156   7.944
26996WAT     H281231   7.851   0.186   7.933
26997WAT      O81232   6.861   3.810   2.650
26997WAT     H181233   6.848   3.836   2.746
26997WAT     H281234   6.802   3.867   2.592
26998WAT      O81235   1.367   8.035   0.309
26998WAT     H181236   1.300   8.021   0.382
26998WAT     H281237   1.379   7.949   0.258
26999WAT      O81238   6.133   3.564   1.716
26999WAT     H181239   6.058   3.521   1.666
26999WAT     H281240   6.127   3.664   1.706
27000WAT      O81241   5.977   0.816   2.910
27000WAT     H181242   6.047   0.835   2.842
27000WAT     H281243   5.997   0.730   2.956
27001WAT      O81244   8.487   7.304   9.197
27001WAT     H181245   8.533   7.231   9.147
27001WAT     H281246   8.531   7.392   9.176
27002WAT      O81247   9.452   4.893   3.860
27002WAT     H181248   9.436   4.838   3.778
27002WAT     H281249   9.364   4.927   3.894
27003WAT      O81250   6.924   5.434   7.306
27003WAT     H181251   6.877   5.514   7.344
27003WAT     H281252   7.019   5.434   7.337
27004WAT      O81253   2.118   1.077   7.078
27004WAT     H181254   2.118   1.144   7.152
27004WAT     H281255   2.025   1.044   7.062
27005WAT      O81256   6.028   9.214   5.332
27005WAT     H181257   6.003   9.198   5.236
27005WAT     H281258   6.102   9.152   5.358
27006WAT      O81259   2.743   8.243   6.802
27006WAT     H181260   2.662   8.302   6.806
27006WAT     H281261   2.826   8.299   6.805
27007WAT      O81262   7.563   2.639   0.864
27007WAT     H181263   7.614   2.631   0.779
27007WAT     H281264   7.563   2.550   0.911
27008WAT      O81265   5.746   1.491   0.823
27008WAT     H181266   5.684   1.492   0.902
27008WAT     H281267   5.705   1.440   0.748
27009WAT      O81268   2.448   5.749   8.581
27009WAT     H181269   2.467   5.651   8.586
27009WAT     H281270   2.363   5.764   8.530
27010WAT      O81271   1.008   3.517   9.468
27010WAT     H181272   0.977   3.474   9.554
27010WAT     H281273   1.107   3.514   9.463
27011WAT      O81274   2.913   9.699   6.308
27011WAT     H181275   3.005   9.727   6.336
27011WAT     H281276   2.911   9.599   6.299
27012WAT      O81277   4.360   2.634   9.492
27012WAT     H181278   4.273   2.587   9.506
27012WAT     H281279   4.409   2.638   9.579
27013WAT      O81280   5.068   8.911   1.048
27013WAT     H181281   4.977   8.889   1.082
27013WAT     H281282   5.079   9.010   1.040
27014WAT      O81283   8.291   3.755   8.313
27014WAT     H181284   8.345   3.745   8.229
27014WAT     H281285   8.323   3.836   8.363
27015WAT      O81286   6.320   3.881   6.245
27015WAT     H181287   6.419   3.890   6.255
27015WAT     H281288   6.274   3.946   6.306
27016WAT      O81289   4.194   7.178   6.157
27016WAT     H181290   4.101   7.182   6.193
27016WAT     H281291   4.227   7.083   6.161
27017WAT      O81292   3.913   6.458   3.320
27017WAT     H181293   3.958   6.411   3.244
27017WAT     H281294   3.972   6.532   3.353
27018WAT      O81295   6.841   7.912   8.220
27018WAT     H181296   6.786   7.957   8.290
27018WAT     H281297   6.933   7.895   8.256
27019WAT      O81298   2.473   9.058   2.638
27019WAT     H181299   2.443   8.965   2.617
27019WAT     H281300   2.563   9.074   2.599
27020WAT      O81301   9.829   9.594   4.868
27020WAT     H181302   9.832   9.671   4.933
27020WAT     H281303   9.736   9.558   4.865
27021WAT      O81304   8.164   1.712   8.410
27021WAT     H181305   8.159   1.806   8.443
27021WAT     H281306   8.071   1.677   8.395
27022WAT      O81307   7.582   8.195   4.929
27022WAT     H181308   7.483   8.182   4.923
27022WAT     H281309   7.629   8.123   4.879
27023WAT      O81310   7.239   5.784   1.131
27023WAT     H181311   7.325   5.824   1.163
27023WAT     H281312   7.254   5.740   1.042
27024WAT      O81313   0.294   1.651   8.000
27024WAT     H181314   0.311   1.729   7.941
27024WAT     H281315   0.298   1.680   8.096
27025WAT      O81316   4.389   7.042   5.253
27025WAT     H181317   4.370   6.945   5.236
27025WAT     H281318   4.399   7.057   5.352
27026WAT      O81319   0.561   1.264   0.266
27026WAT     H181320   0.658   1.248   0.284
27026WAT     H281321   0.506   1.201   0.321
27027WAT      O81322   5.645   6.993   7.206
27027WAT     H181323   5.740   7.023   7.219
27027WAT     H281324   5.645   6.897   7.175
27028WAT      O81325   1.927   0.837   0.281
27028WAT     H181326   1.876   0.760   0.318
27028WAT     H281327   2.019   0.838   0.321
27029WAT      O81328   4.376   8.103   8.653
27029WAT     H181329   4.434   8.180   8.625
27029WAT     H281330   4.431   8.036   8.702
27030WAT      O81331   1.257   0.073   0.706
27030WAT     H181332   1.352   0.082   0.735
27030WAT     H281333   1.233  -0.024   0.700
27031WAT      O81334   8.982   9.256   5.424
27031WAT     H181335   8.946   9.208   5.344
27031WAT     H281336   8.909   9.273   5.489
27032WAT      O81337   6.118   9.402   0.088
27032WAT     H181338   6.095   9.348   0.008
27032WAT     H281339   6.152   9.492   0.060
27033WAT      O81340   7.717   0.420   7.243
27033WAT     H181341   7.730   0.332   7.290
27033WAT     H281342   7.623   0.425   7.208
27034WAT      O81343   4.099   1.392   0.441
27034WAT     H181344   4.127   1.481   0.406
27034WAT     H281345   4.135   1.320   0.382
27035WAT      O81346   3.643   9.777   6.418
27035WAT     H181347   3.575   9.805   6.350
27035WAT     H281348   3.667   9.855   6.475
27036WAT      O81349   5.960   9.045   4.535
27036WAT     H181350   6.008   9.017   4.452
27036WAT     H281351   5.874   8.993   4.542
27037WAT      O81352   9.541   5.593   9.754
27037WAT     H181353   9.501   5.617   9.665
27037WAT     H281354   9.637   5.619   9.755
27038WAT      O81355   3.106   2.341   4.091
27038WAT     H181356   3.157   2.295   4.163
27038WAT     H281357   3.161   2.417   4.055
27039WAT      O81358   6.063   4.056   6.083
27039WAT     H181359   5.981   3.999   6.084
27039WAT     H281360   6.108   4.051   6.173
27040WAT      O81361   9.175   6.803   9.793
27040WAT     H181362   9.107   6.849   9.849
27040WAT     H281363   9.201   6.716   9.836
27041WAT      O81364   1.465   1.551   5.489
27041WAT     H181365   1.485   1.582   5.396
27041WAT     H281366   1.539   1.492   5.521
27042WAT      O81367   5.638   5.180   0.957
27042WAT     H181368   5.680   5.238   1.027
27042WAT     H281369   5.704   5.164   0.883
27043WAT      O81370   4.858   9.139   8.712
27043WAT     H181371   4.933   9.156   8.649
27043WAT     H281372   4.771   9.162   8.668
27044WAT      O81373   7.002   2.248   3.478
27044WAT     H181374   7.038   2.233   3.570
27044WAT     H281375   6.964   2.341   3.472
27045WAT      O81376   2.752   6.431   0.868
27045WAT     H181377   2.778   6.426   0.965
27045WAT     H281378   2.654   6.448   0.860
27046WAT      O81379   7.388   9.049   7.768
27046WAT     H181380   7.484   9.063   7.742
27046WAT     H281381   7.380   8.962   7.816
27047WAT      O81382   6.187   2.390   9.256
27047WAT     H181383   6.256   2.336   9.208
27047WAT     H281384   6.154   2.339   9.335
27048WAT      O81385   2.588   9.116   6.937
27048WAT     H181386   2.662   9.050   6.947
27048WAT     H281387   2.502   9.076   6.971
27049WAT      O81388   7.900   3.606   8.079
27049WAT     H181389   7.997   3.608   8.056
27049WAT     H281390   7.848   3.650   8.005
27050WAT      O81391   0.238   7.193   0.676
27050WAT     H181392   0.337   7.197   0.685
27050WAT     H281393   0.202   7.286   0.665
27051WAT      O81394   6.665   2.933   2.412
27051WAT     H181395   6.620   2.920   2.500
27051WAT     H281396   6.619   2.877   2.343
27052WAT      O81397   6.742   0.923   9.233
27052WAT     H181398   6.644   0.933   9.249
27052WAT     H281399   6.775   1.001   9.180
27053WAT      O81400   0.186   3.630   8.826
27053WAT     H181401   0.211   3.550   8.881
27053WAT     H281402   0.122   3.602   8.755
27054WAT      O81403   2.798   4.209   8.383
27054WAT     H181404   2.897   4.203   8.378
27054WAT     H281405   2.771   4.263   8.463
27055WAT      O81406   4.882   7.529   9.480
27055WAT     H181407   4.859   7.603   9.416
27055WAT     H281408   4.939   7.461   9.433
27056WAT      O81409   6.905   3.650   4.307
27056WAT     H181410   6.988   3.705   4.298
27056WAT     H281411   6.930   3.556   4.332
27057WAT      O81412   6.515   5.991   7.498
27057WAT     H181413   6.476   5.980   7.589
27057WAT     H281414   6.482   5.917   7.439
27058WAT      O81415   4.093   0.631   0.068
27058WAT     H181416   4.017   0.694   0.082
27058WAT     H281417   4.178   0.683   0.063
27059WAT      O81418   4.460   5.289   2.995
27059WAT     H181419   4.392   5.360   2.976
27059WAT     H281420   4.439   5.245   3.082
27060WAT      O81421   0.657   5.020   2.737
27060WAT     H181422   0.579   5.005   2.676
27060WAT     H281423   0.679   5.118   2.738
27061WAT      O81424   6.129   1.850   0.162
27061WAT     H181425   6.183   1.922   0.205
27061WAT     H281426   6.060   1.892   0.103
27062WAT      O81427   6.551   3.756   2.383
27062WAT     H181428   6.503   3.672   2.408
27062WAT     H281429   6.521   3.786   2.293
27063WAT      O81430   4.430   8.051   7.953
27063WAT     H181431   4.385   7.988   7.888
27063WAT     H281432   4.442   8.005   8.041
27064WAT      O81433   0.903   2.323   6.412
27064WAT     H181434   0.974   2.295   6.477
27064WAT     H281435   0.863   2.409   6.442
27065WAT      O81436   3.080   7.820   7.531
27065WAT     H181437   3.162   7.840   7.476
27065WAT     H281438   3.000   7.815   7.471
27066WAT      O81439   2.335   6.515   6.040
27066WAT     H181440   2.314   6.612   6.048
27066WAT     H281441   2.387   6.499   5.956
27067WAT      O81442   2.793   8.391   4.771
27067WAT     H181443   2.786   8.410   4.673
27067WAT     H281444   2.720   8.439   4.819
27068WAT      O81445   6.626   2.966   2.710
27068WAT     H181446   6.650   2.927   2.799
27068WAT     H281447   6.586   3.056   2.723
27069WAT      O81448   9.390   4.816   3.632
27069WAT     H181449   9.333   4.737   3.612
27069WAT     H281450   9.333   4.898   3.642
27070WAT      O81451   1.196   8.351   9.581
27070WAT     H181452   1.239   8.429   9.535
27070WAT     H281453   1.232   8.266   9.542
27071WAT      O81454   9.770   7.450   1.810
27071WAT     H181455   9.731   7.382   1.872
27071WAT     H281456   9.856   7.484   1.848
27072WAT      O81457   4.697   7.829   0.240
27072WAT     H181458   4.726   7.739   0.270
27072WAT     H281459   4.767   7.868   0.179
27073WAT      O81460   1.954   9.236   8.263
27073WAT     H181461   1.917   9.324   8.231
27073WAT     H281462   1.947   9.232   8.363
27074WAT      O81463   9.168   6.309   4.455
27074WAT     H181464   9.236   6.246   4.492
27074WAT     H281465   9.101   6.331   4.526
27075WAT      O81466   0.613   7.212   6.911
27075WAT     H181467   0.665   7.241   6.992
27075WAT     H281468   0.543   7.281   6.890
27076WAT      O81469   6.341   2.533   6.537
27076WAT     H181470   6.333   2.438   6.507
27076WAT     H281471   6.340   2.593   6.457
27077WAT      O81472   1.534   4.230   5.273
27077WAT     H181473   1.455   4.194   5.223
27077WAT     H281474   1.550   4.174   5.354
27078WAT      O81475   1.779   6.401   9.139
27078WAT     H181476   1.868   6.358   9.154
27078WAT     H281477   1.792   6.500   9.129
27079WAT      O81478   0.187   8.239   2.271
27079WAT     H181479   0.239   8.240   2.356
27079WAT     H281480   0.098   8.196   2.287
27080WAT      O81481   8.803   2.113   2.519
27080WAT     H181482   8.841   2.122   2.427
27080WAT     H281483   8.712   2.154   2.521
27081WAT      O81484   7.867   2.691   3.812
27081WAT     H181485   7.774   2.686   3.774
27081WAT     H281486   7.870   2.639   3.898
27082WAT      O81487   2.367   2.003   3.195
27082WAT     H181488   2.338   2.065   3.268
27082WAT     H281489   2.298   2.002   3.123
27083WAT      O81490   7.123   9.685   1.936
27083WAT     H181491   7.109   9.655   2.030
27083WAT     H281492   7.196   9.632   1.894
27084WAT      O81493   3.123   2.807   5.169
27084WAT     H181494   3.219   2.786   5.148
27084WAT     H281495   3.075   2.830   5.084
27085WAT      O81496   7.801   0.792   6.277
27085WAT     H181497   7.718   0.766   6.328
27085WAT     H281498   7.801   0.891   6.261
27086WAT      O81499   7.424   9.799   7.603
27086WAT     H181500   7.377   9.726   7.652
27086WAT     H281501   7.412   9.787   7.504
27087WAT      O81502   5.977   0.458   0.968
27087WAT     H181503   5.908   0.386   0.956
27087WAT     H281504   6.017   0.481   0.879
27088WAT      O81505   3.820   6.357   9.160
27088WAT     H181506   3.881   6.285   9.128
27088WAT     H281507   3.741   6.316   9.206
27089WAT      O81508   8.796   8.562   5.737
27089WAT     H181509   8.766   8.581   5.830
27089WAT     H281510   8.717   8.534   5.682
27090WAT      O81511   7.739   0.544   6.588
27090WAT     H181512   7.754   0.447   6.569
27090WAT     H281513   7.804   0.599   6.536
27091WAT      O81514   9.383   5.075   4.568
27091WAT     H181515   9.357   4.981   4.593
27091WAT     H281516   9.309   5.117   4.515
27092WAT      O81517   1.719   0.056   8.848
27092WAT     H181518   1.799   0.083   8.795
27092WAT     H281519   1.749   0.025   8.939
27093WAT      O81520   4.284   6.082   8.495
27093WAT     H181521   4.220   6.017   8.452
27093WAT     H281522   4.249   6.108   8.585
27094WAT      O81523   8.820   4.210   8.196
27094WAT     H181524   8.792   4.154   8.274
27094WAT     H281525   8.877   4.286   8.228
27095WAT      O81526   2.737   0.605   7.475
27095WAT     H181527   2.767   0.546   7.400
27095WAT     H281528   2.728   0.551   7.559
27096WAT      O81529   5.630   2.130   8.349
27096WAT     H181530   5.721   2.144   8.309
27096WAT     H281531   5.568   2.093   8.280
27097WAT      O81532   4.171   4.896   3.199
27097WAT     H181533   4.124   4.808   3.191
27097WAT     H281534   4.258   4.892   3.150
27098WAT      O81535   3.172   5.037   3.340
27098WAT     H181536   3.238   5.111   3.329
27098WAT     H281537   3.155   5.020   3.437
27099WAT      O81538   9.215   0.656   1.429
27099WAT     H181539   9.201   0.708   1.344
27099WAT     H281540   9.303   0.610   1.426
27100WAT      O81541   1.000   2.686   7.009
27100WAT     H181542   0.960   2.595   7.000
27100WAT     H281543   1.090   2.687   6.965
27101WAT      O81544   7.817   3.015   5.004
27101WAT     H181545   7.802   3.113   5.017
27101WAT     H281546   7.863   3.001   4.916
27102WAT      O81547   9.071   5.267   1.763
27102WAT     H181548   9.060   5.341   1.829
27102WAT     H281549   9.124   5.299   1.685
27103WAT      O81550   0.797   3.719   3.576
27103WAT     H181551   0.704   3.697   3.546
27103WAT     H281552   0.860   3.712   3.498
27104WAT      O81553   1.470   7.334   3.086
27104WAT     H181554   1.387   7.365   3.131
27104WAT     H281555   1.532   7.412   3.072
27105WAT      O81556   6.436   1.036   3.923
27105WAT     H181557   6.369   0.963   3.912
27105WAT     H281558   6.515   1.019   3.864
27106WAT      O81559   1.116   5.509   6.814
27106WAT     H181560   1.211   5.532   6.833
27106WAT     H281561   1.099   5.518   6.716
27107WAT      O81562   7.559   3.299   2.971
27107WAT     H181563   7.623   3.329   2.900
27107WAT     H281564   7.470   3.341   2.955
27108WAT      O81565   2.585   0.538   4.463
27108WAT     H181566   2.575   0.492   4.375
27108WAT     H281567   2.514   0.506   4.526
27109WAT      O81568   8.116   7.370   5.768
27109WAT     H181569   8.154   7.387   5.859
27109WAT     H281570   8.065   7.451   5.738
27110WAT      O81571   0.436   1.682   6.183
27110WAT     H181572   0.478   1.631   6.108
27110WAT     H281573   0.377   1.622   6.236
27111WAT      O81574   0.782   4.183   7.524
27111WAT     H181575   0.839   4.107   7.494
27111WAT     H281576   0.839   4.253   7.567
27112WAT      O81577   6.991   3.279   1.667
27112WAT     H181578   6.987   3.378   1.662
27112WAT     H281579   6.927   3.247   1.737
27113WAT      O81580   1.790   2.869   5.684
27113WAT     H181581   1.878   2.867   5.732
27113WAT     H281582   1.803   2.844   5.588
27114WAT      O81583   9.593   8.657   0.784
27114WAT     H181584   9.595   8.698   0.875
27114WAT     H281585   9.676   8.603   0.769
27115WAT      O81586   4.160   9.132   7.931
27115WAT     H181587   4.065   9.114   7.955
27115WAT     H281588   4.198   9.052   7.884
27116WAT      O81589   7.048   3.498   4.677
27116WAT     H181590   7.020   3.471   4.584
27116WAT     H281591   6.983   3.461   4.743
27117WAT      O81592   8.851   2.884   5.491
27117WAT     H181593   8.797   2.965   5.466
27117WAT     H281594   8.833   2.811   5.425
27118WAT      O81595   7.635   5.460   8.852
27118WAT     H181596   7.585   5.423   8.930
27118WAT     H281597   7.641   5.560   8.861
27119WAT      O81598   2.229   4.242   0.623
27119WAT     H181599   2.132   4.261   0.640
27119WAT     H281600   2.236   4.163   0.562
27120WAT      O81601   0.248   7.683   0.082
27120WAT     H181602   0.190   7.621   0.029
27120WAT     H281603   0.242   7.775   0.044
27121WAT      O81604   4.378   0.685   8.887
27121WAT     H181605   4.356   0.717   8.795
27121WAT     H281606   4.312   0.723   8.952
27122WAT      O81607   8.364   4.808   0.364
27122WAT     H181608   8.348   4.716   0.328
27122WAT     H281609   8.459   4.834   0.348
27123WAT      O81610   8.448   8.289   6.550
27123WAT     H181611   8.473   8.216   6.614
27123WAT     H281612   8.404   8.249   6.470
27124WAT      O81613   7.238   4.208   5.184
27124WAT     H181614   7.267   4.186   5.278
27124WAT     H281615   7.292   4.286   5.150
27125WAT      O81616   2.990   1.090   0.479
27125WAT     H181617   3.017   1.045   0.564
27125WAT     H281618   2.976   1.021   0.408
27126WAT      O81619   6.198   1.987   8.298
27126WAT     H181620   6.240   1.896   8.300
27126WAT     H281621   6.122   1.991   8.363
27127WAT      O81622   3.298   9.376   3.895
27127WAT     H181623   3.307   9.443   3.970
27127WAT     H281624   3.302   9.284   3.933
27128WAT      O81625   6.885   7.150   8.161
27128WAT     H181626   6.812   7.090   8.193
27128WAT     H281627   6.933   7.190   8.240
27129WAT      O81628   9.027   1.243   4.167
27129WAT     H181629   8.957   1.210   4.104
27129WAT     H281630   9.026   1.187   4.250
27130WAT      O81631   3.025   9.127   1.285
27130WAT     H181632   2.944   9.177   1.253
27130WAT     H281633   3.041   9.049   1.224
27131WAT      O81634   3.051   7.348   8.602
27131WAT     H181635   3.002   7.315   8.683
27131WAT     H281636   3.129   7.288   8.585
27132WAT      O81637   1.618   0.339   6.844
27132WAT     H181638   1.701   0.393   6.828
27132WAT     H281639   1.607   0.323   6.942
27133WAT      O81640   3.425   6.471   5.701
27133WAT     H181641   3.458   6.378   5.719
27133WAT     H281642   3.480   6.536   5.754
27134WAT      O81643   6.387   1.951   4.568
27134WAT     H181644   6.317   2.011   4.607
27134WAT     H281645   6.377   1.948   4.469
27135WAT      O81646   5.296   9.173   7.476
27135WAT     H181647   5.384   9.219   7.472
27135WAT     H281648   5.310   9.074   7.483
27136WAT      O81649   7.235   9.586   3.354
27136WAT     H181650   7.286   9.582   3.440
27136WAT     H281651   7.153   9.529   3.361
27137WAT      O81652   3.429   8.535   8.363
27137WAT     H181653   3.465   8.518   8.271
27137WAT     H281654   3.458   8.461   8.424
27138WAT      O81655   5.693   8.010   9.762
27138WAT     H181656   5.762   7.938   9.749
27138WAT     H281657   5.650   7.998   9.852
27139WAT      O81658   4.667   2.882   1.910
27139WAT     H181659   4.640   2.962   1.965
27139WAT     H281660   4.589   2.820   1.901
27140WAT      O81661   0.102   5.243   4.457
27140WAT     H181662   0.195   5.270   4.433
27140WAT     H281663   0.082   5.271   4.551
27141WAT      O81664   3.384   2.449   1.421
27141WAT     H181665   3.382   2.399   1.507
27141WAT     H281666   3.460   2.514   1.422
27142WAT      O81667   3.033   4.114   0.128
27142WAT     H181668   3.030   4.119   0.028
27142WAT     H281669   3.037   4.018   0.156
27143WAT      O81670   7.683   0.563   5.469
27143WAT     H181671   7.759   0.604   5.419
27143WAT     H281672   7.702   0.567   5.567
27144WAT      O81673   7.784   8.240   9.516
27144WAT     H181674   7.817   8.334   9.524
27144WAT     H281675   7.737   8.228   9.428
27145WAT      O81676   5.526   2.518   4.511
27145WAT     H181677   5.547   2.421   4.499
27145WAT     H281678   5.608   2.566   4.541
27146WAT      O81679   2.208   5.922   0.305
27146WAT     H181680   2.220   6.008   0.355
27146WAT     H281681   2.133   5.870   0.347
27147WAT      O81682   5.241   7.092   7.954
27147WAT     H181683   5.196   7.012   7.913
27147WAT     H281684   5.337   7.094   7.926
27148WAT      O81685   8.327   3.005   7.613
27148WAT     H181686   8.279   3.063   7.549
27148WAT     H281687   8.276   2.920   7.626
27149WAT      O81688   1.924   7.088   2.779
27149WAT     H181689   1.873   7.091   2.865
27149WAT     H281690   1.933   6.993   2.749
27150WAT      O81691   4.769   3.659   8.277
27150WAT     H181692   4.756   3.628   8.371
27150WAT     H281693   4.863   3.692   8.266
27151WAT      O81694   3.343   4.616   0.715
27151WAT     H181695   3.276   4.565   0.769
27151WAT     H281696   3.397   4.553   0.660
27152WAT      O81697   7.702   9.801   1.523
27152WAT     H181698   7.759   9.854   1.586
27152WAT     H281699   7.724   9.827   1.429
27153WAT      O81700   4.631   2.175   4.022
27153WAT     H181701   4.575   2.168   4.105
27153WAT     H281702   4.704   2.107   4.026
27154WAT      O81703   1.233   8.924   2.152
27154WAT     H181704   1.293   8.993   2.192
27154WAT     H281705   1.277   8.882   2.073
27155WAT      O81706   8.569   6.921   1.810
27155WAT     H181707   8.481   6.875   1.801
27155WAT     H281708   8.641   6.868   1.765
27156WAT      O81709   6.321   1.813   1.294
27156WAT     H181710   6.315   1.883   1.365
27156WAT     H281711   6.313   1.722   1.337
27157WAT      O81712   0.121   6.869   7.654
27157WAT     H181713   0.166   6.955   7.678
27157WAT     H281714   0.190   6.800   7.632
27158WAT      O81715   0.701   3.635   3.897
27158WAT     H181716   0.693   3.703   3.824
27158WAT     H281717   0.733   3.680   3.981
27159WAT      O81718   7.926   8.487   2.057
27159WAT     H181719   8.006   8.500   1.998
27159WAT     H281720   7.867   8.568   2.052
27160WAT      O81721   2.736   0.560   8.848
27160WAT     H181722   2.739   0.656   8.819
27160WAT     H281723   2.821   0.514   8.822
27161WAT      O81724   3.965   9.359   9.508
27161WAT     H181725   4.024   9.424   9.554
27161WAT     H281726   3.938   9.286   9.571
27162WAT      O81727   6.798   1.164   0.187
27162WAT     H181728   6.834   1.073   0.205
27162WAT     H281729   6.740   1.193   0.263
27163WAT      O81730   5.172   7.343   1.914
27163WAT     H181731   5.114   7.395   1.851
27163WAT     H281732   5.211   7.405   1.982
27164WAT      O81733   7.296   6.739   1.875
27164WAT     H181734   7.317   6.763   1.781
27164WAT     H281735   7.368   6.772   1.936
27165WAT      O81736   5.284   1.248   5.788
27165WAT     H181737   5.305   1.315   5.717
27165WAT     H281738   5.194   1.208   5.771
27166WAT      O81739   2.166   7.202   2.007
27166WAT     H181740   2.245   7.192   2.067
27166WAT     H281741   2.086   7.227   2.062
27167WAT      O81742   9.694   9.541   3.477
27167WAT     H181743   9.759   9.607   3.515
27167WAT     H281744   9.697   9.457   3.531
27168WAT      O81745   4.755   6.852   8.791
27168WAT     H181746   4.671   6.900   8.765
27168WAT     H281747   4.769   6.860   8.889
27169WAT      O81748   7.994   6.330   1.221
27169WAT     H181749   7.994   6.389   1.140
27169WAT     H281750   7.942   6.247   1.202
27170WAT      O81751   5.649   6.037   6.999
27170WAT     H181752   5.636   6.126   7.042
27170WAT     H281753   5.745   6.025   6.974
27171WAT      O81754   1.121   3.206   6.502
27171WAT     H181755   1.036   3.239   6.461
27171WAT     H281756   1.123   3.106   6.501
27172WAT      O81757   4.070   0.134   7.703
27172WAT     H181758   4.045   0.082   7.784
27172WAT     H281759   4.004   0.208   7.688
27173WAT      O81760   5.075   1.398   2.471
27173WAT     H181761   5.078   1.496   2.487
27173WAT     H281762   5.125   1.350   2.543
27174WAT      O81763   3.237   3.205   2.068
27174WAT     H181764   3.325   3.252   2.073
27174WAT     H281765   3.245   3.124   2.009
27175WAT      O81766   2.205   5.934   0.044
27175WAT     H181767   2.236   5.973   0.130
27175WAT     H281768   2.228   5.994  -0.032
27176WAT      O81769   9.728   0.143   4.465
27176WAT     H181770   9.637   0.108   4.443
27176WAT     H281771   9.754   0.114   4.557
27177WAT      O81772   9.307   5.890   1.494
27177WAT     H181773   9.388   5.918   1.444
27177WAT     H281774   9.293   5.950   1.572
27178WAT      O81775   8.066   8.035   3.964
27178WAT     H181776   8.017   8.123   3.964
27178WAT     H281777   8.029   7.977   4.037
27179WAT      O81778   3.357   0.140   6.544
27179WAT     H181779   3.350   0.087   6.460
27179WAT     H281780   3.360   0.079   6.622
27180WAT      O81781   4.214   8.020   3.949
27180WAT     H181782   4.298   7.968   3.961
27180WAT     H281783   4.237   8.117   3.938
27181WAT      O81784   2.181   8.438   8.948
27181WAT     H181785   2.280   8.453   8.949
27181WAT     H281786   2.153   8.412   8.855
27182WAT      O81787   7.116   7.099   8.997
27182WAT     H181788   7.147   7.049   8.916
27182WAT     H281789   7.112   7.197   8.976
27183WAT      O81790   7.010   7.666   1.922
27183WAT     H181791   7.047   7.729   1.989
27183WAT     H281792   6.919   7.696   1.893
27184WAT      O81793   9.763   0.957   1.068
27184WAT     H181794   9.825   0.912   1.134
27184WAT     H281795   9.669   0.944   1.098
27185WAT      O81796   0.512   0.408   9.327
27185WAT     H181797   0.566   0.354   9.262
27185WAT     H281798   0.534   0.505   9.316
27186WAT      O81799   2.287   1.029   5.613
27186WAT     H181800   2.251   1.115   5.577
27186WAT     H281801   2.327   1.045   5.703
27187WAT      O81802   8.077   1.627   5.966
27187WAT     H181803   8.108   1.571   6.043
27187WAT     H281804   8.049   1.717   6.001
27188WAT      O81805   7.967   4.095   2.947
27188WAT     H181806   7.929   4.074   2.857
27188WAT     H281807   7.960   4.014   3.006
27189WAT      O81808   1.712   3.459   0.549
27189WAT     H181809   1.692   3.431   0.643
27189WAT     H281810   1.742   3.554   0.547
27190WAT      O81811   1.562   4.518   3.294
27190WAT     H181812   1.619   4.558   3.365
27190WAT     H281813   1.561   4.579   3.214
27191WAT      O81814   3.907   0.807   9.040
27191WAT     H181815   3.953   0.730   9.084
27191WAT     H281816   3.976   0.867   8.998
27192WAT      O81817   7.421   3.941   2.757
27192WAT     H181818   7.370   3.970   2.676
27192WAT     H281819   7.452   3.847   2.745
27193WAT      O81820   9.172   1.562   8.983
27193WAT     H181821   9.241   1.628   9.012
27193WAT     H281822   9.107   1.606   8.921
27194WAT      O81823   6.370   0.374   8.492
27194WAT     H181824   6.323   0.286   8.495
27194WAT     H281825   6.302   0.448   8.502
27195WAT      O81826   0.034   2.640   8.361
27195WAT     H181827   0.050   2.735   8.334
27195WAT     H281828   0.120   2.590   8.358
27196WAT      O81829   0.038   4.650   5.726
27196WAT     H181830  -0.036   4.636   5.792
27196WAT     H281831   0.000   4.653   5.634
27197WAT      O81832   1.679   0.626   4.994
27197WAT     H181833   1.620   0.683   4.938
27197WAT     H281834   1.630   0.544   5.022
27198WAT      O81835   1.865   0.601   4.179
27198WAT     H181836   1.767   0.611   4.195
27198WAT     H281837   1.916   0.656   4.245
27199WAT      O81838   3.465   1.780   6.224
27199WAT     H181839   3.433   1.855   6.282
27199WAT     H281840   3.414   1.697   6.247
27200WAT      O81841   7.674   1.626   6.981
27200WAT     H181842   7.736   1.548   6.968
27200WAT     H281843   7.719   1.709   6.948
27201WAT      O81844   2.259   4.146   1.109
27201WAT     H181845   2.212   4.094   1.180
27201WAT     H281846   2.192   4.193   1.052
27202WAT      O81847   7.739   1.396   5.678
27202WAT     H181848   7.736   1.496   5.677
27202WAT     H281849   7.764   1.362   5.588
27203WAT      O81850   8.764   6.385   4.418
27203WAT     H181851   8.839   6.382   4.484
27203WAT     H281852   8.692   6.323   4.447
27204WAT      O81853   0.375   9.079   7.753
27204WAT     H181854   0.325   9.106   7.835
27204WAT     H281855   0.435   9.001   7.775
27205WAT      O81856   6.007   3.343   3.931
27205WAT     H181857   6.069   3.420   3.947
27205WAT     H281858   6.000   3.289   4.015
27206WAT      O81859   4.676   8.281   0.730
27206WAT     H181860   4.600   8.227   0.693
27206WAT     H281861   4.693   8.253   0.825
27207WAT      O81862   2.487   7.575   7.511
27207WAT     H181863   2.388   7.587   7.504
27207WAT     H281864   2.507   7.485   7.550
27208WAT      O81865   4.015   9.192   9.723
27208WAT     H181866   3.990   9.273   9.776
27208WAT     H281867   3.943   9.123   9.732
27209WAT      O81868   2.869   1.789   5.547
27209WAT     H181869   2.813   1.732   5.608
27209WAT     H281870   2.855   1.885   5.569
27210WAT      O81871   6.844   6.077   3.171
27210WAT     H181872   6.836   6.031   3.259
27210WAT     H281873   6.807   6.019   3.099
27211WAT      O81874   6.586   5.807   4.697
27211WAT     H181875   6.539   5.725   4.663
27211WAT     H281876   6.586   5.877   4.626
27212WAT      O81877   4.057   0.367   3.830
27212WAT     H181878   4.144   0.354   3.877
27212WAT     H281879   4.069   0.350   3.732
27213WAT      O81880   5.559   4.545   6.854
27213WAT     H181881   5.581   4.594   6.939
27213WAT     H281882   5.608   4.588   6.778
27214WAT      O81883   6.837   2.280   5.023
27214WAT     H181884   6.856   2.378   5.013
27214WAT     H281885   6.764   2.267   5.090
27215WAT      O81886   8.536   2.233   4.161
27215WAT     H181887   8.569   2.321   4.195
27215WAT     H281888   8.548   2.163   4.231
27216WAT      O81889   2.215   6.332   1.425
27216WAT     H181890   2.199   6.341   1.524
27216WAT     H281891   2.240   6.420   1.387
27217WAT      O81892   0.917   2.082   0.142
27217WAT     H181893   0.885   2.175   0.163
27217WAT     H281894   0.847   2.016   0.171
27218WAT      O81895   9.188   2.590   4.113
27218WAT     H181896   9.153   2.671   4.068
27218WAT     H281897   9.128   2.566   4.190
27219WAT      O81898   8.702   7.968   9.389
27219WAT     H181899   8.663   7.969   9.297
27219WAT     H281900   8.664   7.891   9.440
27220WAT      O81901   5.010   4.053   9.078
27220WAT     H181902   4.997   4.066   9.176
27220WAT     H281903   5.095   4.002   9.062
27221WAT      O81904   6.077   4.202   2.321
27221WAT     H181905   6.067   4.102   2.318
27221WAT     H281906   6.161   4.228   2.273
27222WAT      O81907   7.794   4.516   0.898
27222WAT     H181908   7.705   4.524   0.853
27222WAT     H281909   7.861   4.573   0.851
27223WAT      O81910   5.392   5.709   0.316
27223WAT     H181911   5.379   5.807   0.333
27223WAT     H281912   5.314   5.673   0.266
27224WAT      O81913   1.722   2.566   1.921
27224WAT     H181914   1.805   2.559   1.866
27224WAT     H281915   1.708   2.661   1.949
27225WAT      O81916   0.356   5.836   5.760
27225WAT     H181917   0.353   5.870   5.853
27225WAT     H281918   0.277   5.870   5.709
27226WAT      O81919   8.986   1.118   0.534
27226WAT     H181920   9.077   1.101   0.572
27226WAT     H281921   8.994   1.178   0.454
27227WAT      O81922   5.081   2.868   1.768
27227WAT     H181923   5.136   2.948   1.745
27227WAT     H281924   4.986   2.884   1.740
27228WAT      O81925   7.769   4.188   1.625
27228WAT     H181926   7.672   4.198   1.602
27228WAT     H281927   7.781   4.114   1.690
27229WAT      O81928   7.596   3.414   6.330
27229WAT     H181929   7.670   3.347   6.320
27229WAT     H281930   7.592   3.471   6.248
27230WAT      O81931   5.806   4.252   8.622
27230WAT     H181932   5.897   4.217   8.645
27230WAT     H281933   5.746   4.241   8.702
27231WAT      O81934   2.592   8.896   9.874
27231WAT     H181935   2.624   8.979   9.919
27231WAT     H281936   2.496   8.880   9.898
27232WAT      O81937   7.262   6.339   2.076
27232WAT     H181938   7.182   6.317   2.132
27232WAT     H281939   7.241   6.322   1.979
27233WAT      O81940   9.531   7.078   0.415
27233WAT     H181941   9.562   7.169   0.387
27233WAT     H281942   9.529   7.018   0.335
27234WAT      O81943   8.649   3.671   8.398
27234WAT     H181944   8.639   3.593   8.335
27234WAT     H281945   8.743   3.672   8.434
27235WAT      O81946   1.040   5.459   8.591
27235WAT     H181947   1.042   5.379   8.532
27235WAT     H281948   0.947   5.474   8.624
27236WAT      O81949   7.075   5.211   0.139
27236WAT     H181950   7.057   5.306   0.167
27236WAT     H281951   7.165   5.183   0.171
27237WAT      O81952   7.713   7.335   1.889
27237WAT     H181953   7.803   7.357   1.927
27237WAT     H281954   7.678   7.414   1.839
27238WAT      O81955   5.534   0.419   5.734
27238WAT     H181956   5.518   0.376   5.645
27238WAT     H281957   5.447   0.437   5.779
27239WAT      O81958   1.445   7.375   0.352
27239WAT     H181959   1.453   7.473   0.330
27239WAT     H281960   1.467   7.361   0.448
27240WAT      O81961   2.467   8.477   8.914
27240WAT     H181962   2.554   8.427   8.910
27240WAT     H281963   2.483   8.569   8.951
27241WAT      O81964   6.063   2.713   6.008
27241WAT     H181965   6.029   2.720   6.102
27241WAT     H281966   6.086   2.804   5.974
27242WAT      O81967   1.940   4.752   4.898
27242WAT     H181968   2.015   4.687   4.904
27242WAT     H281969   1.963   4.825   4.834
27243WAT      O81970   3.229   7.402   6.680
27243WAT     H181971   3.311   7.368   6.634
27243WAT     H281972   3.165   7.327   6.694
27244WAT      O81973   3.069   6.927   9.481
27244WAT     H181974   2.992   6.987   9.501
27244WAT     H281975   3.143   6.945   9.545
27245WAT      O81976   0.781   9.564   2.607
27245WAT     H181977   0.821   9.598   2.522
27245WAT     H281978   0.828   9.605   2.686
27246WAT      O81979   6.720   1.414   9.470
27246WAT     H181980   6.679   1.348   9.533
27246WAT     H281981   6.714   1.506   9.509
27247WAT      O81982   8.320   2.632   4.427
27247WAT     H181983   8.273   2.544   4.415
27247WAT     H281984   8.375   2.650   4.346
27248WAT      O81985   2.865   2.466   9.477
27248WAT     H181986   2.766   2.477   9.482
27248WAT     H281987   2.907   2.511   9.556
27249WAT      O81988   6.484   1.695   9.557
27249WAT     H181989   6.446   1.627   9.620
27249WAT     H281990   6.583   1.693   9.563
27250WAT      O81991   2.466   8.125   5.667
27250WAT     H181992   2.459   8.030   5.637
27250WAT     H281993   2.562   8.154   5.666
27251WAT      O81994   2.963   4.895   2.968
27251WAT     H181995   2.948   4.993   2.959
27251WAT     H281996   2.893   4.856   3.028
27252WAT      O81997   2.799   5.981   5.160
27252WAT     H181998   2.865   6.005   5.231
27252WAT     H281999   2.735   5.913   5.195
27253WAT      O82000   6.502   8.628   9.567
27253WAT     H182001   6.556   8.544   9.579
27253WAT     H282002   6.497   8.677   9.653
27254WAT      O82003   7.833   0.713   6.993
27254WAT     H182004   7.814   0.615   6.980
27254WAT     H282005   7.919   0.724   7.043
27255WAT      O82006   3.187   4.591   3.369
27255WAT     H182007   3.233   4.624   3.451
27255WAT     H282008   3.255   4.560   3.303
27256WAT      O82009   6.791   2.939   7.701
27256WAT     H182010   6.837   2.994   7.771
27256WAT     H282011   6.717   2.992   7.660
27257WAT      O82012   5.181   6.298   5.341
27257WAT     H182013   5.237   6.367   5.387
27257WAT     H282014   5.134   6.339   5.263
27258WAT      O82015   4.680   0.232   1.754
27258WAT     H182016   4.739   0.187   1.822
27258WAT     H282017   4.589   0.246   1.794
27259WAT      O82018   9.585   2.511   7.584
27259WAT     H182019   9.525   2.592   7.584
27259WAT     H282020   9.665   2.529   7.641
27260WAT      O82021   4.244   4.977   1.141
27260WAT     H182022   4.188   4.963   1.223
27260WAT     H282023   4.319   5.039   1.162
27261WAT      O82024   6.522   2.411   8.191
27261WAT     H182025   6.539   2.370   8.281
27261WAT     H282026   6.577   2.495   8.182
27262WAT      O82027   6.970   0.168   2.531
27262WAT     H182028   6.962   0.118   2.617
27262WAT     H282029   7.066   0.188   2.513
27263WAT      O82030   3.828   2.749   7.145
27263WAT     H182031   3.871   2.816   7.085
27263WAT     H282032   3.747   2.712   7.101
27264WAT      O82033   5.518   1.760   8.649
27264WAT     H182034   5.552   1.703   8.724
27264WAT     H282035   5.595   1.788   8.591
27265WAT      O82036   2.850   8.094   9.665
27265WAT     H182037   2.785   8.166   9.644
27265WAT     H282038   2.819   8.008   9.626
27266WAT      O82039   8.710   0.423   7.412
27266WAT     H182040   8.680   0.361   7.340
27266WAT     H282041   8.647   0.501   7.416
27267WAT      O82042   1.611   8.576   2.205
27267WAT     H182043   1.709   8.578   2.185
27267WAT     H282044   1.588   8.651   2.268
27268WAT      O82045   4.643   1.106   0.608
27268WAT     H182046   4.676   1.053   0.685
27268WAT     H282047   4.715   1.112   0.538
27269WAT      O82048   4.930   3.879   7.533
27269WAT     H182049   4.877   3.922   7.460
27269WAT     H282050   4.969   3.950   7.592
27270WAT      O82051   2.870   9.795   7.112
27270WAT     H182052   2.906   9.749   7.193
27270WAT     H282053   2.784   9.751   7.085
27271WAT      O82054   3.474   7.908   1.950
27271WAT     H182055   3.447   7.918   2.045
27271WAT     H282056   3.395   7.920   1.891
27272WAT      O82057   1.845   5.002   4.465
27272WAT     H182058   1.942   4.984   4.482
27272WAT     H282059   1.810   4.934   4.400
27273WAT      O82060   2.382   5.867   5.299
27273WAT     H182061   2.396   5.912   5.387
27273WAT     H282062   2.292   5.822   5.299
27274WAT      O82063   4.422   8.251   2.893
27274WAT     H182064   4.432   8.160   2.931
27274WAT     H282065   4.468   8.318   2.952
27275WAT      O82066   3.433   5.838   5.466
27275WAT     H182067   3.392   5.751   5.494
27275WAT     H282068   3.532   5.829   5.465
27276WAT      O82069   0.170   7.509   2.788
27276WAT     H182070   0.187   7.526   2.885
27276WAT     H282071   0.244   7.454   2.750
27277WAT      O82072   0.127   9.739   2.483
27277WAT     H182073   0.146   9.648   2.447
27277WAT     H282074   0.084   9.795   2.412
27278WAT      O82075   7.129   1.989   7.722
27278WAT     H182076   7.109   1.923   7.794
27278WAT     H282077   7.155   1.940   7.638
27279WAT      O82078   1.011   3.892   9.001
27279WAT     H182079   1.068   3.956   9.052
27279WAT     H282080   0.936   3.861   9.060
27280WAT      O82081   6.389   0.465   3.506
27280WAT     H182082   6.462   0.399   3.486
27280WAT     H282083   6.403   0.504   3.597
27281WAT      O82084   3.910   5.415   5.903
27281WAT     H182085   3.815   5.447   5.906
27281WAT     H282086   3.931   5.381   5.812
27282WAT      O82087   4.902   6.254   2.321
27282WAT     H182088   4.925   6.158   2.335
27282WAT     H282089   4.846   6.262   2.239
27283WAT      O82090   6.811   4.114   8.373
27283WAT     H182091   6.803   4.214   8.363
27283WAT     H282092   6.789   4.089   8.467
27284WAT      O82093   0.397   8.196   4.230
27284WAT     H182094   0.331   8.174   4.158
27284WAT     H282095   0.438   8.286   4.212
27285WAT      O82096   5.408   3.227   1.740
27285WAT     H182097   5.503   3.205   1.715
27285WAT     H282098   5.346   3.168   1.688
27286WAT      O82099   3.806   2.149   8.927
27286WAT     H182100   3.753   2.234   8.934
27286WAT     H282101   3.824   2.128   8.831
27287WAT      O82102   9.026   4.910   8.078
27287WAT     H182103   9.030   4.860   8.164
27287WAT     H282104   8.938   4.893   8.033
27288WAT      O82105   0.207   6.195   8.364
27288WAT     H182106   0.227   6.290   8.340
27288WAT     H282107   0.108   6.181   8.368
27289WAT      O82108   5.955   4.696   7.295
27289WAT     H182109   5.902   4.695   7.210
27289WAT     H282110   6.010   4.612   7.301
27290WAT      O82111   8.328   8.627   9.735
27290WAT     H182112   8.322   8.638   9.834
27290WAT     H282113   8.316   8.716   9.691
27291WAT      O82114   2.486   6.405   0.165
27291WAT     H182115   2.506   6.446   0.076
27291WAT     H282116   2.557   6.339   0.188
27292WAT      O82117   2.521   1.929   0.168
27292WAT     H182118   2.532   2.028   0.154
27292WAT     H282119   2.499   1.885   0.081
27293WAT      O82120   6.911   0.157   3.595
27293WAT     H182121   6.960   0.106   3.525
27293WAT     H282122   6.966   0.158   3.679
27294WAT      O82123   7.125   7.156   9.750
27294WAT     H182124   7.065   7.233   9.773
27294WAT     H282125   7.088   7.073   9.791
27295WAT      O82126   0.219   7.353   1.391
27295WAT     H182127   0.153   7.428   1.385
27295WAT     H282128   0.286   7.362   1.317
27296WAT      O82129   8.337   9.059   2.752
27296WAT     H182130   8.340   9.112   2.837
27296WAT     H282131   8.427   9.019   2.734
27297WAT      O82132   6.228   1.556   7.242
27297WAT     H182133   6.243   1.628   7.175
27297WAT     H282134   6.162   1.490   7.206
27298WAT      O82135   6.036   3.334   3.648
27298WAT     H182136   5.957   3.297   3.599
27298WAT     H282137   6.024   3.320   3.747
27299WAT      O82138   7.951   1.137   0.227
27299WAT     H182139   7.900   1.170   0.147
27299WAT     H282140   7.996   1.051   0.204
27300WAT      O82141   5.523   7.882   6.894
27300WAT     H182142   5.530   7.981   6.904
27300WAT     H282143   5.611   7.840   6.915
27301WAT      O82144   5.482   2.567   4.222
27301WAT     H182145   5.514   2.544   4.314
27301WAT     H282146   5.483   2.667   4.211
27302WAT      O82147   2.352   0.987   8.989
27302WAT     H182148   2.331   0.890   9.002
27302WAT     H282149   2.380   1.004   8.895
27303WAT      O82150   5.111   2.945   3.275
27303WAT     H182151   5.162   2.864   3.244
27303WAT     H282152   5.086   2.933   3.371
27304WAT      O82153   4.093   1.589   1.648
27304WAT     H182154   4.113   1.687   1.653
27304WAT     H282155   4.000   1.575   1.615
27305WAT      O82156   8.308   2.508   6.023
27305WAT     H182157   8.217   2.495   5.984
27305WAT     H282158   8.347   2.594   5.990
27306WAT      O82159   7.520   3.758   5.867
27306WAT     H182160   7.521   3.843   5.919
27306WAT     H282161   7.553   3.775   5.774
27307WAT      O82162   3.163   8.670   7.570
27307WAT     H182163   3.072   8.701   7.542
27307WAT     H282164   3.198   8.729   7.642
27308WAT      O82165   3.681   9.443   6.639
27308WAT     H182166   3.596   9.491   6.619
27308WAT     H282167   3.677   9.351   6.599
27309WAT      O82168   0.581   0.980   8.161
27309WAT     H182169   0.592   0.900   8.101
27309WAT     H282170   0.656   1.044   8.145
27310WAT      O82171   4.294   6.300   1.319
27310WAT     H182172   4.380   6.259   1.288
27310WAT     H282173   4.313   6.386   1.366
27311WAT      O82174   3.033   4.206   1.443
27311WAT     H182175   3.035   4.295   1.397
27311WAT     H282176   2.962   4.207   1.513
27312WAT      O82177   4.343   0.537   5.977
27312WAT     H182178   4.250   0.537   5.938
27312WAT     H282179   4.390   0.453   5.950
27313WAT      O82180   5.795   2.337   3.074
27313WAT     H182181   5.744   2.251   3.068
27313WAT     H282182   5.784   2.376   3.166
27314WAT      O82183   1.550   4.253   5.775
27314WAT     H182184   1.643   4.270   5.806
27314WAT     H282185   1.491   4.239   5.855
27315WAT      O82186   1.603   2.395   5.422
27315WAT     H182187   1.677   2.346   5.378
27315WAT     H282188   1.553   2.449   5.354
27316WAT      O82189   7.231   3.975   4.724
27316WAT     H182190   7.281   4.053   4.760
27316WAT     H282191   7.154   3.954   4.785
27317WAT      O82192   3.714   7.147   1.200
27317WAT     H182193   3.657   7.166   1.120
27317WAT     H282194   3.657   7.151   1.282
27318WAT      O82195   6.393   2.531   3.268
27318WAT     H182196   6.463   2.476   3.221
27318WAT     H282197   6.393   2.624   3.230
27319WAT      O82198   9.052   6.754   8.552
27319WAT     H182199   9.064   6.665   8.596
27319WAT     H282200   8.963   6.757   8.505
27320WAT      O82201   0.528   0.675   5.374
27320WAT     H182202   0.451   0.734   5.399
27320WAT     H282203   0.495   0.581   5.362
27321WAT      O82204   5.344   9.270   4.208
27321WAT     H182205   5.359   9.243   4.303
27321WAT     H282206   5.392   9.356   4.190
27322WAT      O82207   7.876   8.348   8.873
27322WAT     H182208   7.821   8.432   8.871
27322WAT     H282209   7.924   8.342   8.960
27323WAT      O82210   8.852   9.518   3.791
27323WAT     H182211   8.777   9.468   3.746
27323WAT     H282212   8.937   9.503   3.741
27324WAT      O82213   8.538   8.378   4.634
27324WAT     H182214   8.448   8.422   4.633
27324WAT     H282215   8.535   8.298   4.694
27325WAT      O82216   2.981   5.530   7.893
27325WAT     H182217   2.951   5.612   7.941
27325WAT     H282218   2.983   5.453   7.957
27326WAT      O82219   0.790   6.880   2.320
27326WAT     H182220   0.739   6.904   2.403
27326WAT     H282221   0.726   6.865   2.245
27327WAT      O82222   5.306   9.820   4.786
27327WAT     H182223   5.218   9.785   4.755
27327WAT     H282224   5.359   9.746   4.828
27328WAT      O82225   9.809   6.751   1.853
27328WAT     H182226   9.783   6.847   1.860
27328WAT     H282227   9.822   6.726   1.757
27329WAT      O82228   5.506   6.835   1.001
27329WAT     H182229   5.407   6.851   0.997
27329WAT     H282230   5.548   6.902   1.062
27330WAT      O82231   9.182   6.024   4.914
27330WAT     H182232   9.209   6.011   5.010
27330WAT     H282233   9.264   6.035   4.858
27331WAT      O82234   8.176   4.603   2.730
27331WAT     H182235   8.118   4.681   2.707
27331WAT     H282236   8.184   4.542   2.651
27332WAT      O82237   7.670   4.471   2.253
27332WAT     H182238   7.769   4.473   2.241
27332WAT     H282239   7.628   4.546   2.201
27333WAT      O82240   9.581   8.912   5.214
27333WAT     H182241   9.508   8.976   5.239
27333WAT     H282242   9.605   8.925   5.118
27334WAT      O82243   8.694   1.984   6.297
27334WAT     H182244   8.657   1.951   6.383
27334WAT     H282245   8.673   2.081   6.287
27335WAT      O82246   3.705   1.935   9.089
27335WAT     H182247   3.743   1.997   9.020
27335WAT     H282248   3.697   1.843   9.050
27336WAT      O82249   2.731   1.715   7.588
27336WAT     H182250   2.765   1.701   7.495
27336WAT     H282251   2.640   1.756   7.584
27337WAT      O82252   8.404   2.184   3.512
27337WAT     H182253   8.437   2.128   3.436
27337WAT     H282254   8.361   2.267   3.477
27338WAT      O82255   4.387   0.419   5.012
27338WAT     H182256   4.306   0.368   5.043
27338WAT     H282257   4.469   0.364   5.026
27339WAT      O82258   2.704   4.435   7.100
27339WAT     H182259   2.748   4.470   7.183
27339WAT     H282260   2.634   4.367   7.125
27340WAT      O82261   8.072   8.995   7.541
27340WAT     H182262   7.985   8.953   7.567
27340WAT     H282263   8.144   8.966   7.604
27341WAT      O82264   7.382   6.106   6.853
27341WAT     H182265   7.369   6.199   6.887
27341WAT     H282266   7.391   6.043   6.931
27342WAT      O82267   4.125   7.099   8.153
27342WAT     H182268   4.211   7.090   8.202
27342WAT     H282269   4.144   7.112   8.055
27343WAT      O82270   9.870   2.949   3.520
27343WAT     H182271   9.842   3.019   3.585
27343WAT     H282272   9.962   2.969   3.488
27344WAT      O82273   4.269   9.551   9.813
27344WAT     H182274   4.267   9.543   9.913
27344WAT     H282275   4.326   9.629   9.787
27345WAT      O82276   9.440   3.850   4.780
27345WAT     H182277   9.480   3.773   4.730
27345WAT     H282278   9.343   3.833   4.795
27346WAT      O82279   3.812   5.529   6.666
27346WAT     H182280   3.848   5.473   6.591
27346WAT     H282281   3.885   5.586   6.703
27347WAT      O82282   5.672   4.106   6.418
27347WAT     H182283   5.627   4.082   6.331
27347WAT     H282284   5.621   4.180   6.462
27348WAT      O82285   9.374   7.331   0.985
27348WAT     H182286   9.326   7.338   1.072
27348WAT     H282287   9.323   7.381   0.914
27349WAT      O82288   1.064   2.265   7.483
27349WAT     H182289   1.092   2.195   7.418
27349WAT     H282290   0.972   2.245   7.518
27350WAT      O82291   1.996   8.601   8.690
27350WAT     H182292   1.966   8.616   8.784
27350WAT     H282293   1.924   8.629   8.627
27351WAT      O82294   6.849   0.444   3.572
27351WAT     H182295   6.868   0.347   3.585
27351WAT     H282296   6.801   0.457   3.485
27352WAT      O82297   1.225   7.426   3.255
27352WAT     H182298   1.238   7.515   3.299
27352WAT     H282299   1.239   7.353   3.322
27353WAT      O82300   1.268   0.219   1.332
27353WAT     H182301   1.331   0.262   1.397
27353WAT     H282302   1.181   0.269   1.332
27354WAT      O82303   3.076   0.685   8.744
27354WAT     H182304   3.142   0.662   8.672
27354WAT     H282305   3.016   0.758   8.713
27355WAT      O82306   7.906   7.886   2.324
27355WAT     H182307   7.991   7.899   2.273
27355WAT     H282308   7.838   7.843   2.265
27356WAT      O82309   9.314   2.860   0.863
27356WAT     H182310   9.352   2.786   0.807
27356WAT     H282311   9.362   2.946   0.842
27357WAT      O82312   8.535   0.506   1.719
27357WAT     H182313   8.482   0.556   1.788
27357WAT     H282314   8.629   0.497   1.750
27358WAT      O82315   3.940   8.059   7.616
27358WAT     H182316   3.906   7.979   7.566
27358WAT     H282317   4.031   8.083   7.582
27359WAT      O82318   7.769   3.237   4.498
27359WAT     H182319   7.766   3.255   4.400
27359WAT     H282320   7.838   3.167   4.517
27360WAT      O82321   2.837   3.161   8.222
27360WAT     H182322   2.780   3.109   8.158
27360WAT     H282323   2.804   3.255   8.226
27361WAT      O82324   2.086   2.520   5.162
27361WAT     H182325   2.023   2.456   5.119
27361WAT     H282326   2.057   2.539   5.255
27362WAT      O82327   0.507   4.593   3.724
27362WAT     H182328   0.469   4.648   3.798
27362WAT     H282329   0.501   4.644   3.638
27363WAT      O82330   5.991   3.354   7.320
27363WAT     H182331   6.010   3.390   7.228
27363WAT     H282332   5.907   3.395   7.355
27364WAT      O82333   6.961   4.965   3.117
27364WAT     H182334   6.942   4.949   3.020
27364WAT     H282335   6.995   4.881   3.159
27365WAT      O82336   0.536   5.012   1.300
27365WAT     H182337   0.547   5.052   1.392
27365WAT     H282338   0.463   5.060   1.252
27366WAT      O82339   2.094   9.596   4.390
27366WAT     H182340   2.105   9.518   4.451
27366WAT     H282341   2.093   9.680   4.444
27367WAT      O82342   3.941   3.035   2.628
27367WAT     H182343   3.899   2.944   2.627
27367WAT     H282344   3.958   3.065   2.534
27368WAT      O82345   2.758   1.704   3.956
27368WAT     H182346   2.672   1.739   3.917
27368WAT     H282347   2.739   1.659   4.043
27369WAT      O82348   4.689   0.050   0.801
27369WAT     H182349   4.780   0.072   0.766
27369WAT     H282350   4.668  -0.046   0.783
27370WAT      O82351   0.012   3.648   3.473
27370WAT     H182352  -0.037   3.710   3.534
27370WAT     H282353  -0.047   3.571   3.449
27371WAT      O82354   3.741   7.079   5.912
27371WAT     H182355   3.768   7.126   5.996
27371WAT     H282356   3.740   7.144   5.836
27372WAT      O82357   3.758   6.817   3.394
27372WAT     H182358   3.757   6.917   3.393
27372WAT     H282359   3.737   6.783   3.302
27373WAT      O82360   2.561   6.642   2.657
27373WAT     H182361   2.513   6.609   2.575
27373WAT     H282362   2.520   6.602   2.738
27374WAT      O82363   1.469   6.742   9.460
27374WAT     H182364   1.499   6.832   9.491
27374WAT     H282365   1.550   6.688   9.434
27375WAT      O82366   6.987   0.936   0.627
27375WAT     H182367   7.041   0.854   0.606
27375WAT     H282368   6.910   0.942   0.563
27376WAT      O82369   9.625   1.309   2.964
27376WAT     H182370   9.680   1.280   2.885
27376WAT     H282371   9.529   1.314   2.937
27377WAT      O82372   5.789   7.571   8.504
27377WAT     H182373   5.762   7.500   8.569
27377WAT     H282374   5.855   7.534   8.439
27378WAT      O82375   7.765   4.137   6.882
27378WAT     H182376   7.813   4.102   6.802
27378WAT     H282377   7.718   4.222   6.858
27379WAT      O82378   9.861   9.228   5.668
27379WAT     H182379   9.788   9.188   5.613
27379WAT     H282380   9.867   9.326   5.650
27380WAT      O82381   3.787   1.979   8.005
27380WAT     H182382   3.877   2.006   8.040
27380WAT     H282383   3.797   1.940   7.914
27381WAT      O82384   5.774   5.308   1.803
27381WAT     H182385   5.723   5.336   1.722
27381WAT     H282386   5.781   5.209   1.806
27382WAT      O82387   7.779   7.297   7.083
27382WAT     H182388   7.755   7.366   7.151
27382WAT     H282389   7.742   7.323   6.994
27383WAT      O82390   0.841   0.687   1.714
27383WAT     H182391   0.810   0.776   1.749
27383WAT     H282392   0.763   0.637   1.677
27384WAT      O82393   1.915   5.478   6.604
27384WAT     H182394   1.967   5.558   6.574
27384WAT     H282395   1.877   5.494   6.695
27385WAT      O82396   7.230   6.867   9.159
27385WAT     H182397   7.322   6.867   9.120
27385WAT     H282398   7.200   6.773   9.173
27386WAT      O82399   0.396   0.290   2.176
27386WAT     H182400   0.388   0.389   2.188
27386WAT     H282401   0.441   0.251   2.256
27387WAT      O82402   5.068   7.382   8.530
27387WAT     H182403   5.161   7.416   8.544
27387WAT     H282404   5.037   7.334   8.612
27388WAT      O82405   0.984   0.194   2.412
27388WAT     H182406   1.047   0.215   2.337
27388WAT     H282407   0.911   0.135   2.378
27389WAT      O82408   4.691   7.170   0.696
27389WAT     H182409   4.699   7.108   0.618
27389WAT     H282410   4.594   7.183   0.718
27390WAT      O82411   3.356   1.054   2.345
27390WAT     H182412   3.362   0.989   2.268
27390WAT     H282413   3.433   1.117   2.340
27391WAT      O82414   6.497   3.431   6.462
27391WAT     H182415   6.413   3.414   6.515
27391WAT     H282416   6.566   3.472   6.522
27392WAT      O82417   3.353   2.782   7.820
27392WAT     H182418   3.330   2.836   7.739
27392WAT     H282419   3.317   2.826   7.901
27393WAT      O82420   3.706   7.265   5.726
27393WAT     H182421   3.687   7.240   5.632
27393WAT     H282422   3.803   7.289   5.736
27394WAT      O82423   9.516   9.363   7.398
27394WAT     H182424   9.490   9.384   7.492
27394WAT     H282425   9.548   9.446   7.353
27395WAT      O82426   9.693   5.204   7.839
27395WAT     H182427   9.772   5.219   7.779
27395WAT     H282428   9.688   5.277   7.907
27396WAT      O82429   4.832   6.265   0.888
27396WAT     H182430   4.746   6.271   0.837
27396WAT     H282431   4.853   6.169   0.907
27397WAT      O82432   3.847   6.333   4.317
27397WAT     H182433   3.771   6.320   4.381
27397WAT     H282434   3.828   6.282   4.233
27398WAT      O82435   0.231   0.987   2.529
27398WAT     H182436   0.218   1.085   2.513
27398WAT     H282437   0.264   0.973   2.622
27399WAT      O82438   1.569   4.798   8.765
27399WAT     H182439   1.584   4.732   8.692
27399WAT     H282440   1.490   4.856   8.742
27400WAT      O82441   9.632   4.590   1.081
27400WAT     H182442   9.552   4.571   1.025
27400WAT     H282443   9.709   4.535   1.049
27401WAT      O82444   7.947   6.199   3.174
27401WAT     H182445   7.966   6.115   3.225
27401WAT     H282446   8.010   6.271   3.204
27402WAT      O82447   9.815   9.366   6.179
27402WAT     H182448   9.912   9.364   6.153
27402WAT     H282449   9.797   9.291   6.243
27403WAT      O82450   4.866   5.686   8.970
27403WAT     H182451   4.808   5.630   9.028
27403WAT     H282452   4.865   5.781   9.003
27404WAT      O82453   9.381   7.097   6.837
27404WAT     H182454   9.444   7.171   6.861
27404WAT     H282455   9.298   7.106   6.890
27405WAT      O82456   3.886   5.749   1.045
27405WAT     H182457   3.904   5.749   0.946
27405WAT     H282458   3.968   5.718   1.093
27406WAT      O82459   4.990   3.938   1.274
27406WAT     H182460   5.067   4.002   1.283
27406WAT     H282461   4.905   3.987   1.289
27407WAT      O82462   9.537   7.874   8.260
27407WAT     H182463   9.598   7.798   8.240
27407WAT     H282464   9.536   7.891   8.359
27408WAT      O82465   8.007   9.522   2.064
27408WAT     H182466   8.093   9.478   2.090
27408WAT     H282467   7.930   9.465   2.091
27409WAT      O82468   6.610   6.164   4.749
27409WAT     H182469   6.577   6.097   4.682
27409WAT     H282470   6.565   6.149   4.837
27410WAT      O82471   4.629   9.645   1.033
27410WAT     H182472   4.607   9.569   1.096
27410WAT     H282473   4.620   9.732   1.082
27411WAT      O82474   8.508   2.408   7.709
27411WAT     H182475   8.474   2.338   7.646
27411WAT     H282476   8.431   2.459   7.745
27412WAT      O82477   0.512   9.296   9.254
27412WAT     H182478   0.556   9.311   9.342
27412WAT     H282479   0.578   9.256   9.190
27413WAT      O82480   3.305   5.650   3.227
27413WAT     H182481   3.365   5.586   3.274
27413WAT     H282482   3.354   5.734   3.208
27414WAT      O82483   7.117   0.977   1.931
27414WAT     H182484   7.021   0.980   1.957
27414WAT     H282485   7.174   1.004   2.008
27415WAT      O82486   8.228   5.126   4.680
27415WAT     H182487   8.139   5.102   4.719
27415WAT     H282488   8.264   5.206   4.729
27416WAT      O82489   5.023   4.197   1.626
27416WAT     H182490   5.072   4.163   1.707
27416WAT     H282491   4.950   4.258   1.655
27417WAT      O82492   7.049   8.224   9.815
27417WAT     H182493   6.962   8.264   9.787
27417WAT     H282494   7.066   8.243   9.911
27418WAT      O82495   0.158   0.367   0.161
27418WAT     H182496   0.176   0.413   0.073
27418WAT     H282497   0.163   0.268   0.148
27419WAT      O82498   4.153   6.189   0.036
27419WAT     H182499   4.084   6.129  -0.004
27419WAT     H282500   4.220   6.135   0.086
27420WAT      O82501   2.145   7.225   3.008
27420WAT     H182502   2.173   7.290   2.937
27420WAT     H282503   2.155   7.132   2.973
27421WAT      O82504   7.059   0.341   6.561
27421WAT     H182505   7.034   0.310   6.469
27421WAT     H282506   7.066   0.440   6.563
27422WAT      O82507   8.857   5.290   5.137
27422WAT     H182508   8.929   5.220   5.144
27422WAT     H282509   8.894   5.378   5.167
27423WAT      O82510   5.371   5.825   3.801
27423WAT     H182511   5.297   5.892   3.816
27423WAT     H282512   5.368   5.756   3.873
27424WAT      O82513   0.622   2.666   9.156
27424WAT     H182514   0.707   2.619   9.177
27424WAT     H282515   0.556   2.600   9.119
27425WAT      O82516   2.104   7.561   0.397
27425WAT     H182517   2.162   7.493   0.441
27425WAT     H282518   2.060   7.522   0.317
27426WAT      O82519   7.840   7.076   2.452
27426WAT     H182520   7.852   7.020   2.370
27426WAT     H282521   7.771   7.146   2.435
27427WAT      O82522   3.362   1.490   5.144
27427WAT     H182523   3.263   1.477   5.134
27427WAT     H282524   3.391   1.567   5.087
27428WAT      O82525   9.020   7.024   5.310
27428WAT     H182526   9.014   6.936   5.264
27428WAT     H282527   8.931   7.047   5.351
27429WAT      O82528   1.003   0.387   4.518
27429WAT     H182529   1.067   0.312   4.498
27429WAT     H282530   1.054   0.466   4.551
27430WAT      O82531   3.468   3.429   2.877
27430WAT     H182532   3.415   3.511   2.897
27430WAT     H282533   3.431   3.352   2.930
27431WAT      O82534   1.408   4.569   8.372
27431WAT     H182535   1.381   4.634   8.301
27431WAT     H282536   1.339   4.497   8.380
27432WAT      O82537   6.611   9.323   8.928
27432WAT     H182538   6.515   9.313   8.902
27432WAT     H282539   6.616   9.361   9.020
27433WAT      O82540   2.884   5.809   2.622
27433WAT     H182541   2.953   5.875   2.652
27433WAT     H282542   2.877   5.811   2.523
27434WAT      O82543   6.145   2.700   4.375
27434WAT     H182544   6.170   2.796   4.374
27434WAT     H282545   6.205   2.649   4.312
27435WAT      O82546   1.901   5.291   7.006
27435WAT     H182547   1.988   5.290   7.055
27435WAT     H282548   1.905   5.227   6.929
27436WAT      O82549   6.541   5.829   9.018
27436WAT     H182550   6.596   5.761   8.968
27436WAT     H282551   6.602   5.888   9.071
27437WAT      O82552   2.970   3.353   1.765
27437WAT     H182553   2.980   3.344   1.666
27437WAT     H282554   3.056   3.383   1.805
27438WAT      O82555   2.485   3.199   3.025
27438WAT     H182556   2.464   3.295   3.041
27438WAT     H282557   2.405   3.154   2.985
27439WAT      O82558   0.566   5.293   2.667
27439WAT     H182559   0.505   5.341   2.603
27439WAT     H282560   0.528   5.299   2.759
27440WAT      O82561   8.712   6.315   5.805
27440WAT     H182562   8.725   6.219   5.777
27440WAT     H282563   8.801   6.355   5.826
27441WAT      O82564   0.455   6.870   9.211
27441WAT     H182565   0.505   6.785   9.225
27441WAT     H282566   0.481   6.936   9.281
27442WAT      O82567   5.516   0.600   2.186
27442WAT     H182568   5.480   0.693   2.185
27442WAT     H282569   5.441   0.535   2.194
27443WAT      O82570   4.635   3.360   1.072
27443WAT     H182571   4.576   3.353   0.991
27443WAT     H282572   4.730   3.365   1.043
27444WAT      O82573   7.795   9.711   9.080
27444WAT     H182574   7.829   9.749   8.994
27444WAT     H282575   7.695   9.700   9.075
27445WAT      O82576   5.337   7.773   7.100
27445WAT     H182577   5.413   7.787   7.036
27445WAT     H282578   5.267   7.716   7.057
27446WAT      O82579   0.860   4.369   0.586
27446WAT     H182580   0.888   4.277   0.561
27446WAT     H282581   0.815   4.366   0.676
27447WAT      O82582   4.343   4.607   8.777
27447WAT     H182583   4.375   4.624   8.870
27447WAT     H282584   4.269   4.670   8.755
27448WAT      O82585   2.129   5.971   5.454
27448WAT     H182586   2.094   5.948   5.363
27448WAT     H282587   2.165   5.888   5.497
27449WAT      O82588   1.885   3.132   7.047
27449WAT     H182589   1.946   3.053   7.045
27449WAT     H282590   1.909   3.191   7.125
27450WAT      O82591   9.756   3.509   0.276
27450WAT     H182592   9.712   3.420   0.292
27450WAT     H282593   9.755   3.529   0.178
27451WAT      O82594   3.312   4.539   8.770
27451WAT     H182595   3.267   4.623   8.737
27451WAT     H282596   3.305   4.535   8.870
27452WAT      O82597   2.092   0.016   3.411
27452WAT     H182598   2.107   0.033   3.313
27452WAT     H282599   2.023   0.079   3.446
27453WAT      O82600   3.705   1.772   1.447
27453WAT     H182601   3.670   1.829   1.522
27453WAT     H282602   3.784   1.818   1.405
27454WAT      O82603   4.681   5.966   6.862
27454WAT     H182604   4.684   6.017   6.776
27454WAT     H282605   4.712   6.025   6.936
27455WAT      O82606   2.273   7.585   4.814
27455WAT     H182607   2.205   7.659   4.819
27455WAT     H282608   2.229   7.498   4.834
27456WAT      O82609   3.636   8.571   0.237
27456WAT     H182610   3.570   8.628   0.286
27456WAT     H282611   3.717   8.626   0.215
27457WAT      O82612   5.447   3.717   2.681
27457WAT     H182613   5.362   3.710   2.628
27457WAT     H282614   5.520   3.751   2.623
27458WAT      O82615   8.299   8.622   0.109
27458WAT     H182616   8.225   8.602   0.174
27458WAT     H282617   8.373   8.670   0.157
27459WAT      O82618   2.831   7.123   2.750
27459WAT     H182619   2.791   7.212   2.728
27459WAT     H282620   2.922   7.116   2.710
27460WAT      O82621   3.733   7.044   8.139
27460WAT     H182622   3.648   6.992   8.131
27460WAT     H282623   3.802   7.006   8.077
27461WAT      O82624   5.469   2.011   5.701
27461WAT     H182625   5.456   1.978   5.794
27461WAT     H282626   5.542   2.079   5.700
27462WAT      O82627   2.979   9.210   7.155
27462WAT     H182628   2.924   9.279   7.203
27462WAT     H282629   3.064   9.251   7.122
27463WAT      O82630   3.714   0.530   5.317
27463WAT     H182631   3.665   0.456   5.363
27463WAT     H282632   3.811   0.508   5.314
27464WAT      O82633   9.713   5.837   3.399
27464WAT     H182634   9.720   5.934   3.419
27464WAT     H282635   9.799   5.805   3.359
27465WAT      O82636   7.624   0.786   8.562
27465WAT     H182637   7.672   0.798   8.475
27465WAT     H282638   7.654   0.701   8.605
27466WAT      O82639   3.361   3.853   5.315
27466WAT     H182640   3.318   3.941   5.335
27466WAT     H282641   3.430   3.865   5.244
27467WAT      O82642   7.503   6.963   6.931
27467WAT     H182643   7.439   6.932   7.001
27467WAT     H282644   7.471   7.051   6.894
27468WAT      O82645   8.366   5.551   4.600
27468WAT     H182646   8.347   5.551   4.502
27468WAT     H282647   8.461   5.576   4.616
27469WAT      O82648   6.420   1.928   6.132
27469WAT     H182649   6.520   1.941   6.132
27469WAT     H282650   6.382   1.968   6.049
27470WAT      O82651   5.203   8.099   7.538
27470WAT     H182652   5.279   8.035   7.549
27470WAT     H282653   5.229   8.188   7.576
27471WAT      O82654   9.755   0.568   3.313
27471WAT     H182655   9.745   0.471   3.290
27471WAT     H282656   9.836   0.605   3.267
27472WAT      O82657   6.268   3.467   1.188
27472WAT     H182658   6.334   3.424   1.127
27472WAT     H282659   6.217   3.537   1.139
27473WAT      O82660   9.278   4.891   5.837
27473WAT     H182661   9.272   4.935   5.747
27473WAT     H282662   9.330   4.806   5.829
27474WAT      O82663   7.115   5.519   2.700
27474WAT     H182664   7.068   5.601   2.666
27474WAT     H282665   7.200   5.545   2.746
27475WAT      O82666   6.410   3.142   4.734
27475WAT     H182667   6.326   3.182   4.696
27475WAT     H282668   6.405   3.042   4.729
27476WAT      O82669   0.095   8.916   1.944
27476WAT     H182670   0.161   8.976   1.899
27476WAT     H282671   0.027   8.972   1.991
27477WAT      O82672   1.279   1.349   0.789
27477WAT     H182673   1.296   1.359   0.887
27477WAT     H282674   1.309   1.258   0.759
27478WAT      O82675   3.150   7.634   0.669
27478WAT     H182676   3.093   7.556   0.693
27478WAT     H282677   3.181   7.679   0.753
27479WAT      O82678   2.655   6.083   2.547
27479WAT     H182679   2.668   6.060   2.644
27479WAT     H282680   2.705   6.018   2.490
27480WAT      O82681   9.276   3.469   2.514
27480WAT     H182682   9.233   3.398   2.570
27480WAT     H282683   9.330   3.529   2.573
27481WAT      O82684   7.555   4.075   3.586
27481WAT     H182685   7.497   4.149   3.553
27481WAT     H282686   7.644   4.079   3.540
27482WAT      O82687   9.337   4.087   0.448
27482WAT     H182688   9.269   4.015   0.466
27482WAT     H282689   9.298   4.155   0.386
27483WAT      O82690   8.232   2.115   8.435
27483WAT     H182691   8.255   2.212   8.433
27483WAT     H282692   8.239   2.077   8.343
27484WAT      O82693   4.280   8.093   5.865
27484WAT     H182694   4.222   8.094   5.784
27484WAT     H282695   4.258   8.013   5.921
27485WAT      O82696   2.988   3.932   6.351
27485WAT     H182697   3.050   3.889   6.286
27485WAT     H282698   2.909   3.872   6.366
27486WAT      O82699   6.092   9.741   8.419
27486WAT     H182700   6.132   9.663   8.370
27486WAT     H282701   6.079   9.716   8.515
27487WAT      O82702   8.193   6.487   9.702
27487WAT     H182703   8.095   6.490   9.723
27487WAT     H282704   8.236   6.571   9.733
27488WAT      O82705   8.013   6.738   5.632
27488WAT     H182706   8.050   6.697   5.549
27488WAT     H282707   8.052   6.693   5.712
27489WAT      O82708   7.038   2.358   1.029
27489WAT     H182709   6.994   2.282   1.077
27489WAT     H282710   7.127   2.329   0.993
27490WAT      O82711   1.473   4.553   1.572
27490WAT     H182712   1.523   4.629   1.612
27490WAT     H282713   1.463   4.568   1.473
27491WAT      O82714   3.021   3.665   8.398
27491WAT     H182715   3.104   3.717   8.375
27491WAT     H282716   2.940   3.719   8.374
27492WAT      O82717   4.054   7.175   9.023
27492WAT     H182718   4.133   7.130   8.980
27492WAT     H282719   3.970   7.127   8.999
27493WAT      O82720   1.266   6.361   2.150
27493WAT     H182721   1.190   6.341   2.212
27493WAT     H282722   1.316   6.277   2.130
27494WAT      O82723   6.172   0.940   6.917
27494WAT     H182724   6.099   0.958   6.851
27494WAT     H282725   6.236   1.017   6.917
27495WAT      O82726   8.754   3.512   2.159
27495WAT     H182727   8.834   3.559   2.123
27495WAT     H282728   8.676   3.574   2.160
27496WAT      O82729   8.101   7.907   9.148
27496WAT     H182730   8.116   7.835   9.215
27496WAT     H282731   8.134   7.877   9.059
27497WAT      O82732   6.148   2.738   4.843
27497WAT     H182733   6.210   2.677   4.793
27497WAT     H282734   6.179   2.746   4.938
27498WAT      O82735   2.913   9.567   0.057
27498WAT     H182736   2.881   9.652   0.097
27498WAT     H282737   2.931   9.500   0.130
27499WAT      O82738   1.941   5.663   2.948
27499WAT     H182739   1.858   5.717   2.935
27499WAT     H282740   1.996   5.666   2.864
27500WAT      O82741   9.195   5.944   6.973
27500WAT     H182742   9.102   5.973   6.950
27500WAT     H282743   9.203   5.933   7.072
27501WAT      O82744   1.319   9.525   9.777
27501WAT     H182745   1.248   9.504   9.844
27501WAT     H282746   1.287   9.501   9.686
27502WAT      O82747   1.771   5.757   8.316
27502WAT     H182748   1.676   5.751   8.284
27502WAT     H282749   1.813   5.667   8.313
27503WAT      O82750   2.546   7.569   4.819
27503WAT     H182751   2.447   7.576   4.829
27503WAT     H282752   2.582   7.656   4.786
27504WAT      O82753   6.529   4.015   6.379
27504WAT     H182754   6.523   4.096   6.320
27504WAT     H282755   6.599   4.030   6.449
27505WAT      O82756   2.621   1.062   9.461
27505WAT     H182757   2.666   1.095   9.544
27505WAT     H282758   2.523   1.083   9.466
27506WAT      O82759   7.805   4.725   1.541
27506WAT     H182760   7.885   4.719   1.601
27506WAT     H282761   7.761   4.814   1.552
27507WAT      O82762   4.073   8.145   5.084
27507WAT     H182763   4.063   8.129   4.986
27507WAT     H282764   4.118   8.233   5.100
27508WAT      O82765   4.887   4.363   5.153
27508WAT     H182766   4.810   4.340   5.094
27508WAT     H282767   4.896   4.462   5.160
27509WAT      O82768   3.999   7.154   6.938
27509WAT     H182769   4.094   7.142   6.908
27509WAT     H282770   3.995   7.227   7.007
27510WAT      O82771   0.801   4.682   3.805
27510WAT     H182772   0.736   4.652   3.736
27510WAT     H282773   0.817   4.781   3.796
27511WAT      O82774   3.357   5.910   2.115
27511WAT     H182775   3.373   5.975   2.190
27511WAT     H282776   3.428   5.840   2.118
27512WAT      O82777   9.445   7.276   9.233
27512WAT     H182778   9.421   7.373   9.238
27512WAT     H282779   9.534   7.266   9.190
27513WAT      O82780   6.631   7.381   3.432
27513WAT     H182781   6.694   7.458   3.439
27513WAT     H282782   6.668   7.303   3.484
27514WAT      O82783   8.363   3.448   4.823
27514WAT     H182784   8.420   3.444   4.741
27514WAT     H282785   8.392   3.524   4.880
27515WAT      O82786   1.728   1.181   9.115
27515WAT     H182787   1.765   1.274   9.111
27515WAT     H282788   1.801   1.117   9.136
27516WAT      O82789   7.421   9.655   2.627
27516WAT     H182790   7.480   9.590   2.675
27516WAT     H282791   7.385   9.722   2.692
27517WAT      O82792   0.280   9.689   3.706
27517WAT     H182793   0.194   9.729   3.738
27517WAT     H282794   0.350   9.760   3.701
27518WAT      O82795   9.847   8.117   2.655
27518WAT     H182796   9.881   8.161   2.738
27518WAT     H282797   9.908   8.042   2.630
27519WAT      O82798   9.650   7.967   8.793
27519WAT     H182799   9.611   8.059   8.787
27519WAT     H282800   9.749   7.972   8.784
27520WAT      O82801   3.730   0.346   1.577
27520WAT     H182802   3.706   0.349   1.674
27520WAT     H282803   3.677   0.273   1.532
27521WAT      O82804   2.348   8.683   3.603
27521WAT     H182805   2.261   8.667   3.556
27521WAT     H282806   2.416   8.715   3.537
27522WAT      O82807   4.560   1.735   0.174
27522WAT     H182808   4.482   1.679   0.147
27522WAT     H282809   4.543   1.831   0.151
27523WAT      O82810   1.815   3.117   1.439
27523WAT     H182811   1.811   3.017   1.431
27523WAT     H282812   1.808   3.158   1.348
27524WAT      O82813   5.826   2.486   1.383
27524WAT     H182814   5.749   2.423   1.370
27524WAT     H282815   5.793   2.580   1.380
27525WAT      O82816   6.253   1.291   0.068
27525WAT     H182817   6.271   1.384   0.101
27525WAT     H282818   6.155   1.275   0.067
27526WAT      O82819   4.170   6.561   0.436
27526WAT     H182820   4.098   6.493   0.423
27526WAT     H282821   4.215   6.580   0.348
27527WAT      O82822   3.017   6.301   7.222
27527WAT     H182823   3.066   6.388   7.216
27527WAT     H282824   2.954   6.304   7.300
27528WAT      O82825   3.529   2.937   0.878
27528WAT     H182826   3.569   2.971   0.793
27528WAT     H282827   3.578   2.855   0.908
27529WAT      O82828   6.870   4.170   2.679
27529WAT     H182829   6.784   4.119   2.681
27529WAT     H282830   6.854   4.264   2.708
27530WAT      O82831   0.637   5.454   0.889
27530WAT     H182832   0.586   5.413   0.964
27530WAT     H282833   0.735   5.451   0.909
27531WAT      O82834   2.985   5.684   1.912
27531WAT     H182835   3.000   5.769   1.964
27531WAT     H282836   3.046   5.613   1.947
27532WAT      O82837   5.457   6.271   7.634
27532WAT     H182838   5.444   6.207   7.710
27532WAT     H282839   5.369   6.308   7.605
27533WAT      O82840   9.069   6.456   9.017
27533WAT     H182841   9.157   6.488   9.052
27533WAT     H282842   9.083   6.373   8.962
27534WAT      O82843   9.396   5.886   0.772
27534WAT     H182844   9.341   5.804   0.757
27534WAT     H282845   9.447   5.908   0.688
27535WAT      O82846   2.133   5.545   6.204
27535WAT     H182847   2.054   5.506   6.250
27535WAT     H282848   2.142   5.505   6.112
27536WAT      O82849   4.064   2.681   3.942
27536WAT     H182850   4.066   2.583   3.965
27536WAT     H282851   4.157   2.712   3.922
27537WAT      O82852   1.005   8.740   2.744
27537WAT     H182853   1.069   8.732   2.667
27537WAT     H282854   1.056   8.761   2.828
27538WAT      O82855   5.244   8.865   5.697
27538WAT     H182856   5.293   8.790   5.741
27538WAT     H282857   5.295   8.950   5.709
27539WAT      O82858   7.554   0.695   3.162
27539WAT     H182859   7.585   0.669   3.253
27539WAT     H282860   7.462   0.658   3.146
27540WAT      O82861   7.019   2.631   1.027
27540WAT     H182862   7.007   2.532   1.031
27540WAT     H282863   7.115   2.652   1.013
27541WAT      O82864   1.909   1.913   7.696
27541WAT     H182865   1.841   1.977   7.659
27541WAT     H282866   1.912   1.921   7.796
27542WAT      O82867   7.677   8.012   0.741
27542WAT     H182868   7.632   8.000   0.652
27542WAT     H282869   7.774   7.991   0.733
27543WAT      O82870   6.979   0.633   3.185
27543WAT     H182871   6.963   0.539   3.216
27543WAT     H282872   6.976   0.694   3.264
27544WAT      O82873   1.485   3.353   8.394
27544WAT     H182874   1.515   3.259   8.414
27544WAT     H282875   1.392   3.367   8.428
27545WAT      O82876   9.753   5.313   1.567
27545WAT     H182877   9.663   5.354   1.580
27545WAT     H282878   9.823   5.384   1.570
27546WAT      O82879   3.319   4.147   2.394
27546WAT     H182880   3.225   4.178   2.379
27546WAT     H282881   3.377   4.226   2.413
27547WAT      O82882   1.240   6.021   5.175
27547WAT     H182883   1.269   6.076   5.252
27547WAT     H282884   1.266   5.926   5.190
27548WAT      O82885   5.377   9.321   6.549
27548WAT     H182886   5.341   9.235   6.512
27548WAT     H282887   5.302   9.387   6.557
27549WAT      O82888   5.073   8.687   0.219
27549WAT     H182889   4.995   8.629   0.242
27549WAT     H282890   5.080   8.695   0.119
27550WAT      O82891   6.936   2.816   5.123
27550WAT     H182892   7.014   2.866   5.087
27550WAT     H282893   6.876   2.878   5.173
27551WAT      O82894   6.611   7.976   7.521
27551WAT     H182895   6.627   8.032   7.439
27551WAT     H282896   6.591   8.036   7.598
27552WAT      O82897   9.514   2.893   7.374
27552WAT     H182898   9.451   2.960   7.337
27552WAT     H282899   9.597   2.890   7.318
27553WAT      O82900   8.699   4.276   3.985
27553WAT     H182901   8.613   4.230   3.962
27553WAT     H282902   8.682   4.346   4.054
27554WAT      O82903   9.057   4.355   6.323
27554WAT     H182904   9.121   4.281   6.301
27554WAT     H282905   8.965   4.318   6.332
27555WAT      O82906   7.733   9.352   9.380
27555WAT     H182907   7.746   9.336   9.282
27555WAT     H282908   7.647   9.310   9.409
27556WAT      O82909   0.817   6.607   5.945
27556WAT     H182910   0.886   6.667   5.986
27556WAT     H282911   0.733   6.609   5.999
27557WAT      O82912   1.096   3.136   3.281
27557WAT     H182913   1.033   3.155   3.205
27557WAT     H282914   1.089   3.209   3.349
27558WAT      O82915   8.767   7.552   7.316
27558WAT     H182916   8.684   7.603   7.294
27558WAT     H282917   8.743   7.469   7.366
27559WAT      O82918   1.435   7.826   0.121
27559WAT     H182919   1.499   7.869   0.057
27559WAT     H282920   1.391   7.748   0.076
27560WAT      O82921   8.233   6.955   6.568
27560WAT     H182922   8.192   6.882   6.622
27560WAT     H282923   8.208   7.044   6.607
27561WAT      O82924   2.758   3.773   6.831
27561WAT     H182925   2.728   3.786   6.736
27561WAT     H282926   2.744   3.858   6.882
27562WAT      O82927   2.277   5.449   5.471
27562WAT     H182928   2.198   5.422   5.415
27562WAT     H282929   2.278   5.396   5.555
27563WAT      O82930   1.860   5.034   3.574
27563WAT     H182931   1.927   5.109   3.580
27563WAT     H282932   1.849   5.007   3.479
27564WAT      O82933   6.218   7.892   6.905
27564WAT     H182934   6.202   7.990   6.898
27564WAT     H282935   6.306   7.876   6.950
27565WAT      O82936   0.001   0.937   4.345
27565WAT     H182937   0.093   0.924   4.308
27565WAT     H282938  -0.042   0.848   4.360
27566WAT      O82939   3.141   1.777   6.833
27566WAT     H182940   3.103   1.800   6.743
27566WAT     H282941   3.086   1.821   6.904
27567WAT      O82942   2.827   3.940   9.557
27567WAT     H182943   2.808   3.842   9.550
27567WAT     H282944   2.743   3.992   9.542
27568WAT      O82945   2.628   6.128   6.535
27568WAT     H182946   2.722   6.162   6.533
27568WAT     H282947   2.629   6.030   6.556
27569WAT      O82948   0.715   3.217   9.848
27569WAT     H182949   0.704   3.164   9.764
27569WAT     H282950   0.725   3.314   9.825
27570WAT      O82951   4.296   8.759   9.226
27570WAT     H182952   4.252   8.800   9.305
27570WAT     H282953   4.324   8.831   9.162
27571WAT      O82954   8.945   7.357   0.054
27571WAT     H182955   9.035   7.330   0.089
27571WAT     H282956   8.874   7.302   0.098
27572WAT      O82957   6.525   5.143   3.334
27572WAT     H182958   6.507   5.148   3.432
27572WAT     H282959   6.601   5.081   3.317
27573WAT      O82960   3.466   9.555   1.012
27573WAT     H182961   3.436   9.523   0.922
27573WAT     H282962   3.537   9.625   1.001
27574WAT      O82963   8.061   3.221   4.244
27574WAT     H182964   8.001   3.289   4.286
27574WAT     H282965   8.078   3.246   4.149
27575WAT      O82966   1.055   2.482   7.879
27575WAT     H182967   1.040   2.554   7.811
27575WAT     H282968   1.010   2.398   7.849
27576WAT      O82969   0.164   5.978   0.944
27576WAT     H182970   0.172   5.879   0.952
27576WAT     H282971   0.076   6.008   0.980
27577WAT      O82972   2.659   5.585   7.463
27577WAT     H182973   2.565   5.554   7.476
27577WAT     H282974   2.671   5.620   7.371
27578WAT      O82975   2.686   1.560   7.063
27578WAT     H182976   2.636   1.638   7.027
27578WAT     H282977   2.738   1.516   6.990
27579WAT      O82978   9.425   3.164   9.830
27579WAT     H182979   9.458   3.258   9.826
27579WAT     H282980   9.484   3.111   9.891
27580WAT      O82981   2.666   0.853   1.038
27580WAT     H182982   2.640   0.928   1.098
27580WAT     H282983   2.700   0.776   1.093
27581WAT      O82984   7.508   6.779   9.478
27581WAT     H182985   7.585   6.741   9.529
27581WAT     H282986   7.432   6.797   9.540
27582WAT      O82987   0.817   7.925   8.115
27582WAT     H182988   0.770   7.838   8.100
27582WAT     H282989   0.810   7.951   8.211
27583WAT      O82990   3.798   0.487   0.431
27583WAT     H182991   3.829   0.578   0.406
27583WAT     H282992   3.811   0.425   0.353
27584WAT      O82993   3.488   2.449   7.370
27584WAT     H182994   3.567   2.459   7.431
27584WAT     H282995   3.481   2.530   7.311
27585WAT      O82996   1.896   6.532   3.115
27585WAT     H182997   1.889   6.433   3.131
27585WAT     H282998   1.981   6.552   3.068
27586WAT      O82999   2.260   3.934   8.034
27586WAT     H183000   2.320   3.988   8.094
27586WAT     H283001   2.227   3.854   8.084
27587WAT      O83002   5.043   1.974   6.129
27587WAT     H183003   4.994   1.900   6.083
27587WAT     H283004   5.107   2.016   6.065
27588WAT      O83005   9.211   7.479   8.103
27588WAT     H183006   9.135   7.484   8.038
27588WAT     H283007   9.259   7.566   8.105
27589WAT      O83008   5.010   5.188   1.586
27589WAT     H183009   5.052   5.102   1.615
27589WAT     H283010   5.034   5.206   1.490
27590WAT      O83011   2.173   6.090   3.866
27590WAT     H183012   2.165   6.069   3.768
27590WAT     H283013   2.089   6.065   3.913
27591WAT      O83014   4.719   0.457   3.143
27591WAT     H183015   4.621   0.448   3.123
27591WAT     H283016   4.770   0.456   3.057
27592WAT      O83017   1.648   1.045   2.522
27592WAT     H183018   1.657   1.075   2.427
27592WAT     H283019   1.656   1.125   2.582
27593WAT      O83020   2.969   7.366   7.067
27593WAT     H183021   3.058   7.324   7.047
27593WAT     H283022   2.897   7.297   7.061
27594WAT      O83023   8.881   4.741   0.723
27594WAT     H183024   8.896   4.821   0.781
27594WAT     H283025   8.804   4.688   0.758
27595WAT      O83026   6.414   7.220   6.957
27595WAT     H183027   6.492   7.160   6.937
27595WAT     H283028   6.400   7.224   7.056
27596WAT      O83029   8.604   4.505   7.322
27596WAT     H183030   8.574   4.451   7.244
27596WAT     H283031   8.653   4.586   7.289
27597WAT      O83032   5.366   8.742   4.822
27597WAT     H183033   5.441   8.693   4.777
27597WAT     H283034   5.294   8.678   4.848
27598WAT      O83035   8.708   6.988   4.821
27598WAT     H183036   8.721   7.067   4.762
27598WAT     H283037   8.797   6.948   4.845
27599WAT      O83038   1.858   3.455   4.474
27599WAT     H183039   1.928   3.523   4.448
27599WAT     H283040   1.815   3.483   4.559
27600WAT      O83041   7.865   6.141   1.903
27600WAT     H183042   7.901   6.216   1.848
27600WAT     H283043   7.893   6.152   1.998
27601WAT      O83044   0.734   2.801   8.956
27601WAT     H183045   0.780   2.734   8.898
27601WAT     H283046   0.708   2.759   9.042
27602WAT      O83047   0.157   9.739   0.360
27602WAT     H183048   0.100   9.808   0.406
27602WAT     H283049   0.146   9.651   0.406
27603WAT      O83050   7.119   9.546   9.881
27603WAT     H183051   7.184   9.567   9.809
27603WAT     H283052   7.166   9.542   9.969
27604WAT      O83053   7.531   4.572   4.150
27604WAT     H183054   7.567   4.515   4.077
27604WAT     H283055   7.530   4.520   4.236
27605WAT      O83056   1.912   9.495   3.070
27605WAT     H183057   1.894   9.549   3.152
27605WAT     H283058   1.842   9.513   3.001
27606WAT      O83059   3.245   2.116   0.737
27606WAT     H183060   3.235   2.169   0.821
27606WAT     H283061   3.260   2.020   0.761
27607WAT      O83062   7.629   4.166   3.839
27607WAT     H183063   7.593   4.134   3.751
27607WAT     H283064   7.715   4.214   3.825
27608WAT      O83065   3.471   2.839   3.640
27608WAT     H183066   3.513   2.754   3.673
27608WAT     H283067   3.469   2.837   3.540
27609WAT      O83068   1.663   7.907   2.908
27609WAT     H183069   1.708   7.921   2.996
27609WAT     H283070   1.564   7.912   2.920
27610WAT      O83071   8.851   2.523   2.339
27610WAT     H183072   8.887   2.440   2.380
27610WAT     H283073   8.853   2.515   2.239
27611WAT      O83074   8.320   6.418   4.128
27611WAT     H183075   8.306   6.394   4.032
27611WAT     H283076   8.408   6.466   4.138
27612WAT      O83077   2.746   0.980   1.559
27612WAT     H183078   2.666   1.040   1.566
27612WAT     H283079   2.792   0.995   1.472
27613WAT      O83080   2.319   3.492   0.982
27613WAT     H183081   2.350   3.514   0.890
27613WAT     H283082   2.398   3.465   1.038
27614WAT      O83083   4.795   6.566   9.458
27614WAT     H183084   4.789   6.483   9.513
27614WAT     H283085   4.834   6.544   9.369
27615WAT      O83086   3.858   4.523   8.025
27615WAT     H183087   3.793   4.497   7.954
27615WAT     H283088   3.946   4.545   7.983
27616WAT      O83089   0.405   5.047   9.410
27616WAT     H183090   0.328   4.990   9.439
27616WAT     H283091   0.391   5.141   9.442
27617WAT      O83092   9.764   6.226   1.210
27617WAT     H183093   9.713   6.312   1.217
27617WAT     H283094   9.847   6.232   1.264
27618WAT      O83095   0.202   3.423   3.962
27618WAT     H183096   0.189   3.324   3.971
27618WAT     H283097   0.283   3.450   4.014
27619WAT      O83098   0.629   1.386   6.697
27619WAT     H183099   0.695   1.436   6.753
27619WAT     H283100   0.673   1.355   6.613
27620WAT      O83101   2.334   9.722   6.894
27620WAT     H183102   2.388   9.639   6.905
27620WAT     H283103   2.265   9.727   6.966
27621WAT      O83104   6.846   8.945   9.591
27621WAT     H183105   6.882   8.905   9.507
27621WAT     H283106   6.777   9.014   9.568
27622WAT      O83107   1.966   9.651   5.912
27622WAT     H183108   1.934   9.583   5.977
27622WAT     H283109   1.889   9.703   5.876
27623WAT      O83110   9.608   7.932   1.704
27623WAT     H183111   9.647   7.939   1.612
27623WAT     H283112   9.593   7.835   1.725
27624WAT      O83113   0.056   2.137   0.114
27624WAT     H183114   0.151   2.147   0.145
27624WAT     H283115  -0.005   2.184   0.177
27625WAT      O83116   8.635   3.196   5.818
27625WAT     H183117   8.653   3.184   5.721
27625WAT     H283118   8.604   3.109   5.857
27626WAT      O83119   7.196   7.427   2.430
27626WAT     H183120   7.149   7.437   2.342
27626WAT     H283121   7.253   7.345   2.428
27627WAT      O83122   8.246   5.655   1.289
27627WAT     H183123   8.212   5.603   1.367
27627WAT     H283124   8.303   5.730   1.322
27628WAT      O83125   9.591   1.996   5.558
27628WAT     H183126   9.519   2.065   5.565
27628WAT     H283127   9.673   2.037   5.518
27629WAT      O83128   0.154   2.103   8.129
27629WAT     H183129   0.245   2.142   8.134
27629WAT     H283130   0.086   2.176   8.124
27630WAT      O83131   0.592   9.078   3.818
27630WAT     H183132   0.550   9.039   3.900
27630WAT     H283133   0.617   9.005   3.755
27631WAT      O83134   4.195   5.327   8.600
27631WAT     H183135   4.212   5.252   8.664
27631WAT     H283136   4.170   5.409   8.651
27632WAT      O83137   2.531   3.655   0.824
27632WAT     H183138   2.461   3.603   0.775
27632WAT     H283139   2.604   3.592   0.854
27633WAT      O83140   5.885   6.056   2.818
27633WAT     H183141   5.908   6.045   2.721
27633WAT     H283142   5.787   6.039   2.832
27634WAT      O83143   3.359   6.672   8.502
27634WAT     H183144   3.276   6.724   8.522
27634WAT     H283145   3.435   6.707   8.557
27635WAT      O83146   0.911   8.043   0.437
27635WAT     H183147   0.870   8.085   0.518
27635WAT     H283148   0.846   7.978   0.397
27636WAT      O83149   6.266   4.276   6.478
27636WAT     H183150   6.340   4.256   6.541
27636WAT     H283151   6.237   4.371   6.490
27637WAT      O83152   2.241   0.731   4.768
27637WAT     H183153   2.254   0.665   4.694
27637WAT     H283154   2.272   0.691   4.854
27638WAT      O83155   1.523   0.222   0.978
27638WAT     H183156   1.532   0.255   0.884
27638WAT     H283157   1.426   0.215   1.002
27639WAT      O83158   3.610   1.172   1.248
27639WAT     H183159   3.568   1.230   1.318
27639WAT     H283160   3.622   1.224   1.164
27640WAT      O83161   1.898   0.201   5.201
27640WAT     H183162   1.900   0.170   5.296
27640WAT     H283163   1.823   0.266   5.189
27641WAT      O83164   6.070   3.263   6.307
27641WAT     H183165   6.059   3.260   6.407
27641WAT     H283166   5.993   3.215   6.264
27642WAT      O83167   4.409   3.962   1.625
27642WAT     H183168   4.413   3.976   1.724
27642WAT     H283169   4.327   3.910   1.602
27643WAT      O83170   3.633   6.221   0.624
27643WAT     H183171   3.560   6.285   0.601
27643WAT     H283172   3.717   6.271   0.645
27644WAT      O83173   9.813   8.974   2.434
27644WAT     H183174   9.886   8.932   2.381
27644WAT     H283175   9.746   8.905   2.460
27645WAT      O83176   8.571   6.310   3.985
27645WAT     H183177   8.498   6.242   3.992
27645WAT     H283178   8.642   6.290   4.053
27646WAT      O83179   4.275   2.644   5.137
27646WAT     H183180   4.339   2.576   5.173
27646WAT     H283181   4.238   2.698   5.213
27647WAT      O83182   0.677   9.775   0.999
27647WAT     H183183   0.742   9.842   1.035
27647WAT     H283184   0.715   9.732   0.917
27648WAT      O83185   1.377   4.867   4.006
27648WAT     H183186   1.331   4.812   4.075
27648WAT     H283187   1.474   4.844   4.004
27649WAT      O83188   2.607   7.276   7.565
27649WAT     H183189   2.660   7.208   7.616
27649WAT     H283190   2.511   7.269   7.589
27650WAT      O83191   2.376   0.157   4.646
27650WAT     H183192   2.456   0.130   4.593
27650WAT     H283193   2.293   0.131   4.596
27651WAT      O83194   1.725   5.571   7.310
27651WAT     H183195   1.796   5.624   7.264
27651WAT     H283196   1.636   5.611   7.293
27652WAT      O83197   1.155   8.890   0.892
27652WAT     H183198   1.079   8.941   0.932
27652WAT     H283199   1.223   8.954   0.856
27653WAT      O83200   0.414   0.942   2.068
27653WAT     H183201   0.457   0.929   2.157
27653WAT     H283202   0.466   1.010   2.015
27654WAT      O83203   7.020   6.184   4.982
27654WAT     H183204   6.948   6.175   5.050
27654WAT     H283205   6.990   6.145   4.895
27655WAT      O83206   2.164   4.477   6.857
27655WAT     H183207   2.102   4.539   6.905
27655WAT     H283208   2.139   4.473   6.760
27656WAT      O83209   3.130   6.194   1.928
27656WAT     H183210   3.157   6.107   1.886
27656WAT     H283211   3.033   6.191   1.951
27657WAT      O83212   3.762  -0.001   9.717
27657WAT     H183213   3.837   0.062   9.740
27657WAT     H283214   3.739   0.009   9.620
27658WAT      O83215   0.942   0.647   4.293
27658WAT     H183216   0.972   0.653   4.388
27658WAT     H283217   1.003   0.586   4.243
27659WAT      O83218   9.288   5.573   4.691
27659WAT     H183219   9.328   5.619   4.612
27659WAT     H283220   9.193   5.549   4.670
27660WAT      O83221   0.160   6.481   4.584
27660WAT     H183222   0.163   6.551   4.655
27660WAT     H283223   0.239   6.420   4.594
27661WAT      O83224   9.104   0.103   4.299
27661WAT     H183225   9.033   0.038   4.274
27661WAT     H283226   9.119   0.100   4.398
27662WAT      O83227   5.185   6.704   9.448
27662WAT     H183228   5.133   6.760   9.383
27662WAT     H283229   5.222   6.763   9.520
27663WAT      O83230   5.332   5.177   7.644
27663WAT     H183231   5.347   5.275   7.641
27663WAT     H283232   5.308   5.149   7.737
27664WAT      O83233   0.036   8.889   2.835
27664WAT     H183234   0.121   8.861   2.880
27664WAT     H283235  -0.015   8.950   2.895
27665WAT      O83236   9.734   5.609   2.802
27665WAT     H183237   9.681   5.692   2.821
27665WAT     H283238   9.695   5.532   2.851
27666WAT      O83239   0.434   4.960   7.797
27666WAT     H183240   0.460   4.937   7.890
27666WAT     H283241   0.352   4.910   7.772
27667WAT      O83242   4.114   1.221   7.716
27667WAT     H183243   4.144   1.253   7.626
27667WAT     H283244   4.097   1.123   7.712
27668WAT      O83245   7.501   7.655   3.266
27668WAT     H183246   7.419   7.641   3.321
27668WAT     H283247   7.519   7.753   3.256
27669WAT      O83248   2.453   5.786   1.724
27669WAT     H183249   2.486   5.866   1.775
27669WAT     H283250   2.378   5.813   1.664
27670WAT      O83251   2.763   1.601   0.146
27670WAT     H183252   2.755   1.701   0.143
27670WAT     H283253   2.841   1.575   0.204
27671WAT      O83254   3.435   1.120   3.689
27671WAT     H183255   3.483   1.064   3.621
27671WAT     H283256   3.413   1.209   3.649
27672WAT      O83257   9.351   4.900   9.637
27672WAT     H183258   9.314   4.813   9.671
27672WAT     H283259   9.277   4.956   9.601
27673WAT      O83260   1.199   4.207   8.817
27673WAT     H183261   1.229   4.296   8.782
27673WAT     H283262   1.265   4.175   8.885
27674WAT      O83263   8.275   9.079   9.772
27674WAT     H183264   8.360   9.045   9.812
27674WAT     H283265   8.214   9.002   9.754
27675WAT      O83266   0.426   9.062   9.572
27675WAT     H183267   0.402   9.018   9.485
27675WAT     H283268   0.470   9.150   9.554
27676WAT      O83269   9.231   8.360   5.270
27676WAT     H183270   9.266   8.449   5.241
27676WAT     H283271   9.234   8.297   5.192
27677WAT      O83272   8.492   1.607   6.824
27677WAT     H183273   8.577   1.567   6.791
27677WAT     H283274   8.496   1.619   6.923
27678WAT      O83275   8.743   0.905   0.830
27678WAT     H183276   8.731   0.814   0.871
27678WAT     H283277   8.659   0.958   0.842
27679WAT      O83278   9.188   5.911   5.590
27679WAT     H183279   9.261   5.917   5.658
27679WAT     H283280   9.104   5.950   5.628
27680WAT      O83281   2.191   1.426   8.223
27680WAT     H183282   2.185   1.516   8.266
27680WAT     H283283   2.110   1.372   8.246
27681WAT      O83284   7.819   9.185   4.139
27681WAT     H183285   7.739   9.245   4.127
27681WAT     H283286   7.788   9.095   4.168
27682WAT      O83287   9.631   7.738   4.442
27682WAT     H183288   9.556   7.760   4.379
27682WAT     H283289   9.715   7.722   4.391
27683WAT      O83290   1.638   1.356   5.806
27683WAT     H183291   1.662   1.335   5.711
27683WAT     H283292   1.717   1.340   5.865
27684WAT      O83293   2.117   4.565   5.906
27684WAT     H183294   2.099   4.528   5.815
27684WAT     H283295   2.187   4.508   5.951
27685WAT      O83296   1.945   6.018   6.327
27685WAT     H183297   1.954   6.110   6.365
27685WAT     H283298   1.861   6.013   6.273
27686WAT      O83299   6.082   0.273   1.579
27686WAT     H183300   6.016   0.240   1.647
27686WAT     H283301   6.083   0.373   1.578
27687WAT      O83302   9.250   3.911   5.652
27687WAT     H183303   9.274   4.005   5.677
27687WAT     H283304   9.190   3.912   5.572
27688WAT      O83305   8.483   0.883   1.311
27688WAT     H183306   8.428   0.803   1.337
27688WAT     H283307   8.452   0.963   1.364
27689WAT      O83308   9.047   4.451   5.002
27689WAT     H183309   9.039   4.544   4.965
27689WAT     H283310   8.961   4.425   5.047
27690WAT      O83311   4.051   1.732   0.053
27690WAT     H183312   3.986   1.735  -0.023
27690WAT     H283313   4.067   1.825   0.087
27691WAT      O83314   5.603   8.953   5.072
27691WAT     H183315   5.662   8.971   5.151
27691WAT     H283316   5.654   8.897   5.006
27692WAT      O83317   0.065   8.877   0.161
27692WAT     H183318   0.067   8.867   0.260
27692WAT     H283319   0.158   8.871   0.125
27693WAT      O83320   7.753   6.622   0.417
27693WAT     H183321   7.713   6.611   0.326
27693WAT     H283322   7.697   6.573   0.484
27694WAT      O83323   4.857   9.716   1.366
27694WAT     H183324   4.927   9.780   1.334
27694WAT     H283325   4.872   9.627   1.323
27695WAT      O83326   3.554   3.742   2.515
27695WAT     H183327   3.487   3.760   2.586
27695WAT     H283328   3.509   3.703   2.434
27696WAT      O83329   1.656   7.776   9.471
27696WAT     H183330   1.664   7.722   9.555
27696WAT     H283331   1.666   7.873   9.493
27697WAT      O83332   5.481   1.888   3.583
27697WAT     H183333   5.391   1.929   3.599
27697WAT     H283334   5.522   1.929   3.501
27698WAT      O83335   5.054   6.626   7.399
27698WAT     H183336   5.153   6.617   7.413
27698WAT     H283337   5.006   6.579   7.474
27699WAT      O83338   5.673   7.632   0.095
27699WAT     H183339   5.624   7.610   0.180
27699WAT     H283340   5.610   7.627   0.018
27700WAT      O83341   2.523   9.015   5.823
27700WAT     H183342   2.544   8.917   5.825
27700WAT     H283343   2.595   9.063   5.772
27701WAT      O83344   1.004   2.771   0.874
27701WAT     H183345   0.933   2.717   0.918
27701WAT     H283346   1.068   2.710   0.828
27702WAT      O83347   3.566   8.549   5.083
27702WAT     H183348   3.591   8.543   4.987
27702WAT     H283349   3.639   8.511   5.140
27703WAT      O83350   5.434   6.764   7.008
27703WAT     H183351   5.382   6.788   7.090
27703WAT     H283352   5.531   6.755   7.033
27704WAT      O83353   0.736   7.176   8.195
27704WAT     H183354   0.682   7.145   8.116
27704WAT     H283355   0.682   7.241   8.248
27705WAT      O83356   4.085   1.864   8.141
27705WAT     H183357   4.056   1.944   8.090
27705WAT     H283358   4.184   1.867   8.155
27706WAT      O83359   2.124   4.220   8.663
27706WAT     H183360   2.121   4.268   8.751
27706WAT     H283361   2.086   4.128   8.674
27707WAT      O83362   4.876   7.422   5.879
27707WAT     H183363   4.824   7.507   5.877
27707WAT     H283364   4.907   7.403   5.972
27708WAT      O83365   6.910   6.879   2.307
27708WAT     H183366   6.946   6.971   2.291
27708WAT     H283367   6.881   6.871   2.403
27709WAT      O83368   5.291   9.036   0.562
27709WAT     H183369   5.202   9.056   0.603
27709WAT     H283370   5.358   9.020   0.635
27710WAT      O83371   2.370   1.819   8.255
27710WAT     H183372   2.453   1.768   8.234
27710WAT     H283373   2.394   1.908   8.293
27711WAT      O83374   3.260   8.912   1.314
27711WAT     H183375   3.360   8.914   1.311
27711WAT     H283376   3.225   8.898   1.221
27712WAT      O83377   9.540   6.304   4.363
27712WAT     H183378   9.459   6.272   4.314
27712WAT     H283379   9.548   6.254   4.450
27713WAT      O83380   8.845   3.760   1.746
27713WAT     H183381   8.767   3.697   1.751
27713WAT     H283382   8.928   3.712   1.775
27714WAT      O83383   7.939   6.563   4.534
27714WAT     H183384   7.854   6.511   4.529
27714WAT     H283385   7.986   6.542   4.620
27715WAT      O83386   4.409   5.721   5.046
27715WAT     H183387   4.335   5.748   5.106
27715WAT     H283388   4.400   5.625   5.021
27716WAT      O83389   6.990   4.206   3.568
27716WAT     H183390   6.998   4.227   3.471
27716WAT     H283391   6.939   4.121   3.579
27717WAT      O83392   4.978   4.345   8.459
27717WAT     H183393   5.069   4.308   8.477
27717WAT     H283394   4.919   4.326   8.537
27718WAT      O83395   7.287   7.905   8.820
27718WAT     H183396   7.283   7.819   8.769
27718WAT     H283397   7.198   7.950   8.814
27719WAT      O83398   8.838   9.649   5.229
27719WAT     H183399   8.922   9.624   5.277
27719WAT     H283400   8.783   9.567   5.211
27720WAT      O83401   5.878   0.529   4.359
27720WAT     H183402   5.874   0.594   4.283
27720WAT     H283403   5.914   0.575   4.441
27721WAT      O83404   7.521   7.653   4.520
27721WAT     H183405   7.512   7.752   4.508
27721WAT     H283406   7.581   7.617   4.449
27722WAT      O83407   1.879   5.767   3.606
27722WAT     H183408   1.908   5.861   3.585
27722WAT     H283409   1.820   5.734   3.532
27723WAT      O83410   5.309   5.325   8.533
27723WAT     H183411   5.365   5.296   8.610
27723WAT     H283412   5.217   5.348   8.566
27724WAT      O83413   6.083   0.415   4.903
27724WAT     H183414   6.000   0.462   4.872
27724WAT     H283415   6.163   0.465   4.869
27725WAT      O83416   8.120   0.746   5.431
27725WAT     H183417   8.064   0.729   5.512
27725WAT     H283418   8.203   0.795   5.458
27726WAT      O83419   3.939   5.214   7.033
27726WAT     H183420   4.008   5.190   6.964
27726WAT     H283421   3.978   5.206   7.124
27727WAT      O83422   2.313   8.721   9.758
27727WAT     H183423   2.256   8.652   9.713
27727WAT     H283424   2.400   8.728   9.710
27728WAT      O83425   9.524   0.651   0.373
27728WAT     H183426   9.469   0.643   0.456
27728WAT     H283427   9.513   0.568   0.318
27729WAT      O83428   0.688   6.837   3.393
27729WAT     H183429   0.593   6.855   3.367
27729WAT     H283430   0.725   6.764   3.335
27730WAT      O83431   4.861   8.361   9.708
27730WAT     H183432   4.835   8.302   9.631
27730WAT     H283433   4.779   8.406   9.743
27731WAT      O83434   0.162   8.466   0.433
27731WAT     H183435   0.089   8.493   0.371
27731WAT     H283436   0.237   8.424   0.381
27732WAT      O83437   5.530   1.388   4.321
27732WAT     H183438   5.460   1.316   4.319
27732WAT     H283439   5.612   1.355   4.276
27733WAT      O83440   8.372   5.911   3.023
27733WAT     H183441   8.339   5.901   2.929
27733WAT     H283442   8.327   5.845   3.082
27734WAT      O83443   9.519   5.299   6.993
27734WAT     H183444   9.544   5.377   6.934
27734WAT     H283445   9.486   5.334   7.081
27735WAT      O83446   8.485   3.149   7.251
27735WAT     H183447   8.531   3.061   7.240
27735WAT     H283448   8.539   3.220   7.206
27736WAT      O83449   3.601   4.310   5.087
27736WAT     H183450   3.593   4.340   4.992
27736WAT     H283451   3.510   4.297   5.126
27737WAT      O83452   5.944   6.898   3.186
27737WAT     H183453   5.858   6.900   3.135
27737WAT     H283454   5.996   6.817   3.161
27738WAT      O83455   1.557   4.675   2.730
27738WAT     H183456   1.600   4.586   2.744
27738WAT     H283457   1.495   4.670   2.652
27739WAT      O83458   8.296   5.083   2.071
27739WAT     H183459   8.210   5.033   2.071
27739WAT     H283460   8.360   5.038   2.009
27740WAT      O83461   5.310   1.073   9.251
27740WAT     H183462   5.400   1.030   9.252
27740WAT     H283463   5.244   1.015   9.300
27741WAT      O83464   8.122   4.984   0.350
27741WAT     H183465   8.112   5.045   0.272
27741WAT     H283466   8.205   4.929   0.339
27742WAT      O83467   5.635   2.231   5.656
27742WAT     H183468   5.610   2.310   5.600
27742WAT     H283469   5.729   2.204   5.636
27743WAT      O83470   2.833   0.060   4.628
27743WAT     H183471   2.827  -0.030   4.670
27743WAT     H283472   2.745   0.084   4.587
27744WAT      O83473   8.455   5.444   4.171
27744WAT     H183474   8.529   5.406   4.227
27744WAT     H283475   8.391   5.493   4.230
27745WAT      O83476   3.440   9.410   2.142
27745WAT     H183477   3.508   9.385   2.074
27745WAT     H283478   3.389   9.328   2.170
27746WAT      O83479   0.168   9.197   5.440
27746WAT     H183480   0.095   9.173   5.376
27746WAT     H283481   0.132   9.254   5.513
27747WAT      O83482   0.012   1.951   5.849
27747WAT     H183483   0.071   1.929   5.927
27747WAT     H283484  -0.075   1.986   5.883
27748WAT      O83485   4.506   5.800   0.120
27748WAT     H183486   4.512   5.892   0.082
27748WAT     H283487   4.576   5.742   0.079
27749WAT      O83488   9.661   6.637   7.836
27749WAT     H183489   9.692   6.732   7.826
27749WAT     H283490   9.738   6.580   7.865
27750WAT      O83491   5.809   7.182   7.836
27750WAT     H183492   5.828   7.231   7.750
27750WAT     H283493   5.829   7.085   7.824
27751WAT      O83494   9.038   4.809   7.809
27751WAT     H183495   9.098   4.783   7.885
27751WAT     H283496   8.944   4.813   7.840
27752WAT      O83497   5.861   4.515   9.578
27752WAT     H183498   5.800   4.509   9.658
27752WAT     H283499   5.919   4.596   9.587
27753WAT      O83500   2.580   3.381   7.960
27753WAT     H183501   2.521   3.300   7.965
27753WAT     H283502   2.623   3.396   8.049
27754WAT      O83503   9.115   9.147   7.521
27754WAT     H183504   9.113   9.098   7.434
27754WAT     H283505   9.061   9.096   7.589
27755WAT      O83506   1.157   5.968   5.984
27755WAT     H183507   1.222   5.954   5.909
27755WAT     H283508   1.184   5.912   6.062
27756WAT      O83509   8.288   6.304   8.092
27756WAT     H183510   8.251   6.380   8.146
27756WAT     H283511   8.385   6.292   8.113
27757WAT      O83512   5.046   2.587   8.048
27757WAT     H183513   5.048   2.521   8.123
27757WAT     H283514   4.991   2.551   7.973
27758WAT      O83515   3.386   9.129   7.756
27758WAT     H183516   3.460   9.165   7.698
27758WAT     H283517   3.304   9.183   7.742
27759WAT      O83518   5.099   1.586   5.699
27759WAT     H183519   5.153   1.563   5.618
27759WAT     H283520   5.149   1.652   5.755
27760WAT      O83521   5.491   2.194   6.524
27760WAT     H183522   5.503   2.282   6.570
27760WAT     H283523   5.393   2.176   6.514
27761WAT      O83524   6.675   0.769   5.234
27761WAT     H183525   6.678   0.787   5.333
27761WAT     H283526   6.582   0.786   5.201
27762WAT      O83527   1.582   2.259   1.746
27762WAT     H183528   1.521   2.226   1.818
27762WAT     H283529   1.571   2.357   1.735
27763WAT      O83530   3.169   8.021   3.959
27763WAT     H183531   3.219   8.062   4.034
27763WAT     H283532   3.124   8.092   3.905
27764WAT      O83533   4.440   7.596   1.587
27764WAT     H183534   4.364   7.660   1.576
27764WAT     H283535   4.444   7.535   1.508
27765WAT      O83536   8.179   5.591   6.881
27765WAT     H183537   8.238   5.604   6.960
27765WAT     H283538   8.216   5.642   6.803
27766WAT      O83539   5.761   7.861   1.684
27766WAT     H183540   5.842   7.906   1.721
27766WAT     H283541   5.786   7.770   1.651
27767WAT      O83542   5.817   7.443   1.786
27767WAT     H183543   5.726   7.483   1.782
27767WAT     H283544   5.877   7.502   1.839
27768WAT      O83545   4.173   9.104   8.552
27768WAT     H183546   4.121   9.021   8.532
27768WAT     H283547   4.126   9.183   8.511
27769WAT      O83548   6.105   9.681   9.561
27769WAT     H183549   6.161   9.755   9.599
27769WAT     H283550   6.035   9.655   9.628
27770WAT      O83551   8.812   7.596   8.153
27770WAT     H183552   8.755   7.666   8.110
27770WAT     H283553   8.756   7.516   8.175
27771WAT      O83554   3.641   8.858   0.900
27771WAT     H183555   3.547   8.851   0.866
27771WAT     H283556   3.656   8.949   0.938
27772WAT      O83557   1.701   2.139   4.223
27772WAT     H183558   1.696   2.050   4.179
27772WAT     H283559   1.666   2.133   4.316
27773WAT      O83560   0.417   0.120   0.753
27773WAT     H183561   0.473   0.044   0.718
27773WAT     H283562   0.342   0.083   0.807
27774WAT      O83563   4.927   9.843   1.805
27774WAT     H183564   4.992   9.915   1.784
27774WAT     H283565   4.964   9.784   1.877
27775WAT      O83566   9.797   9.140   0.623
27775WAT     H183567   9.731   9.089   0.678
27775WAT     H283568   9.765   9.146   0.528
27776WAT      O83569   9.138   5.164   2.127
27776WAT     H183570   9.047   5.169   2.088
27776WAT     H283571   9.153   5.073   2.165
27777WAT      O83572   4.232   6.524   0.909
27777WAT     H183573   4.180   6.506   0.825
27777WAT     H283574   4.216   6.451   0.974
27778WAT      O83575   9.587   1.579   8.270
27778WAT     H183576   9.487   1.585   8.277
27778WAT     H283577   9.611   1.514   8.198
27779WAT      O83578   6.209   1.056   4.604
27779WAT     H183579   6.254   1.146   4.604
27779WAT     H283580   6.122   1.064   4.652
27780WAT      O83581   9.724   6.845   3.026
27780WAT     H183582   9.776   6.913   2.975
27780WAT     H283583   9.713   6.762   2.970
27781WAT      O83584   0.634   6.207   5.515
27781WAT     H183585   0.686   6.194   5.599
27781WAT     H283586   0.674   6.153   5.441
27782WAT      O83587   3.486   5.371   9.786
27782WAT     H183588   3.584   5.384   9.800
27782WAT     H283589   3.451   5.308   9.856
27783WAT      O83590   7.106   3.282   3.055
27783WAT     H183591   7.133   3.352   3.121
27783WAT     H283592   7.134   3.192   3.089
27784WAT      O83593   1.693   6.208   3.594
27784WAT     H183594   1.598   6.226   3.621
27784WAT     H283595   1.694   6.158   3.508
27785WAT      O83596   3.969   8.506   0.201
27785WAT     H183597   4.027   8.586   0.218
27785WAT     H283598   3.957   8.455   0.287
27786WAT      O83599   8.661   7.372   8.234
27786WAT     H183600   8.570   7.413   8.225
27786WAT     H283601   8.690   7.374   8.329
27787WAT      O83602   7.678   3.435   6.696
27787WAT     H183603   7.614   3.498   6.651
27787WAT     H283604   7.722   3.481   6.773
27788WAT      O83605   0.149   0.195   1.665
27788WAT     H183606   0.201   0.279   1.681
27788WAT     H283607   0.213   0.120   1.647
27789WAT      O83608   6.808   3.365   0.531
27789WAT     H183609   6.810   3.442   0.594
27789WAT     H283610   6.722   3.366   0.480
27790WAT      O83611   6.856   0.994   2.031
27790WAT     H183612   6.804   0.924   1.982
27790WAT     H283613   6.824   1.085   2.003
27791WAT      O83614   8.011   0.297   9.205
27791WAT     H183615   7.934   0.333   9.256
27791WAT     H283616   8.097   0.329   9.246
27792WAT      O83617   9.827   9.384   1.221
27792WAT     H183618   9.762   9.401   1.148
27792WAT     H283619   9.911   9.436   1.204
27793WAT      O83620   4.013   2.215   1.561
27793WAT     H183621   4.050   2.190   1.649
27793WAT     H283622   3.914   2.197   1.560
27794WAT      O83623   1.585   8.062   6.838
27794WAT     H183624   1.522   8.066   6.761
27794WAT     H283625   1.546   8.004   6.910
27795WAT      O83626   5.660   7.338   6.211
27795WAT     H183627   5.723   7.260   6.201
27795WAT     H283628   5.620   7.336   6.303
27796WAT      O83629   2.251   5.668   6.953
27796WAT     H183630   2.256   5.622   6.864
27796WAT     H283631   2.197   5.752   6.943
27797WAT      O83632   3.212   6.261   6.540
27797WAT     H183633   3.259   6.231   6.457
27797WAT     H283634   3.249   6.212   6.619
27798WAT      O83635   2.027   2.648   8.543
27798WAT     H183636   2.041   2.723   8.608
27798WAT     H283637   1.959   2.674   8.475
27799WAT      O83638   4.910   0.639   7.884
27799WAT     H183639   4.908   0.737   7.902
27799WAT     H283640   4.828   0.612   7.834
27800WAT      O83641   9.156   3.622   0.595
27800WAT     H183642   9.190   3.665   0.512
27800WAT     H283643   9.056   3.623   0.595
27801WAT      O83644   3.063   5.990   4.102
27801WAT     H183645   3.156   5.982   4.065
27801WAT     H283646   3.033   5.902   4.137
27802WAT      O83647   9.635   5.046   7.004
27802WAT     H183648   9.604   5.141   7.015
27802WAT     H283649   9.645   5.026   6.906
27803WAT      O83650   4.331   2.783   3.836
27803WAT     H183651   4.348   2.752   3.743
27803WAT     H283652   4.364   2.877   3.846
27804WAT      O83653   2.953   5.034   4.315
27804WAT     H183654   2.922   5.035   4.410
27804WAT     H283655   3.042   4.989   4.309
27805WAT      O83656   4.093   6.414   2.295
27805WAT     H183657   4.046   6.340   2.343
27805WAT     H283658   4.027   6.465   2.240
27806WAT      O83659   4.142   3.527   5.661
27806WAT     H183660   4.129   3.457   5.591
27806WAT     H283661   4.150   3.483   5.750
27807WAT      O83662   5.335   5.966   2.044
27807WAT     H183663   5.265   6.030   2.014
27807WAT     H283664   5.292   5.895   2.101
27808WAT      O83665   0.031   0.314   4.444
27808WAT     H183666  -0.041   0.245   4.455
27808WAT     H283667   0.076   0.329   4.532
27809WAT      O83668   7.917   6.821   9.299
27809WAT     H183669   7.956   6.746   9.245
27809WAT     H283670   7.912   6.903   9.242
27810WAT      O83671   9.188   4.490   4.092
27810WAT     H183672   9.269   4.480   4.034
27810WAT     H283673   9.106   4.481   4.037
27811WAT      O83674   8.248   8.527   5.180
27811WAT     H183675   8.237   8.455   5.249
27811WAT     H283676   8.331   8.580   5.200
27812WAT      O83677   8.225   5.873   0.090
27812WAT     H183678   8.256   5.946   0.151
27812WAT     H283679   8.207   5.790   0.143
27813WAT      O83680   5.780   3.484   5.688
27813WAT     H183681   5.692   3.444   5.665
27813WAT     H283682   5.826   3.427   5.756
27814WAT      O83683   1.537   1.435   1.644
27814WAT     H183684   1.595   1.502   1.690
27814WAT     H283685   1.553   1.439   1.546
27815WAT      O83686   5.840   3.390   6.958
27815WAT     H183687   5.909   3.449   7.000
27815WAT     H283688   5.885   3.309   6.919
27816WAT      O83689   7.051   8.570   0.114
27816WAT     H183690   7.146   8.601   0.116
27816WAT     H283691   7.021   8.558   0.019
27817WAT      O83692   7.659   5.369   3.954
27817WAT     H183693   7.622   5.455   3.990
27817WAT     H283694   7.726   5.332   4.018
27818WAT      O83695   0.693   4.118   2.819
27818WAT     H183696   0.705   4.033   2.768
27818WAT     H283697   0.656   4.189   2.758
27819WAT      O83698   5.478   0.383   1.859
27819WAT     H183699   5.565   0.433   1.857
27819WAT     H283700   5.472   0.330   1.944
27820WAT      O83701   0.250   0.065   0.168
27820WAT     H183702   0.218  -0.011   0.224
27820WAT     H283703   0.238   0.042   0.071
27821WAT      O83704   0.754   4.043   2.304
27821WAT     H183705   0.717   3.956   2.272
27821WAT     H283706   0.803   4.029   2.389
27822WAT      O83707   6.555   2.170   0.363
27822WAT     H183708   6.480   2.234   0.343
27822WAT     H283709   6.575   2.173   0.460
27823WAT      O83710   7.134   8.600   1.483
27823WAT     H183711   7.053   8.618   1.538
27823WAT     H283712   7.141   8.502   1.465
27824WAT      O83713   5.749   4.283   0.702
27824WAT     H183714   5.755   4.351   0.775
27824WAT     H283715   5.658   4.287   0.660
27825WAT      O83716   2.385   4.522   7.073
27825WAT     H183717   2.378   4.425   7.048
27825WAT     H283718   2.322   4.576   7.017
27826WAT      O83719   9.565   8.913   2.071
27826WAT     H183720   9.573   8.815   2.086
27826WAT     H283721   9.656   8.955   2.068
27827WAT      O83722   6.916   0.987   4.611
27827WAT     H183723   6.905   0.908   4.550
27827WAT     H283724   6.954   1.063   4.560
27828WAT      O83725   2.912   8.731   0.603
27828WAT     H183726   2.898   8.651   0.544
27828WAT     H283727   2.824   8.771   0.627
27829WAT      O83728   5.310   7.043   5.034
27829WAT     H183729   5.290   7.044   4.936
27829WAT     H283730   5.381   7.111   5.054
27830WAT      O83731   7.364   0.257   6.273
27830WAT     H183732   7.294   0.188   6.256
27830WAT     H283733   7.397   0.294   6.186
27831WAT      O83734   9.473   2.591   2.895
27831WAT     H183735   9.506   2.654   2.825
27831WAT     H283736   9.533   2.511   2.900
27832WAT      O83737   4.715   3.838   9.306
27832WAT     H183738   4.673   3.769   9.365
27832WAT     H283739   4.644   3.901   9.273
27833WAT      O83740   7.991   2.089   4.235
27833WAT     H183741   8.004   2.152   4.311
27833WAT     H283742   8.056   2.013   4.242
27834WAT      O83743   1.276   7.381   9.432
27834WAT     H183744   1.314   7.296   9.394
27834WAT     H283745   1.305   7.459   9.376
27835WAT      O83746   7.561   0.846   0.842
27835WAT     H183747   7.583   0.807   0.931
27835WAT     H283748   7.637   0.904   0.811
27836WAT      O83749   5.132   0.028   8.278
27836WAT     H183750   5.199   0.019   8.204
27836WAT     H283751   5.110   0.124   8.292
27837WAT      O83752   8.878   1.726   8.429
27837WAT     H183753   8.793   1.706   8.477
27837WAT     H283754   8.863   1.721   8.330
27838WAT      O83755   1.775   1.625   8.102
27838WAT     H183756   1.795   1.720   8.077
27838WAT     H283757   1.761   1.571   8.019
27839WAT      O83758   7.079   0.196   5.935
27839WAT     H183759   7.112   0.101   5.939
27839WAT     H283760   7.151   0.254   5.895
27840WAT      O83761   4.024   4.571   5.278
27840WAT     H183762   4.054   4.662   5.249
27840WAT     H283763   4.061   4.502   5.215
27841WAT      O83764   6.049   2.053   8.775
27841WAT     H183765   6.095   2.062   8.863
27841WAT     H283766   5.951   2.072   8.786
27842WAT      O83767   7.499   2.153   2.779
27842WAT     H183768   7.566   2.080   2.765
27842WAT     H283769   7.492   2.208   2.696
27843WAT      O83770   6.255   2.375   9.652
27843WAT     H183771   6.274   2.458   9.599
27843WAT     H283772   6.331   2.310   9.640
27844WAT      O83773   8.382   6.534   0.396
27844WAT     H183774   8.384   6.489   0.486
27844WAT     H283775   8.322   6.482   0.335
27845WAT      O83776   6.374   1.523   5.648
27845WAT     H183777   6.388   1.590   5.721
27845WAT     H283778   6.340   1.438   5.687
27846WAT      O83779   9.011   0.542   5.951
27846WAT     H183780   9.109   0.545   5.931
27846WAT     H283781   8.968   0.470   5.898
27847WAT      O83782   5.010   1.779   4.240
27847WAT     H183783   5.066   1.809   4.162
27847WAT     H283784   5.015   1.848   4.312
27848WAT      O83785   1.090   4.463   6.596
27848WAT     H183786   1.021   4.391   6.607
27848WAT     H283787   1.069   4.538   6.659
27849WAT      O83788   0.250   9.535   2.326
27849WAT     H183789   0.324   9.503   2.385
27849WAT     H283790   0.286   9.552   2.234
27850WAT      O83791   4.323   6.103   6.946
27850WAT     H183792   4.339   6.097   6.848
27850WAT     H283793   4.396   6.158   6.988
27851WAT      O83794   6.688   0.446   3.347
27851WAT     H183795   6.680   0.435   3.248
27851WAT     H283796   6.672   0.358   3.392
27852WAT      O83797   5.502   2.728   6.218
27852WAT     H183798   5.560   2.673   6.157
27852WAT     H283799   5.449   2.667   6.276
27853WAT      O83800   1.480   4.573   1.965
27853WAT     H183801   1.574   4.565   1.933
27853WAT     H283802   1.479   4.603   2.060
27854WAT      O83803   8.381   3.916   8.506
27854WAT     H183804   8.403   3.824   8.538
27854WAT     H283805   8.455   3.978   8.529
27855WAT      O83806   0.152   3.660   1.436
27855WAT     H183807   0.166   3.686   1.532
27855WAT     H283808   0.186   3.567   1.422
27856WAT      O83809   3.579   9.294   7.062
27856WAT     H183810   3.587   9.208   7.010
27856WAT     H283811   3.649   9.358   7.030
27857WAT      O83812   9.641   2.536   0.197
27857WAT     H183813   9.622   2.610   0.133
27857WAT     H283814   9.556   2.486   0.216
27858WAT      O83815   1.132   8.199   9.826
27858WAT     H183816   1.095   8.113   9.792
27858WAT     H283817   1.162   8.255   9.749
27859WAT      O83818   1.643   5.277   5.603
27859WAT     H183819   1.700   5.357   5.586
27859WAT     H283820   1.701   5.196   5.610
27860WAT      O83821   6.846   7.337   4.552
27860WAT     H183822   6.781   7.361   4.480
27860WAT     H283823   6.853   7.412   4.617
27861WAT      O83824   1.340   4.840   7.559
27861WAT     H183825   1.315   4.847   7.656
27861WAT     H283826   1.285   4.768   7.516
27862WAT      O83827   8.605   7.542   4.420
27862WAT     H183828   8.517   7.505   4.451
27862WAT     H283829   8.600   7.642   4.420
27863WAT      O83830   6.300   7.461   5.688
27863WAT     H183831   6.363   7.393   5.726
27863WAT     H283832   6.240   7.416   5.622
27864WAT      O83833   1.587   6.299   4.364
27864WAT     H183834   1.563   6.245   4.445
27864WAT     H283835   1.586   6.240   4.284
27865WAT      O83836   8.991   9.460   0.522
27865WAT     H183837   8.909   9.504   0.486
27865WAT     H283838   8.976   9.436   0.618
27866WAT      O83839   4.205   6.037   1.111
27866WAT     H183840   4.209   6.135   1.090
27866WAT     H283841   4.295   6.006   1.143
27867WAT      O83842   6.401   6.562   0.356
27867WAT     H183843   6.332   6.633   0.346
27867WAT     H283844   6.478   6.582   0.295
27868WAT      O83845   2.562   6.223   3.362
27868WAT     H183846   2.530   6.278   3.285
27868WAT     H283847   2.532   6.266   3.447
27869WAT      O83848   9.023   1.422   3.939
27869WAT     H183849   9.051   1.360   4.013
27869WAT     H283850   9.079   1.405   3.859
27870WAT      O83851   6.043   1.601   0.266
27870WAT     H183852   6.035   1.697   0.239
27870WAT     H283853   5.961   1.551   0.237
27871WAT      O83854   4.081   6.359   9.622
27871WAT     H183855   4.006   6.334   9.561
27871WAT     H283856   4.150   6.286   9.622
27872WAT      O83857   2.158   6.599   3.997
27872WAT     H183858   2.089   6.527   3.991
27872WAT     H283859   2.204   6.595   4.086
27873WAT      O83860   3.253   2.619   4.835
27873WAT     H183861   3.179   2.685   4.825
27873WAT     H283862   3.224   2.544   4.894
27874WAT      O83863   3.332   8.986   7.996
27874WAT     H183864   3.392   8.921   8.042
27874WAT     H283865   3.375   9.017   7.911
27875WAT      O83866   8.855   1.713   8.155
27875WAT     H183867   8.952   1.717   8.128
27875WAT     H283868   8.807   1.793   8.118
27876WAT      O83869   1.068   8.972   3.554
27876WAT     H183870   0.969   8.985   3.555
27876WAT     H283871   1.089   8.879   3.523
27877WAT      O83872   2.069   1.848   7.036
27877WAT     H183873   2.132   1.798   7.095
27877WAT     H283874   2.024   1.920   7.089
27878WAT      O83875   9.196   9.447   2.181
27878WAT     H183876   9.202   9.407   2.089
27878WAT     H283877   9.258   9.525   2.187
27879WAT      O83878   8.665   8.813   9.707
27879WAT     H183879   8.729   8.843   9.636
27879WAT     H283880   8.581   8.780   9.664
27880WAT      O83881   7.344   0.935   3.057
27880WAT     H183882   7.322   0.838   3.064
27880WAT     H283883   7.291   0.976   2.982
27881WAT      O83884   4.489   9.399   2.839
27881WAT     H183885   4.441   9.311   2.843
27881WAT     H283886   4.445   9.463   2.902
27882WAT      O83887   1.778   3.271   7.851
27882WAT     H183888   1.810   3.232   7.765
27882WAT     H283889   1.709   3.342   7.832
27883WAT      O83890   1.680   0.113   3.817
27883WAT     H183891   1.769   0.131   3.859
27883WAT     H283892   1.607   0.152   3.873
27884WAT      O83893   1.862   1.991   0.393
27884WAT     H183894   1.959   2.013   0.387
27884WAT     H283895   1.810   2.047   0.330
27885WAT      O83896   0.902   6.049   6.426
27885WAT     H183897   0.885   6.125   6.364
27885WAT     H283898   0.917   6.085   6.518
27886WAT      O83899   5.954   9.725   3.739
27886WAT     H183900   6.041   9.677   3.752
27886WAT     H283901   5.948   9.757   3.644
27887WAT      O83902   8.563   5.872   4.196
27887WAT     H183903   8.476   5.858   4.148
27887WAT     H283904   8.634   5.817   4.154
27888WAT      O83905   0.371   0.710   1.918
27888WAT     H183906   0.397   0.783   1.982
27888WAT     H283907   0.289   0.664   1.952
27889WAT      O83908   1.333   7.542   5.354
27889WAT     H183909   1.432   7.553   5.340
27889WAT     H283910   1.292   7.502   5.272
27890WAT      O83911   0.668   0.045   9.615
27890WAT     H183912   0.761   0.028   9.648
27890WAT     H283913   0.605  -0.020   9.657
27891WAT      O83914   5.428   5.284   2.748
27891WAT     H183915   5.478   5.223   2.809
27891WAT     H283916   5.430   5.248   2.654
27892WAT      O83917   3.317   5.764   4.076
27892WAT     H183918   3.405   5.794   4.038
27892WAT     H283919   3.333   5.696   4.148
27893WAT      O83920   4.885   5.372   0.684
27893WAT     H183921   4.885   5.335   0.777
27893WAT     H283922   4.791   5.372   0.649
27894WAT      O83923   4.988   0.596   7.368
27894WAT     H183924   4.928   0.518   7.351
27894WAT     H283925   4.935   0.670   7.410
27895WAT      O83926   1.538   0.338   0.727
27895WAT     H183927   1.478   0.370   0.653
27895WAT     H283928   1.597   0.414   0.755
27896WAT      O83929   5.761   0.693   6.361
27896WAT     H183930   5.845   0.744   6.345
27896WAT     H283931   5.783   0.597   6.376
27897WAT      O83932   4.587   9.612   3.743
27897WAT     H183933   4.617   9.653   3.830
27897WAT     H283934   4.489   9.628   3.731
27898WAT      O83935   3.696   7.263   4.310
27898WAT     H183936   3.620   7.215   4.354
27898WAT     H283937   3.768   7.280   4.378
27899WAT      O83938   0.987   2.041   7.303
27899WAT     H183939   1.072   1.990   7.301
27899WAT     H283940   0.960   2.066   7.210
27900WAT      O83941   9.346   3.028   3.359
27900WAT     H183942   9.433   2.987   3.330
27900WAT     H283943   9.279   3.021   3.285
27901WAT      O83944   7.863   1.534   1.578
27901WAT     H183945   7.782   1.478   1.595
27901WAT     H283946   7.884   1.533   1.480
27902WAT      O83947   7.294   8.051   4.654
27902WAT     H183948   7.306   8.107   4.736
27902WAT     H283949   7.282   8.110   4.574
27903WAT      O83950   2.805   3.867   3.304
27903WAT     H183951   2.904   3.866   3.306
27903WAT     H283952   2.769   3.825   3.388
27904WAT      O83953   1.372   7.037   2.375
27904WAT     H183954   1.375   7.106   2.448
27904WAT     H283955   1.422   6.955   2.405
27905WAT      O83956   1.953   5.162   6.788
27905WAT     H183957   1.996   5.239   6.740
27905WAT     H283958   1.888   5.117   6.727
27906WAT      O83959   6.287   4.069   8.895
27906WAT     H183960   6.338   4.027   8.820
27906WAT     H283961   6.343   4.140   8.938
27907WAT      O83962   2.141   0.509   4.517
27907WAT     H183963   2.104   0.435   4.461
27907WAT     H283964   2.080   0.525   4.595
27908WAT      O83965   8.860   2.322   8.614
27908WAT     H183966   8.812   2.303   8.699
27908WAT     H283967   8.959   2.316   8.630
27909WAT      O83968   0.822   9.644   7.095
27909WAT     H183969   0.746   9.701   7.066
27909WAT     H283970   0.797   9.548   7.089
27910WAT      O83971   0.894   6.301   6.330
27910WAT     H183972   0.906   6.357   6.413
27910WAT     H283973   0.982   6.289   6.285
27911WAT      O83974   2.257   4.942   1.608
27911WAT     H183975   2.343   4.909   1.647
27911WAT     H283976   2.239   4.894   1.522
27912WAT      O83977   9.684   1.418   5.883
27912WAT     H183978   9.757   1.391   5.820
27912WAT     H283979   9.619   1.343   5.892
27913WAT      O83980   9.863   4.457   9.051
27913WAT     H183981   9.932   4.386   9.065
27913WAT     H283982   9.872   4.527   9.122
27914WAT      O83983   8.333   6.063   6.707
27914WAT     H183984   8.408   6.005   6.675
27914WAT     H283985   8.307   6.127   6.635
27915WAT      O83986   1.105   8.470   5.075
27915WAT     H183987   1.048   8.471   5.157
27915WAT     H283988   1.048   8.488   4.994
27916WAT      O83989   8.865   6.640   3.726
27916WAT     H183990   8.907   6.550   3.739
27916WAT     H283991   8.769   6.636   3.755
27917WAT      O83992   4.904   4.490   5.794
27917WAT     H183993   4.923   4.583   5.825
27917WAT     H283994   4.805   4.477   5.787
27918WAT      O83995   7.860   5.560   6.670
27918WAT     H183996   7.797   5.628   6.633
27918WAT     H283997   7.894   5.591   6.759
27919WAT      O83998   9.499   4.172   7.816
27919WAT     H183999   9.476   4.075   7.822
27919WAT     H284000   9.467   4.209   7.729
27920WAT      O84001   2.406   8.027   3.572
27920WAT     H184002   2.455   8.086   3.507
27920WAT     H284003   2.472   7.970   3.621
27921WAT      O84004   5.592   3.973   3.949
27921WAT     H184005   5.674   4.024   3.975
27921WAT     H284006   5.542   3.946   4.031
27922WAT      O84007   8.766   9.048   7.258
27922WAT     H184008   8.855   9.004   7.268
27922WAT     H284009   8.697   8.996   7.308
27923WAT      O84010   0.595   5.775   3.565
27923WAT     H184011   0.563   5.832   3.489
27923WAT     H284012   0.681   5.731   3.540
27924WAT      O84013   2.904   2.520   2.614
27924WAT     H184014   2.970   2.474   2.555
27924WAT     H284015   2.845   2.578   2.559
27925WAT      O84016   6.408   5.173   5.204
27925WAT     H184017   6.407   5.266   5.241
27925WAT     H284018   6.375   5.174   5.110
27926WAT      O84019   0.654   9.703   8.574
27926WAT     H184020   0.635   9.735   8.667
27926WAT     H284021   0.586   9.636   8.547
27927WAT      O84022   2.294   3.445   5.459
27927WAT     H184023   2.281   3.347   5.476
27927WAT     H284024   2.392   3.466   5.457
27928WAT      O84025   5.698   9.577   9.359
27928WAT     H184026   5.791   9.570   9.396
27928WAT     H284027   5.665   9.485   9.335
27929WAT      O84028   1.716   8.801   3.816
27929WAT     H184029   1.712   8.827   3.913
27929WAT     H284030   1.810   8.775   3.792
27930WAT      O84031   5.866   3.628   1.192
27930WAT     H184032   5.804   3.707   1.196
27930WAT     H284033   5.949   3.654   1.142
27931WAT      O84034   8.104   4.206   7.577
27931WAT     H184035   8.094   4.110   7.552
27931WAT     H284036   8.093   4.263   7.496
27932WAT      O84037   6.660   5.194   0.152
27932WAT     H184038   6.700   5.221   0.065
27932WAT     H284039   6.687   5.258   0.224
27933WAT      O84040   8.049   7.531   8.701
27933WAT     H184041   7.972   7.470   8.717
27933WAT     H284042   8.124   7.508   8.763
27934WAT      O84043   1.181   7.579   2.949
27934WAT     H184044   1.150   7.487   2.975
27934WAT     H284045   1.273   7.594   2.984
27935WAT      O84046   2.338   5.818   3.544
27935WAT     H184047   2.406   5.877   3.500
27935WAT     H284048   2.380   5.729   3.566
27936WAT      O84049   9.537   1.989   8.546
27936WAT     H184050   9.574   1.939   8.467
27936WAT     H284051   9.506   1.924   8.615
27937WAT      O84052   9.836   3.414   2.882
27937WAT     H184053   9.925   3.454   2.857
27937WAT     H284054   9.829   3.410   2.981
27938WAT      O84055   6.499   8.923   8.313
27938WAT     H184056   6.410   8.966   8.298
27938WAT     H284057   6.520   8.862   8.236
27939WAT      O84058   8.643   7.256   0.969
27939WAT     H184059   8.616   7.174   1.019
27939WAT     H284060   8.600   7.336   1.012
27940WAT      O84061   8.733   4.748   1.683
27940WAT     H184062   8.714   4.756   1.585
27940WAT     H284063   8.697   4.661   1.717
27941WAT      O84064   2.914   5.815   1.678
27941WAT     H184065   2.967   5.773   1.752
27941WAT     H284066   2.915   5.756   1.597
27942WAT      O84067   0.948   9.239   9.707
27942WAT     H184068   0.916   9.329   9.677
27942WAT     H284069   1.007   9.200   9.637
27943WAT      O84070   6.714   3.854   1.523
27943WAT     H184071   6.687   3.947   1.495
27943WAT     H284072   6.812   3.851   1.539
27944WAT      O84073   7.927   5.653   6.950
27944WAT     H184074   8.021   5.627   6.926
27944WAT     H284075   7.903   5.737   6.900
27945WAT      O84076   2.631   2.391   3.123
27945WAT     H184077   2.563   2.328   3.086
27945WAT     H284078   2.598   2.485   3.115
27946WAT      O84079   7.203   8.985   9.658
27946WAT     H184080   7.134   8.991   9.729
27946WAT     H284081   7.282   9.040   9.683
27947WAT      O84082   1.929   2.031   9.269
27947WAT     H184083   1.855   2.096   9.287
27947WAT     H284084   1.897   1.960   9.206
27948WAT      O84085   5.425   1.182   1.648
27948WAT     H184086   5.492   1.147   1.583
27948WAT     H284087   5.358   1.239   1.601
27949WAT      O84088   7.812   3.588   6.862
27949WAT     H184089   7.784   3.645   6.939
27949WAT     H284090   7.808   3.641   6.778
27950WAT      O84091   7.683   8.733   6.947
27950WAT     H184092   7.651   8.648   6.905
27950WAT     H284093   7.673   8.726   7.047
27951WAT      O84094   8.710   0.108   0.714
27951WAT     H184095   8.715   0.184   0.779
27951WAT     H284096   8.679   0.141   0.625
27952WAT      O84097   3.259   5.894   1.510
27952WAT     H184098   3.277   5.907   1.412
27952WAT     H284099   3.176   5.943   1.535
27953WAT      O84100   6.752   8.190   8.086
27953WAT     H184101   6.652   8.182   8.089
27953WAT     H284102   6.789   8.176   8.177
27954WAT      O84103   3.396   0.517   8.844
27954WAT     H184104   3.374   0.509   8.941
27954WAT     H284105   3.349   0.597   8.806
27955WAT      O84106   9.421   8.113   1.754
27955WAT     H184107   9.498   8.057   1.726
27955WAT     H284108   9.454   8.202   1.786
27956WAT      O84109   4.608   1.284   6.965
27956WAT     H184110   4.702   1.311   6.983
27956WAT     H284111   4.604   1.188   6.940
27957WAT      O84112   0.440   0.587   4.033
27957WAT     H184113   0.487   0.513   3.986
27957WAT     H284114   0.418   0.660   3.968
27958WAT      O84115   7.353   2.636   7.921
27958WAT     H184116   7.401   2.585   7.850
27958WAT     H284117   7.255   2.624   7.910
27959WAT      O84118   1.066   8.032   1.297
27959WAT     H184119   1.112   8.092   1.362
27959WAT     H284120   0.978   8.002   1.335
27960WAT      O84121   4.269   6.742   9.606
27960WAT     H184122   4.222   6.670   9.556
27960WAT     H284123   4.368   6.731   9.595
27961WAT      O84124   1.840   6.017   6.893
27961WAT     H184125   1.754   6.043   6.938
27961WAT     H284126   1.842   6.054   6.800
27962WAT      O84127   9.373   2.497   4.277
27962WAT     H184128   9.390   2.553   4.359
27962WAT     H284129   9.329   2.553   4.207
27963WAT      O84130   2.721   1.887   9.226
27963WAT     H184131   2.771   1.819   9.280
27963WAT     H284132   2.763   1.977   9.239
27964WAT      O84133   3.478   5.372   0.378
27964WAT     H184134   3.403   5.426   0.340
27964WAT     H284135   3.491   5.397   0.474
27965WAT      O84136   3.352   1.779   1.572
27965WAT     H184137   3.309   1.740   1.491
27965WAT     H284138   3.341   1.716   1.650
27966WAT      O84139   1.218   8.829   1.256
27966WAT     H184140   1.136   8.867   1.213
27966WAT     H284141   1.192   8.754   1.316
27967WAT      O84142   0.688   2.889   8.364
27967WAT     H184143   0.715   2.794   8.379
27967WAT     H284144   0.662   2.930   8.452
27968WAT      O84145   7.843   8.849   7.660
27968WAT     H184146   7.772   8.790   7.623
27968WAT     H284147   7.804   8.938   7.682
27969WAT      O84148   0.170   5.494   7.086
27969WAT     H184149   0.100   5.431   7.052
27969WAT     H284150   0.147   5.588   7.059
27970WAT      O84151   0.293   1.502   8.810
27970WAT     H184152   0.222   1.499   8.879
27970WAT     H284153   0.273   1.574   8.743
27971WAT      O84154   5.570   5.096   2.333
27971WAT     H184155   5.647   5.148   2.368
27971WAT     H284156   5.485   5.134   2.369
27972WAT      O84157   3.777   5.841   3.819
27972WAT     H184158   3.729   5.899   3.754
27972WAT     H284159   3.869   5.876   3.835
27973WAT      O84160   7.661   8.276   9.765
27973WAT     H184161   7.690   8.250   9.673
27973WAT     H284162   7.703   8.213   9.831
27974WAT      O84163   1.751   4.171   3.086
27974WAT     H184164   1.762   4.263   3.048
27974WAT     H284165   1.838   4.139   3.122
27975WAT      O84166   6.903   8.975   1.173
27975WAT     H184167   6.869   8.968   1.267
27975WAT     H284168   6.922   8.883   1.137
27976WAT      O84169   5.167   2.803   0.126
27976WAT     H184170   5.108   2.874   0.086
27976WAT     H284171   5.134   2.713   0.099
27977WAT      O84172   3.841   0.278   8.620
27977WAT     H184173   3.744   0.254   8.619
27977WAT     H284174   3.877   0.265   8.713
27978WAT      O84175   6.935   9.390   2.885
27978WAT     H184176   6.874   9.463   2.854
27978WAT     H284177   6.880   9.314   2.919
27979WAT      O84178   6.462   3.676   4.160
27979WAT     H184179   6.418   3.590   4.184
27979WAT     H284180   6.560   3.670   4.177
27980WAT      O84181   1.412   6.085   7.094
27980WAT     H184182   1.354   6.167   7.087
27980WAT     H284183   1.400   6.028   7.013
27981WAT      O84184   0.764   5.499   2.876
27981WAT     H184185   0.797   5.561   2.947
27981WAT     H284186   0.801   5.408   2.890
27982WAT      O84187   8.677   4.777   4.855
27982WAT     H184188   8.674   4.728   4.768
27982WAT     H284189   8.771   4.781   4.889
27983WAT      O84190   2.598   8.178   0.753
27983WAT     H184191   2.595   8.089   0.799
27983WAT     H284192   2.671   8.234   0.794
27984WAT      O84193   1.566   2.602   3.665
27984WAT     H184194   1.666   2.607   3.669
27984WAT     H284195   1.534   2.533   3.730
27985WAT      O84196   8.868   8.491   3.010
27985WAT     H184197   8.871   8.488   2.910
27985WAT     H284198   8.946   8.441   3.047
27986WAT      O84199   9.143   6.996   8.612
27986WAT     H184200   9.241   7.011   8.596
27986WAT     H284201   9.121   6.900   8.591
27987WAT      O84202   1.083   8.695   5.444
27987WAT     H184203   1.142   8.720   5.520
27987WAT     H284204   1.053   8.600   5.454
27988WAT      O84205   2.686   9.338   4.062
27988WAT     H184206   2.660   9.354   4.157
27988WAT     H284207   2.786   9.337   4.054
27989WAT      O84208   5.024   3.649   8.182
27989WAT     H184209   5.117   3.676   8.156
27989WAT     H284210   4.980   3.604   8.104
27990WAT      O84211   5.827   3.317   8.935
27990WAT     H184212   5.828   3.409   8.894
27990WAT     H284213   5.752   3.264   8.896
27991WAT      O84214   7.858   2.725   8.889
27991WAT     H184215   7.916   2.737   8.969
27991WAT     H284216   7.876   2.798   8.823
27992WAT      O84217   4.600   8.611   5.207
27992WAT     H184218   4.638   8.580   5.294
27992WAT     H284219   4.669   8.662   5.156
27993WAT      O84220   6.740   4.534   3.177
27993WAT     H184221   6.750   4.510   3.273
27993WAT     H284222   6.678   4.611   3.167
27994WAT      O84223   3.497   2.476   4.173
27994WAT     H184224   3.512   2.384   4.135
27994WAT     H284225   3.520   2.476   4.270
27995WAT      O84226   3.068   2.572   1.985
27995WAT     H184227   3.037   2.667   1.985
27995WAT     H284228   3.039   2.528   1.900
27996WAT      O84229   1.558   2.738   2.461
27996WAT     H184230   1.475   2.755   2.409
27996WAT     H284231   1.580   2.640   2.457
27997WAT      O84232   9.299   7.653   5.655
27997WAT     H184233   9.233   7.606   5.596
27997WAT     H284234   9.389   7.653   5.611
27998WAT      O84235   8.439   7.499   1.957
27998WAT     H184236   8.458   7.552   2.039
27998WAT     H284237   8.526   7.469   1.916
27999WAT      O84238   1.377   6.209   2.619
27999WAT     H184239   1.289   6.252   2.599
27999WAT     H284240   1.449   6.255   2.568
28000WAT      O84241   2.290   8.157   1.655
28000WAT     H184242   2.344   8.074   1.666
28000WAT     H284243   2.198   8.142   1.691
28001WAT      O84244   0.228   0.418   1.800
28001WAT     H184245   0.272   0.338   1.841
28001WAT     H284246   0.200   0.481   1.872
28002WAT      O84247   0.060   2.540   3.738
28002WAT     H184248   0.063   2.462   3.800
28002WAT     H284249  -0.019   2.531   3.677
28003WAT      O84250   5.692   3.515   4.644
28003WAT     H184251   5.764   3.581   4.667
28003WAT     H284252   5.635   3.500   4.724
28004WAT      O84253   2.256   8.059   6.143
28004WAT     H184254   2.201   8.098   6.070
28004WAT     H284255   2.293   7.971   6.115
28005WAT      O84256   8.045   4.327   6.719
28005WAT     H184257   7.964   4.323   6.660
28005WAT     H284258   8.091   4.414   6.707
28006WAT      O84259   0.314   0.191   7.065
28006WAT     H184260   0.267   0.113   7.106
28006WAT     H284261   0.386   0.224   7.127
28007WAT      O84262   9.342   7.841   4.319
28007WAT     H184263   9.378   7.778   4.250
28007WAT     H284264   9.314   7.789   4.400
28008WAT      O84265   6.126   3.887   9.884
28008WAT     H184266   6.142   3.868   9.981
28008WAT     H284267   6.183   3.965   9.855
28009WAT      O84268   1.781   7.860   0.262
28009WAT     H184269   1.723   7.902   0.332
28009WAT     H284270   1.877   7.879   0.282
28010WAT      O84271   8.495   5.123   9.294
28010WAT     H184272   8.587   5.092   9.269
28010WAT     H284273   8.427   5.072   9.242
28011WAT      O84274   3.456   2.430   0.592
28011WAT     H184275   3.547   2.464   0.569
28011WAT     H284276   3.464   2.359   0.662
28012WAT      O84277   9.413   6.913   6.082
28012WAT     H184278   9.343   6.913   6.010
28012WAT     H284279   9.372   6.937   6.169
28013WAT      O84280   5.623   0.394   3.032
28013WAT     H184281   5.677   0.468   3.073
28013WAT     H284282   5.556   0.361   3.099
28014WAT      O84283   3.610   9.228   2.006
28014WAT     H184284   3.695   9.210   2.055
28014WAT     H284285   3.615   9.188   1.915
28015WAT      O84286   2.557   0.691   0.501
28015WAT     H184287   2.638   0.678   0.559
28015WAT     H284288   2.498   0.611   0.508
28016WAT      O84289   5.155   3.778   8.991
28016WAT     H184290   5.220   3.832   9.044
28016WAT     H284291   5.176   3.681   9.003
28017WAT      O84292   1.254   5.855   6.320
28017WAT     H184293   1.158   5.881   6.309
28017WAT     H284294   1.270   5.825   6.414
28018WAT      O84295   3.086   5.322   5.060
28018WAT     H184296   3.182   5.305   5.081
28018WAT     H284297   3.077   5.406   5.007
28019WAT      O84298   3.702   1.753   6.087
28019WAT     H184299   3.602   1.760   6.092
28019WAT     H284300   3.732   1.673   6.138
28020WAT      O84301   7.092   7.581   9.547
28020WAT     H184302   6.997   7.567   9.518
28020WAT     H284303   7.133   7.655   9.494
28021WAT      O84304   5.292   9.142   5.393
28021WAT     H184305   5.317   9.045   5.398
28021WAT     H284306   5.337   9.191   5.467
28022WAT      O84307   5.478   8.841   6.100
28022WAT     H184308   5.481   8.940   6.086
28022WAT     H284309   5.552   8.814   6.161
28023WAT      O84310   2.602   1.789   5.412
28023WAT     H184311   2.686   1.781   5.466
28023WAT     H284312   2.553   1.702   5.414
28024WAT      O84313   6.553   6.481   8.796
28024WAT     H184314   6.543   6.529   8.883
28024WAT     H284315   6.468   6.489   8.744
28025WAT      O84316   8.093   7.204   4.765
28025WAT     H184317   8.167   7.270   4.751
28025WAT     H284318   8.112   7.121   4.713
28026WAT      O84319   5.873   1.345   2.008
28026WAT     H184320   5.929   1.389   1.938
28026WAT     H284321   5.932   1.292   2.070
28027WAT      O84322   8.921   0.702   6.408
28027WAT     H184323   8.871   0.777   6.451
28027WAT     H284324   8.922   0.623   6.469
28028WAT      O84325   2.494   6.097   0.036
28028WAT     H184326   2.566   6.143  -0.016
28028WAT     H284327   2.534   6.045   0.111
28029WAT      O84328   1.691   4.444   6.412
28029WAT     H184329   1.661   4.440   6.316
28029WAT     H284330   1.733   4.532   6.430
28030WAT      O84331   5.520   0.437   9.168
28030WAT     H184332   5.495   0.453   9.073
28030WAT     H284333   5.535   0.525   9.214
28031WAT      O84334   3.026   7.641   5.251
28031WAT     H184335   2.990   7.714   5.192
28031WAT     H284336   3.065   7.569   5.194
28032WAT      O84337   8.400   4.355   5.924
28032WAT     H184338   8.475   4.421   5.926
28032WAT     H284339   8.342   4.367   6.005
28033WAT      O84340   4.219   0.812   2.447
28033WAT     H184341   4.134   0.759   2.457
28033WAT     H284342   4.298   0.752   2.461
28034WAT      O84343   5.193   9.642   5.548
28034WAT     H184344   5.159   9.694   5.626
28034WAT     H284345   5.196   9.701   5.467
28035WAT      O84346   9.051   2.888   7.189
28035WAT     H184347   9.045   2.790   7.209
28035WAT     H284348   8.994   2.909   7.109
28036WAT      O84349   4.960   2.855   6.064
28036WAT     H184350   5.003   2.767   6.086
28036WAT     H284351   4.979   2.920   6.137
28037WAT      O84352   8.314   0.581   4.875
28037WAT     H184353   8.274   0.526   4.801
28037WAT     H284354   8.409   0.553   4.890
28038WAT      O84355   2.386   5.172   1.566
28038WAT     H184356   2.332   5.088   1.569
28038WAT     H284357   2.471   5.156   1.516
28039WAT      O84358   9.505   0.438   7.634
28039WAT     H184359   9.509   0.338   7.632
28039WAT     H284360   9.433   0.468   7.697
28040WAT      O84361   0.443   1.505   7.371
28040WAT     H184362   0.395   1.570   7.312
28040WAT     H284363   0.379   1.435   7.403
28041WAT      O84364   5.515   0.076   5.621
28041WAT     H184365   5.534  -0.016   5.585
28041WAT     H284366   5.510   0.140   5.544
28042WAT      O84367   3.764   7.699   5.461
28042WAT     H184368   3.800   7.675   5.551
28042WAT     H284369   3.739   7.796   5.461
28043WAT      O84370   5.621   7.793   5.211
28043WAT     H184371   5.713   7.831   5.221
28043WAT     H284372   5.610   7.718   5.276
28044WAT      O84373   1.481   3.458   5.391
28044WAT     H184374   1.448   3.450   5.485
28044WAT     H284375   1.540   3.537   5.382
28045WAT      O84376   1.940   8.322   8.268
28045WAT     H184377   1.969   8.345   8.360
28045WAT     H284378   2.001   8.366   8.202
28046WAT      O84379   4.089   9.816   9.673
28046WAT     H184380   4.188   9.831   9.669
28046WAT     H284381   4.044   9.901   9.701
28047WAT      O84382   6.892   0.795   1.146
28047WAT     H184383   6.926   0.701   1.158
28047WAT     H284384   6.810   0.807   1.201
28048WAT      O84385   0.086   7.907   5.026
28048WAT     H184386   0.175   7.929   5.065
28048WAT     H284387   0.097   7.889   4.928
28049WAT      O84388   5.706   8.950   9.665
28049WAT     H184389   5.754   8.919   9.583
28049WAT     H284390   5.680   8.870   9.720
28050WAT      O84391   0.850   7.289   2.322
28050WAT     H184392   0.877   7.259   2.414
28050WAT     H284393   0.862   7.213   2.258
28051WAT      O84394   4.356   1.941   8.208
28051WAT     H184395   4.450   1.924   8.180
28051WAT     H284396   4.343   1.910   8.302
28052WAT      O84397   6.563   2.317   0.902
28052WAT     H184398   6.650   2.270   0.892
28052WAT     H284399   6.499   2.259   0.953
28053WAT      O84400   6.104   5.417   9.181
28053WAT     H184401   6.039   5.377   9.246
28053WAT     H284402   6.079   5.512   9.163
28054WAT      O84403   5.696   6.508   8.420
28054WAT     H184404   5.650   6.591   8.450
28054WAT     H284405   5.628   6.437   8.400
28055WAT      O84406   9.655   0.507   4.702
28055WAT     H184407   9.580   0.573   4.705
28055WAT     H284408   9.618   0.415   4.691
28056WAT      O84409   4.557   8.336   3.852
28056WAT     H184410   4.623   8.357   3.924
28056WAT     H284411   4.563   8.406   3.781
28057WAT      O84412   6.031   5.276   6.929
28057WAT     H184413   6.002   5.216   7.004
28057WAT     H284414   6.129   5.262   6.911
28058WAT      O84415   3.030   0.571   5.398
28058WAT     H184416   2.960   0.638   5.422
28058WAT     H284417   3.117   0.617   5.382
28059WAT      O84418   9.360   2.838   5.901
28059WAT     H184419   9.344   2.937   5.892
28059WAT     H284420   9.371   2.815   5.998
28060WAT      O84421   8.505   8.877   5.605
28060WAT     H184422   8.513   8.828   5.692
28060WAT     H284423   8.454   8.821   5.539
28061WAT      O84424   3.591   9.544   3.307
28061WAT     H184425   3.628   9.500   3.225
28061WAT     H284426   3.610   9.642   3.304
28062WAT      O84427   7.037   2.217   6.171
28062WAT     H184428   7.125   2.232   6.215
28062WAT     H284429   7.017   2.292   6.108
28063WAT      O84430   1.016   1.270   6.422
28063WAT     H184431   1.027   1.296   6.326
28063WAT     H284432   1.052   1.177   6.435
28064WAT      O84433   2.083   6.058   7.163
28064WAT     H184434   2.159   6.016   7.214
28064WAT     H284435   2.004   6.066   7.223
28065WAT      O84436   1.295   3.359   7.895
28065WAT     H184437   1.335   3.348   7.987
28065WAT     H284438   1.362   3.330   7.827
28066WAT      O84439   1.932   6.500   8.817
28066WAT     H184440   2.016   6.543   8.784
28066WAT     H284441   1.942   6.480   8.915
28067WAT      O84442   4.212   9.641   8.540
28067WAT     H184443   4.252   9.566   8.487
28067WAT     H284444   4.123   9.665   8.501
28068WAT      O84445   4.925   4.506   8.835
28068WAT     H184446   4.833   4.491   8.797
28068WAT     H284447   4.981   4.425   8.817
28069WAT      O84448   1.047   7.452   3.785
28069WAT     H184449   1.135   7.411   3.760
28069WAT     H284450   1.054   7.493   3.876
28070WAT      O84451   7.063   1.479   2.336
28070WAT     H184452   7.061   1.553   2.269
28070WAT     H284453   7.157   1.461   2.364
28071WAT      O84454   9.677   3.689   6.668
28071WAT     H184455   9.725   3.764   6.713
28071WAT     H284456   9.640   3.626   6.737
28072WAT      O84457   4.700   9.817   5.598
28072WAT     H184458   4.637   9.895   5.587
28072WAT     H284459   4.747   9.824   5.686
28073WAT      O84460   4.024   3.412   7.721
28073WAT     H184461   3.945   3.353   7.736
28073WAT     H284462   4.091   3.397   7.794
28074WAT      O84463   4.075   3.279   5.215
28074WAT     H184464   4.070   3.262   5.314
28074WAT     H284465   4.139   3.354   5.198
28075WAT      O84466   0.640   6.393   0.495
28075WAT     H184467   0.738   6.375   0.499
28075WAT     H284468   0.590   6.307   0.485
28076WAT      O84469   3.248   5.455   7.882
28076WAT     H184470   3.152   5.480   7.878
28076WAT     H284471   3.301   5.531   7.920
28077WAT      O84472   0.362   2.813   4.755
28077WAT     H184473   0.288   2.747   4.756
28077WAT     H284474   0.349   2.880   4.827
28078WAT      O84475   8.803   0.335   3.939
28078WAT     H184476   8.771   0.378   4.023
28078WAT     H284477   8.882   0.277   3.959
28079WAT      O84478   8.449   2.561   9.751
28079WAT     H184479   8.450   2.473   9.703
28079WAT     H284480   8.501   2.553   9.837
28080WAT      O84481   2.785   7.933   7.077
28080WAT     H184482   2.716   7.994   7.116
28080WAT     H284483   2.746   7.882   7.000
28081WAT      O84484   2.438   9.209   6.462
28081WAT     H184485   2.352   9.239   6.502
28081WAT     H284486   2.423   9.125   6.410
28082WAT      O84487   7.325   6.169   0.758
28082WAT     H184488   7.404   6.108   0.772
28082WAT     H284489   7.325   6.202   0.664
28083WAT      O84490   4.543   7.613   5.118
28083WAT     H184491   4.516   7.659   5.034
28083WAT     H284492   4.627   7.656   5.153
28084WAT      O84493   7.341   5.182   0.199
28084WAT     H184494   7.416   5.141   0.146
28084WAT     H284495   7.355   5.281   0.204
28085WAT      O84496   6.562   7.082   0.469
28085WAT     H184497   6.506   7.024   0.411
28085WAT     H284498   6.543   7.063   0.565
28086WAT      O84499   5.449   1.381   3.944
28086WAT     H184500   5.449   1.459   3.880
28086WAT     H284501   5.354   1.360   3.969
28087WAT      O84502   8.343   6.139   6.956
28087WAT     H184503   8.399   6.221   6.952
28087WAT     H284504   8.333   6.101   6.864
28088WAT      O84505   1.744   8.382   1.539
28088WAT     H184506   1.801   8.380   1.622
28088WAT     H284507   1.648   8.373   1.565
28089WAT      O84508   0.574   1.117   6.748
28089WAT     H184509   0.507   1.108   6.675
28089WAT     H284510   0.612   1.209   6.748
28090WAT      O84511   0.135   8.473   5.052
28090WAT     H184512   0.119   8.395   4.991
28090WAT     H284513   0.072   8.468   5.129
28091WAT      O84514   5.019   5.251   6.170
28091WAT     H184515   5.115   5.278   6.169
28091WAT     H284516   4.961   5.333   6.173
28092WAT      O84517   2.476   3.561   1.752
28092WAT     H184518   2.555   3.517   1.710
28092WAT     H284519   2.418   3.601   1.681
28093WAT      O84520   4.024   4.554   7.531
28093WAT     H184521   4.071   4.466   7.518
28093WAT     H284522   3.945   4.540   7.591
28094WAT      O84523   3.582   2.183   1.149
28094WAT     H184524   3.485   2.189   1.126
28094WAT     H284525   3.621   2.101   1.109
28095WAT      O84526   5.509   0.574   1.519
28095WAT     H184527   5.470   0.628   1.445
28095WAT     H284528   5.456   0.490   1.532
28096WAT      O84529   7.612   1.645   0.035
28096WAT     H184530   7.709   1.622   0.027
28096WAT     H284531   7.593   1.684   0.125
28097WAT      O84532   2.522   3.049   7.956
28097WAT     H184533   2.507   2.993   7.875
28097WAT     H284534   2.591   3.006   8.014
28098WAT      O84535   9.785   1.155   6.789
28098WAT     H184536   9.707   1.167   6.727
28098WAT     H284537   9.754   1.115   6.875
28099WAT      O84538   2.845   9.150   6.688
28099WAT     H184539   2.903   9.089   6.743
28099WAT     H284540   2.859   9.244   6.717
28100WAT      O84541   3.468   6.420   0.538
28100WAT     H184542   3.379   6.402   0.497
28100WAT     H284543   3.456   6.471   0.623
28101WAT      O84544   4.068   8.058   0.223
28101WAT     H184545   4.127   8.040   0.144
28101WAT     H284546   3.976   8.024   0.205
28102WAT      O84547   8.329   1.703   4.972
28102WAT     H184548   8.292   1.610   4.974
28102WAT     H284549   8.418   1.703   4.926
28103WAT      O84550   0.562   3.164   2.368
28103WAT     H184551   0.476   3.203   2.335
28103WAT     H284552   0.616   3.235   2.413
28104WAT      O84553   0.421   2.626   0.198
28104WAT     H184554   0.346   2.588   0.252
28104WAT     H284555   0.505   2.624   0.252
28105WAT      O84556   2.021   5.136   8.266
28105WAT     H184557   1.938   5.168   8.311
28105WAT     H284558   2.091   5.207   8.271
28106WAT      O84559   5.251   1.598   2.960
28106WAT     H184560   5.253   1.688   2.916
28106WAT     H284561   5.186   1.600   3.035
28107WAT      O84562   7.895   5.193   3.330
28107WAT     H184563   7.821   5.241   3.283
28107WAT     H284564   7.858   5.147   3.411
28108WAT      O84565   5.762   2.110   7.757
28108WAT     H184566   5.836   2.119   7.690
28108WAT     H284567   5.674   2.131   7.714
28109WAT      O84568   2.301   1.392   3.574
28109WAT     H184569   2.400   1.405   3.572
28109WAT     H284570   2.280   1.294   3.579
28110WAT      O84571   7.193   5.050   2.123
28110WAT     H184572   7.291   5.045   2.101
28110WAT     H284573   7.152   5.125   2.071
28111WAT      O84574   4.325   5.723   1.235
28111WAT     H184575   4.398   5.771   1.186
28111WAT     H284576   4.300   5.775   1.317
28112WAT      O84577   6.823   5.611   8.636
28112WAT     H184578   6.825   5.538   8.568
28112WAT     H284579   6.859   5.695   8.596
28113WAT      O84580   6.156   5.952   5.163
28113WAT     H184581   6.099   5.973   5.242
28113WAT     H284582   6.121   5.870   5.117
28114WAT      O84583   4.241   5.236   5.250
28114WAT     H184584   4.281   5.144   5.247
28114WAT     H284585   4.289   5.291   5.318
28115WAT      O84586   0.474   2.730   0.547
28115WAT     H184587   0.552   2.735   0.486
28115WAT     H284588   0.492   2.663   0.619
28116WAT      O84589   2.411   8.921   4.087
28116WAT     H184590   2.326   8.916   4.035
28116WAT     H284591   2.456   9.009   4.068
28117WAT      O84592   3.966   8.723   8.268
28117WAT     H184593   3.877   8.686   8.242
28117WAT     H284594   4.027   8.648   8.294
28118WAT      O84595   0.671   6.932   9.588
28118WAT     H184596   0.627   6.848   9.618
28118WAT     H284597   0.762   6.939   9.629
28119WAT      O84598   3.716   3.793   5.600
28119WAT     H184599   3.782   3.756   5.665
28119WAT     H284600   3.763   3.819   5.515
28120WAT      O84601   3.360   6.712   3.819
28120WAT     H184602   3.355   6.620   3.779
28120WAT     H284603   3.296   6.772   3.772
28121WAT      O84604   6.361   1.197   0.345
28121WAT     H184605   6.312   1.203   0.258
28121WAT     H284606   6.369   1.101   0.372
28122WAT      O84607   6.466   4.580   1.035
28122WAT     H184608   6.514   4.551   0.953
28122WAT     H284609   6.373   4.542   1.035
28123WAT      O84610   9.556   7.094   1.469
28123WAT     H184611   9.550   7.104   1.369
28123WAT     H284612   9.622   7.022   1.491
28124WAT      O84613   7.605   7.407   7.277
28124WAT     H184614   7.523   7.368   7.235
28124WAT     H284615   7.638   7.483   7.221
28125WAT      O84616   3.281   9.546   8.251
28125WAT     H184617   3.331   9.465   8.281
28125WAT     H284618   3.281   9.614   8.324
28126WAT      O84619   2.304   8.079   3.933
28126WAT     H184620   2.251   8.041   3.857
28126WAT     H284621   2.397   8.043   3.931
28127WAT      O84622   7.458   9.331   8.660
28127WAT     H184623   7.472   9.408   8.721
28127WAT     H284624   7.542   9.278   8.652
28128WAT      O84625   2.837   6.590   0.211
28128WAT     H184626   2.871   6.503   0.177
28128WAT     H284627   2.747   6.578   0.253
28129WAT      O84628   6.469   8.086   2.233
28129WAT     H184629   6.442   8.011   2.294
28129WAT     H284630   6.431   8.172   2.267
28130WAT      O84631   3.467   3.725   6.624
28130WAT     H184632   3.550   3.779   6.610
28130WAT     H284633   3.418   3.759   6.704
28131WAT      O84634   8.574   5.729   8.598
28131WAT     H184635   8.521   5.776   8.668
28131WAT     H284636   8.672   5.740   8.617
28132WAT      O84637   1.855   6.712   2.080
28132WAT     H184638   1.872   6.790   2.020
28132WAT     H284639   1.900   6.727   2.168
28133WAT      O84640   2.066   6.874   6.774
28133WAT     H184641   2.086   6.937   6.848
28133WAT     H284642   2.112   6.904   6.690
28134WAT      O84643   0.116   1.433   0.308
28134WAT     H184644   0.051   1.488   0.360
28134WAT     H284645   0.131   1.346   0.355
28135WAT      O84646   3.335   0.954   5.719
28135WAT     H184647   3.407   0.912   5.664
28135WAT     H284648   3.347   1.053   5.719
28136WAT      O84649   4.973   9.337   0.875
28136WAT     H184650   4.949   9.433   0.884
28136WAT     H284651   4.940   9.287   0.954
28137WAT      O84652   0.255   7.192   8.876
28137WAT     H184653   0.308   7.201   8.961
28137WAT     H284654   0.277   7.267   8.814
28138WAT      O84655   0.885   2.118   9.775
28138WAT     H184656   0.885   2.033   9.722
28138WAT     H284657   0.927   2.102   9.864
28139WAT      O84658   5.091   6.948   1.656
28139WAT     H184659   5.059   7.008   1.583
28139WAT     H284660   5.023   6.877   1.673
28140WAT      O84661   7.886   7.461   6.808
28140WAT     H184662   7.908   7.475   6.905
28140WAT     H284663   7.901   7.365   6.784
28141WAT      O84664   0.467   9.289   2.709
28141WAT     H184665   0.567   9.295   2.708
28141WAT     H284666   0.428   9.381   2.713
28142WAT      O84667   6.826   8.202   8.694
28142WAT     H184668   6.841   8.252   8.780
28142WAT     H284669   6.728   8.196   8.676
28143WAT      O84670   2.109   0.287   4.787
28143WAT     H184671   2.191   0.267   4.841
28143WAT     H284672   2.029   0.290   4.846
28144WAT      O84673   9.098   0.986   1.780
28144WAT     H184674   9.119   1.004   1.876
28144WAT     H284675   9.098   1.072   1.729
28145WAT      O84676   5.062   1.784   2.732
28145WAT     H184677   4.989   1.843   2.767
28145WAT     H284678   5.147   1.804   2.781
28146WAT      O84679   0.064   3.277   1.256
28146WAT     H184680  -0.033   3.297   1.237
28146WAT     H284681   0.077   3.178   1.260
28147WAT      O84682   4.228   0.847   3.393
28147WAT     H184683   4.226   0.923   3.458
28147WAT     H284684   4.199   0.763   3.439
28148WAT      O84685   3.401   2.240   9.413
28148WAT     H184686   3.474   2.208   9.351
28148WAT     H284687   3.391   2.339   9.405
28149WAT      O84688   4.778   2.618   0.845
28149WAT     H184689   4.696   2.674   0.829
28149WAT     H284690   4.805   2.624   0.941
28150WAT      O84691   2.255   8.627   9.370
28150WAT     H184692   2.351   8.619   9.345
28150WAT     H284693   2.199   8.632   9.288
28151WAT      O84694   7.888   8.742   0.733
28151WAT     H184695   7.922   8.788   0.816
28151WAT     H284696   7.864   8.648   0.756
28152WAT      O84697   4.815   5.940   8.175
28152WAT     H184698   4.818   6.040   8.186
28152WAT     H284699   4.721   5.911   8.163
28153WAT      O84700   2.694   6.481   4.225
28153WAT     H184701   2.769   6.509   4.166
28153WAT     H284702   2.610   6.477   4.172
28154WAT      O84703   7.908   9.377   8.997
28154WAT     H184704   7.973   9.441   8.957
28154WAT     H284705   7.922   9.373   9.096
28155WAT      O84706   2.759   9.372   0.419
28155WAT     H184707   2.674   9.324   0.440
28155WAT     H284708   2.791   9.420   0.501
28156WAT      O84709   3.353   5.920   7.146
28156WAT     H184710   3.282   5.985   7.117
28156WAT     H284711   3.322   5.872   7.228
28157WAT      O84712   7.221   2.701   7.069
28157WAT     H184713   7.156   2.684   6.995
28157WAT     H284714   7.262   2.792   7.058
28158WAT      O84715   3.799   9.643   5.006
28158WAT     H184716   3.720   9.582   5.004
28158WAT     H284717   3.795   9.705   4.928
28159WAT      O84718   0.633   0.970   7.810
28159WAT     H184719   0.685   0.996   7.729
28159WAT     H284720   0.692   0.922   7.874
28160WAT      O84721   5.678   6.405   7.823
28160WAT     H184722   5.618   6.479   7.852
28160WAT     H284723   5.634   6.354   7.749
28161WAT      O84724   8.501   6.630   9.293
28161WAT     H184725   8.522   6.702   9.227
28161WAT     H284726   8.576   6.622   9.359
28162WAT      O84727   9.185   8.093   5.667
28162WAT     H184728   9.236   8.146   5.600
28162WAT     H284729   9.114   8.151   5.709
28163WAT      O84730   0.346   1.726   2.344
28163WAT     H184731   0.397   1.805   2.309
28163WAT     H284732   0.392   1.642   2.315
28164WAT      O84733   9.336   6.325   3.769
28164WAT     H184734   9.338   6.424   3.774
28164WAT     H284735   9.354   6.296   3.675
28165WAT      O84736   4.406   9.301   0.026
28165WAT     H184737   4.358   9.213   0.031
28165WAT     H284738   4.367   9.356  -0.048
28166WAT      O84739   6.645   0.578   1.590
28166WAT     H184740   6.665   0.670   1.623
28166WAT     H284741   6.690   0.564   1.501
28167WAT      O84742   8.917   1.877   6.158
28167WAT     H184743   8.836   1.907   6.207
28167WAT     H284744   8.942   1.946   6.090
28168WAT      O84745   0.965   5.955   7.966
28168WAT     H184746   0.957   5.983   7.871
28168WAT     H284747   1.049   5.903   7.979
28169WAT      O84748   8.977   3.432   4.129
28169WAT     H184749   9.037   3.387   4.063
28169WAT     H284750   8.892   3.458   4.083
28170WAT      O84751   1.974   3.691   3.764
28170WAT     H184752   1.879   3.688   3.732
28170WAT     H284753   1.984   3.766   3.830
28171WAT      O84754   5.070   0.746   5.643
28171WAT     H184755   5.147   0.799   5.606
28171WAT     H284756   5.019   0.704   5.568
28172WAT      O84757   6.628   2.498   6.322
28172WAT     H184758   6.658   2.413   6.366
28172WAT     H284759   6.704   2.536   6.269
28173WAT      O84760   8.345   8.719   5.446
28173WAT     H184761   8.397   8.652   5.393
28173WAT     H284762   8.289   8.671   5.514
28174WAT      O84763   6.571   9.670   4.488
28174WAT     H184764   6.620   9.748   4.526
28174WAT     H284765   6.598   9.658   4.392
28175WAT      O84766   0.657   2.438   0.045
28175WAT     H184767   0.573   2.386   0.026
28175WAT     H284768   0.633   2.526   0.086
28176WAT      O84769   3.797   7.196   7.834
28176WAT     H184770   3.698   7.197   7.840
28176WAT     H284771   3.833   7.114   7.879
28177WAT      O84772   9.623   6.616   4.726
28177WAT     H184773   9.651   6.582   4.636
28177WAT     H284774   9.553   6.557   4.764
28178WAT      O84775   3.048   0.346   1.475
28178WAT     H184776   3.054   0.336   1.575
28178WAT     H284777   3.139   0.348   1.436
28179WAT      O84778   9.235   9.077   6.411
28179WAT     H184779   9.324   9.109   6.379
28179WAT     H284780   9.198   9.010   6.346
28180WAT      O84781   9.262   0.756   7.191
28180WAT     H184782   9.195   0.722   7.124
28180WAT     H284783   9.216   0.816   7.256
28181WAT      O84784   4.445   0.554   4.287
28181WAT     H184785   4.472   0.550   4.384
28181WAT     H284786   4.467   0.467   4.244
28182WAT      O84787   5.281   6.769   5.181
28182WAT     H184788   5.324   6.840   5.125
28182WAT     H284789   5.351   6.703   5.210
28183WAT      O84790   0.598   2.805   0.843
28183WAT     H184791   0.499   2.789   0.842
28183WAT     H284792   0.617   2.898   0.814
28184WAT      O84793   3.303   9.494   6.068
28184WAT     H184794   3.316   9.505   6.166
28184WAT     H284795   3.375   9.436   6.031
28185WAT      O84796   8.791   6.966   0.391
28185WAT     H184797   8.855   6.925   0.456
28185WAT     H284798   8.778   6.904   0.314
28186WAT      O84799   6.817   3.161   7.409
28186WAT     H184800   6.717   3.168   7.408
28186WAT     H284801   6.852   3.201   7.493
28187WAT      O84802   7.368   5.764   1.659
28187WAT     H184803   7.382   5.804   1.569
28187WAT     H284804   7.448   5.711   1.685
28188WAT      O84805   8.326   6.733   1.902
28188WAT     H184806   8.282   6.735   1.992
28188WAT     H284807   8.418   6.694   1.911
28189WAT      O84808   4.394   0.245   2.160
28189WAT     H184809   4.323   0.184   2.124
28189WAT     H284810   4.435   0.203   2.241
28190WAT      O84811   5.372   3.335   2.186
28190WAT     H184812   5.314   3.292   2.255
28190WAT     H284813   5.407   3.422   2.222
28191WAT      O84814   9.807   7.060   6.835
28191WAT     H184815   9.822   7.119   6.756
28191WAT     H284816   9.888   7.059   6.893
28192WAT      O84817   7.182   1.267   8.064
28192WAT     H184818   7.241   1.194   8.096
28192WAT     H284819   7.235   1.351   8.052
28193WAT      O84820   6.261   9.691   1.687
28193WAT     H184821   6.173   9.644   1.677
28193WAT     H284822   6.328   9.647   1.628
28194WAT      O84823   2.169   0.185   0.643
28194WAT     H184824   2.071   0.204   0.630
28194WAT     H284825   2.198   0.218   0.733
28195WAT      O84826   2.037   1.652   4.909
28195WAT     H184827   2.076   1.641   4.818
28195WAT     H284828   2.085   1.594   4.974
28196WAT      O84829   9.174   8.746   5.331
28196WAT     H184830   9.084   8.727   5.371
28196WAT     H284831   9.181   8.844   5.311
28197WAT      O84832   2.481   3.702   6.541
28197WAT     H184833   2.486   3.637   6.465
28197WAT     H284834   2.446   3.655   6.622
28198WAT      O84835   3.949   1.998   7.505
28198WAT     H184836   3.960   2.089   7.544
28198WAT     H284837   4.037   1.951   7.504
28199WAT      O84838   4.770   9.416   3.241
28199WAT     H184839   4.671   9.409   3.228
28199WAT     H284840   4.809   9.325   3.253
28200WAT      O84841   3.389   3.439   0.303
28200WAT     H184842   3.404   3.369   0.232
28200WAT     H284843   3.464   3.504   0.302
28201WAT      O84844   9.311   0.160   6.655
28201WAT     H184845   9.250   0.085   6.628
28201WAT     H284846   9.260   0.246   6.655
28202WAT      O84847   9.345   3.050   7.594
28202WAT     H184848   9.433   3.098   7.586
28202WAT     H284849   9.301   3.047   7.504
28203WAT      O84850   2.888   5.934   3.807
28203WAT     H184851   2.949   5.971   3.877
28203WAT     H284852   2.888   5.834   3.812
28204WAT      O84853   4.500   0.134   3.912
28204WAT     H184854   4.433   0.180   3.971
28204WAT     H284855   4.458   0.114   3.823
28205WAT      O84856   8.737   3.124   5.163
28205WAT     H184857   8.643   3.134   5.129
28205WAT     H284858   8.800   3.127   5.086
28206WAT      O84859   6.179   5.991   2.438
28206WAT     H184860   6.155   5.931   2.362
28206WAT     H284861   6.268   5.964   2.475
28207WAT      O84862   7.125   4.986   8.155
28207WAT     H184863   7.181   5.047   8.099
28207WAT     H284864   7.058   5.039   8.206
28208WAT      O84865   4.182   3.331   7.241
28208WAT     H184866   4.249   3.265   7.207
28208WAT     H284867   4.148   3.303   7.330
28209WAT      O84868   7.046   6.181   6.754
28209WAT     H184869   7.059   6.239   6.674
28209WAT     H284870   7.109   6.103   6.750
28210WAT      O84871   8.713   2.998   2.197
28210WAT     H184872   8.785   2.968   2.134
28210WAT     H284873   8.624   2.975   2.158
28211WAT      O84874   8.558   1.401   3.116
28211WAT     H184875   8.640   1.361   3.075
28211WAT     H284876   8.515   1.464   3.052
28212WAT      O84877   3.389   4.376   1.881
28212WAT     H184878   3.374   4.411   1.973
28212WAT     H284879   3.348   4.285   1.873
28213WAT      O84880   0.211   6.447   3.610
28213WAT     H184881   0.260   6.534   3.602
28213WAT     H284882   0.276   6.372   3.605
28214WAT      O84883   9.347   8.581   7.519
28214WAT     H184884   9.316   8.657   7.577
28214WAT     H284885   9.291   8.500   7.537
28215WAT      O84886   4.313   1.922   4.123
28215WAT     H184887   4.358   2.003   4.161
28215WAT     H284888   4.356   1.839   4.159
28216WAT      O84889   6.686   7.056   6.894
28216WAT     H184890   6.750   7.045   6.818
28216WAT     H284891   6.737   7.051   6.980
28217WAT      O84892   4.081   1.050   8.616
28217WAT     H184893   4.001   1.102   8.586
28217WAT     H284894   4.104   0.982   8.547
28218WAT      O84895   9.378   4.542   4.819
28218WAT     H184896   9.401   4.553   4.722
28218WAT     H284897   9.414   4.455   4.852
28219WAT      O84898   4.745   1.012   3.379
28219WAT     H184899   4.827   1.064   3.403
28219WAT     H284900   4.687   1.068   3.319
28220WAT      O84901   0.664   5.764   1.131
28220WAT     H184902   0.664   5.805   1.040
28220WAT     H284903   0.683   5.834   1.200
28221WAT      O84904   8.427   7.741   1.590
28221WAT     H184905   8.431   7.642   1.576
28221WAT     H284906   8.489   7.785   1.525
28222WAT      O84907   6.806   6.639   9.020
28222WAT     H184908   6.858   6.723   9.005
28222WAT     H284909   6.709   6.657   9.001
28223WAT      O84910   1.846   8.316   3.961
28223WAT     H184911   1.841   8.391   4.026
28223WAT     H284912   1.936   8.272   3.967
28224WAT      O84913   4.890   4.910   7.106
28224WAT     H184914   4.857   4.829   7.058
28224WAT     H284915   4.854   4.992   7.061
28225WAT      O84916   7.237   1.433   1.233
28225WAT     H184917   7.137   1.437   1.236
28225WAT     H284918   7.275   1.517   1.271
28226WAT      O84919   7.482   6.029   2.305
28226WAT     H184920   7.552   6.028   2.376
28226WAT     H284921   7.496   6.107   2.245
28227WAT      O84922   1.717   1.162   7.177
28227WAT     H184923   1.770   1.086   7.139
28227WAT     H284924   1.772   1.245   7.172
28228WAT      O84925   2.599   6.253   9.042
28228WAT     H184926   2.587   6.169   9.094
28228WAT     H284927   2.509   6.292   9.021
28229WAT      O84928   8.311   4.099   5.810
28229WAT     H184929   8.386   4.071   5.750
28229WAT     H284930   8.346   4.162   5.879
28230WAT      O84931   1.149   4.637   8.844
28230WAT     H184932   1.066   4.596   8.806
28230WAT     H284933   1.142   4.639   8.944
28231WAT      O84934   1.081   7.822   3.010
28231WAT     H184935   1.106   7.729   2.982
28231WAT     H284936   1.086   7.829   3.110
28232WAT      O84937   4.852   6.619   8.883
28232WAT     H184938   4.950   6.618   8.899
28232WAT     H284939   4.828   6.696   8.824
28233WAT      O84940   2.378   7.968   0.404
28233WAT     H184941   2.420   8.049   0.364
28233WAT     H284942   2.295   7.995   0.454
28234WAT      O84943   1.588   6.837   0.668
28234WAT     H184944   1.632   6.833   0.578
28234WAT     H284945   1.494   6.803   0.660
28235WAT      O84946   2.175   2.015   2.993
28235WAT     H184947   2.150   2.093   2.935
28235WAT     H284948   2.100   1.998   3.058
28236WAT      O84949   1.959   2.763   6.888
28236WAT     H184950   2.005   2.842   6.848
28236WAT     H284951   2.027   2.692   6.909
28237WAT      O84952   6.521   6.733   5.516
28237WAT     H184953   6.482   6.682   5.593
28237WAT     H284954   6.526   6.830   5.541
28238WAT      O84955   7.938   4.585   0.478
28238WAT     H184956   7.906   4.630   0.561
28238WAT     H284957   8.037   4.569   0.484
28239WAT      O84958   8.288   1.824   9.577
28239WAT     H184959   8.255   1.908   9.620
28239WAT     H284960   8.280   1.831   9.478
28240WAT      O84961   9.673   8.388   7.776
28240WAT     H184962   9.750   8.324   7.777
28240WAT     H284963   9.589   8.338   7.755
28241WAT      O84964   6.530   4.443   7.301
28241WAT     H184965   6.502   4.349   7.279
28241WAT     H284966   6.542   4.495   7.217
28242WAT      O84967   3.141   4.706   6.090
28242WAT     H184968   3.125   4.804   6.103
28242WAT     H284969   3.057   4.663   6.056
28243WAT      O84970   8.045   1.545   5.563
28243WAT     H184971   8.071   1.641   5.563
28243WAT     H284972   8.088   1.498   5.640
28244WAT      O84973   6.201   0.129   8.557
28244WAT     H184974   6.192   0.061   8.484
28244WAT     H284975   6.213   0.082   8.644
28245WAT      O84976   8.277   9.506   9.310
28245WAT     H184977   8.224   9.584   9.341
28245WAT     H284978   8.332   9.471   9.385
28246WAT      O84979   3.688   9.735   0.994
28246WAT     H184980   3.747   9.706   0.919
28246WAT     H284981   3.734   9.719   1.081
28247WAT      O84982   1.675   5.370   1.250
28247WAT     H184983   1.650   5.302   1.319
28247WAT     H284984   1.708   5.453   1.295
28248WAT      O84985   6.067   0.881   6.120
28248WAT     H184986   6.156   0.836   6.131
28248WAT     H284987   5.997   0.812   6.103
28249WAT      O84988   3.174   6.615   0.574
28249WAT     H184989   3.167   6.520   0.543
28249WAT     H284990   3.172   6.618   0.674
28250WAT      O84991   7.278   0.821   1.504
28250WAT     H184992   7.271   0.845   1.601
28250WAT     H284993   7.188   0.795   1.469
28251WAT      O84994   6.632   8.783   0.063
28251WAT     H184995   6.567   8.811  -0.007
28251WAT     H284996   6.583   8.754   0.145
28252WAT      O84997   1.125   9.455   5.873
28252WAT     H184998   1.209   9.420   5.832
28252WAT     H284999   1.050   9.392   5.856
28253WAT      O85000   4.228   3.875   9.566
28253WAT     H185001   4.301   3.929   9.524
28253WAT     H285002   4.184   3.818   9.497
28254WAT      O85003   4.925   8.153   0.269
28254WAT     H185004   5.024   8.167   0.264
28254WAT     H285005   4.878   8.230   0.226
28255WAT      O85006   9.067   0.153   2.055
28255WAT     H185007   9.106   0.086   2.119
28255WAT     H285008   9.091   0.128   1.961
28256WAT      O85009   6.144   7.214   8.549
28256WAT     H185010   6.237   7.232   8.518
28256WAT     H285011   6.093   7.168   8.476
28257WAT      O85012   9.600   6.527   3.985
28257WAT     H185013   9.685   6.561   4.025
28257WAT     H285014   9.522   6.558   4.041
28258WAT      O85015   6.504   9.620   1.588
28258WAT     H185016   6.539   9.713   1.602
28258WAT     H285017   6.582   9.557   1.580
28259WAT      O85018   3.656   1.199   3.859
28259WAT     H185019   3.711   1.121   3.887
28259WAT     H285020   3.607   1.178   3.775
28260WAT      O85021   6.663   9.162   9.593
28260WAT     H185022   6.579   9.109   9.588
28260WAT     H285023   6.642   9.256   9.621
28261WAT      O85024   8.865   8.125   5.750
28261WAT     H185025   8.872   8.181   5.668
28261WAT     H285026   8.844   8.183   5.829
28262WAT      O85027   0.131   5.045   9.710
28262WAT     H185028   0.084   5.121   9.754
28262WAT     H285029   0.223   5.035   9.747
28263WAT      O85030   3.533   1.086   5.115
28263WAT     H185031   3.523   1.163   5.051
28263WAT     H285032   3.630   1.071   5.133
28264WAT      O85033   8.896   4.577   0.316
28264WAT     H185034   8.819   4.514   0.316
28264WAT     H285035   8.880   4.649   0.249
28265WAT      O85036   0.226   6.021   0.332
28265WAT     H185037   0.304   6.058   0.281
28265WAT     H285038   0.182   6.093   0.385
28266WAT      O85039   5.222   7.605   5.679
28266WAT     H185040   5.157   7.598   5.604
28266WAT     H285041   5.216   7.524   5.737
28267WAT      O85042   8.600   8.073   7.456
28267WAT     H185043   8.536   8.137   7.499
28267WAT     H285044   8.598   7.986   7.504
28268WAT      O85045   0.868   3.528   7.273
28268WAT     H185046   0.935   3.484   7.212
28268WAT     H285047   0.776   3.499   7.247
28269WAT      O85048   4.460   8.065   9.097
28269WAT     H185049   4.489   8.132   9.029
28269WAT     H285050   4.538   8.008   9.122
28270WAT      O85051   6.226   5.599   4.626
28270WAT     H185052   6.209   5.630   4.532
28270WAT     H285053   6.324   5.591   4.641
28271WAT      O85054   7.193   2.464   9.212
28271WAT     H185055   7.117   2.400   9.221
28271WAT     H285056   7.178   2.523   9.133
28272WAT      O85057   4.483   9.726   1.904
28272WAT     H185058   4.449   9.683   1.988
28272WAT     H285059   4.545   9.663   1.858
28273WAT      O85060   0.789   1.086   4.434
28273WAT     H185061   0.830   1.015   4.377
28273WAT     H285062   0.817   1.074   4.529
28274WAT      O85063   8.412   5.592   2.014
28274WAT     H185064   8.346   5.665   2.028
28274WAT     H285065   8.437   5.552   2.103
28275WAT      O85066   1.598   5.403   0.172
28275WAT     H185067   1.619   5.332   0.104
28275WAT     H285068   1.651   5.388   0.254
28276WAT      O85069   3.625   6.962   9.207
28276WAT     H185070   3.600   7.058   9.197
28276WAT     H285071   3.717   6.954   9.245
28277WAT      O85072   2.902   1.823   1.725
28277WAT     H185073   2.824   1.849   1.781
28277WAT     H285074   2.983   1.874   1.754
28278WAT      O85075   9.878   8.806   0.884
28278WAT     H185076   9.860   8.900   0.913
28278WAT     H285077   9.870   8.799   0.785
28279WAT      O85078   0.077   7.274   9.688
28279WAT     H185079   0.073   7.211   9.767
28279WAT     H285080  -0.016   7.297   9.660
28280WAT      O85081   2.900   9.051   8.848
28280WAT     H185082   2.941   9.108   8.777
28280WAT     H285083   2.801   9.054   8.840
28281WAT      O85084   5.494   8.842   4.373
28281WAT     H185085   5.421   8.857   4.439
28281WAT     H285086   5.461   8.866   4.281
28282WAT      O85087   4.069   6.281   8.966
28282WAT     H185088   4.158   6.236   8.972
28282WAT     H285089   3.996   6.213   8.970
28283WAT      O85090   9.323   5.643   8.578
28283WAT     H185091   9.291   5.736   8.593
28283WAT     H285092   9.366   5.636   8.488
28284WAT      O85093   4.843   7.251   7.058
28284WAT     H185094   4.851   7.258   6.959
28284WAT     H285095   4.749   7.273   7.085
28285WAT      O85096   4.552   8.805   1.045
28285WAT     H185097   4.517   8.890   1.084
28285WAT     H285098   4.512   8.727   1.094
28286WAT      O85099   4.839   9.676   1.623
28286WAT     H185100   4.844   9.706   1.527
28286WAT     H285101   4.870   9.751   1.682
28287WAT      O85102   5.155   3.090   5.779
28287WAT     H185103   5.184   3.140   5.862
28287WAT     H285104   5.185   3.140   5.698
28288WAT      O85105   8.995   7.675   7.221
28288WAT     H185106   8.914   7.642   7.269
28288WAT     H285107   8.967   7.728   7.141
28289WAT      O85108   6.009   8.444   7.538
28289WAT     H185109   6.081   8.513   7.525
28289WAT     H285110   5.969   8.454   7.629
28290WAT      O85111   6.373   6.538   4.638
28290WAT     H185112   6.351   6.527   4.541
28290WAT     H285113   6.471   6.522   4.652
28291WAT      O85114   0.632   9.479   3.278
28291WAT     H185115   0.705   9.480   3.210
28291WAT     H285116   0.640   9.559   3.338
28292WAT      O85117   2.555   8.886   1.133
28292WAT     H185118   2.581   8.826   1.209
28292WAT     H285119   2.624   8.879   1.060
28293WAT      O85120   6.544   9.661   2.792
28293WAT     H185121   6.522   9.623   2.702
28293WAT     H285122   6.469   9.644   2.855
28294WAT      O85123   7.621   5.628   0.396
28294WAT     H185124   7.669   5.552   0.440
28294WAT     H285125   7.681   5.671   0.329
28295WAT      O85126   3.081   1.679   8.548
28295WAT     H185127   3.142   1.603   8.523
28295WAT     H285128   3.082   1.691   8.647
28296WAT      O85129   8.641   0.129   3.812
28296WAT     H185130   8.695   0.099   3.733
28296WAT     H285131   8.696   0.189   3.869
28297WAT      O85132   8.975   9.161   9.799
28297WAT     H185133   8.987   9.256   9.768
28297WAT     H285134   8.893   9.155   9.856
28298WAT      O85135   2.104   1.210   2.364
28298WAT     H185136   2.042   1.148   2.413
28298WAT     H285137   2.112   1.181   2.269
28299WAT      O85138   9.876   4.354   1.712
28299WAT     H185139   9.912   4.264   1.690
28299WAT     H285140   9.777   4.348   1.725
28300WAT      O85141   6.463   6.142   0.665
28300WAT     H185142   6.397   6.143   0.590
28300WAT     H285143   6.539   6.082   0.641
28301WAT      O85144   1.733   5.951   2.623
28301WAT     H185145   1.713   5.982   2.531
28301WAT     H285146   1.648   5.921   2.668
28302WAT      O85147   4.170   7.994   0.464
28302WAT     H185148   4.124   7.981   0.377
28302WAT     H285149   4.127   8.071   0.513
28303WAT      O85150   4.297   4.228   0.721
28303WAT     H185151   4.370   4.246   0.654
28303WAT     H285152   4.249   4.314   0.741
28304WAT      O85153   4.200   0.997   3.640
28304WAT     H185154   4.222   0.932   3.713
28304WAT     H285155   4.112   1.039   3.658
28305WAT      O85156   2.406   5.115   7.695
28305WAT     H185157   2.444   5.030   7.659
28305WAT     H285158   2.463   5.192   7.664
28306WAT      O85159   4.070   8.050   5.612
28306WAT     H185160   4.072   7.969   5.670
28306WAT     H285161   4.156   8.059   5.562
28307WAT      O85162   4.677   6.307   2.557
28307WAT     H185163   4.756   6.323   2.498
28307WAT     H285164   4.707   6.260   2.640
28308WAT      O85165   0.740   4.764   2.857
28308WAT     H185166   0.719   4.854   2.819
28308WAT     H285167   0.736   4.768   2.957
28309WAT      O85168   2.382   2.680   8.212
28309WAT     H185169   2.319   2.710   8.141
28309WAT     H285170   2.430   2.759   8.251
28310WAT      O85171   6.440   6.935   8.590
28310WAT     H185172   6.455   6.844   8.552
28310WAT     H285173   6.462   6.935   8.687
28311WAT      O85174   6.294   9.264   7.112
28311WAT     H185175   6.212   9.236   7.162
28311WAT     H285176   6.286   9.360   7.086
28312WAT      O85177   5.946   6.212   7.735
28312WAT     H185178   6.016   6.143   7.720
28312WAT     H285179   5.953   6.247   7.829
28313WAT      O85180   0.808   3.944   6.864
28313WAT     H185181   0.747   3.914   6.791
28313WAT     H285182   0.903   3.929   6.837
28314WAT      O85183   2.891   7.288   1.445
28314WAT     H185184   2.839   7.206   1.465
28314WAT     H285185   2.888   7.350   1.523
28315WAT      O85186   8.076   9.529   6.338
28315WAT     H185187   8.142   9.530   6.414
28315WAT     H285188   8.052   9.434   6.317
28316WAT      O85189   1.416   9.501   3.815
28316WAT     H185190   1.430   9.590   3.771
28316WAT     H285191   1.429   9.511   3.914
28317WAT      O85192   2.475   2.031   7.797
28317WAT     H185193   2.568   2.053   7.826
28317WAT     H285194   2.413   2.038   7.874
28318WAT      O85195   6.370   9.769   0.648
28318WAT     H185196   6.282   9.786   0.693
28318WAT     H285197   6.435   9.732   0.715
28319WAT      O85198   4.964   4.804   4.455
28319WAT     H185199   4.918   4.891   4.435
28319WAT     H285200   4.993   4.761   4.369
28320WAT      O85201   8.310   2.171   9.468
28320WAT     H185202   8.346   2.156   9.376
28320WAT     H285203   8.213   2.150   9.470
28321WAT      O85204   5.923   1.557   6.048
28321WAT     H185205   5.949   1.465   6.078
28321WAT     H285206   5.977   1.625   6.100
28322WAT      O85207   8.523   9.544   1.231
28322WAT     H185208   8.451   9.555   1.163
28322WAT     H285209   8.578   9.628   1.234
28323WAT      O85210   8.917   6.002   5.584
28323WAT     H185211   8.923   6.101   5.569
28323WAT     H285212   8.873   5.985   5.673
28324WAT      O85213   4.892   4.082   8.849
28324WAT     H185214   4.832   4.005   8.826
28324WAT     H285215   4.954   4.055   8.922
28325WAT      O85216   7.002   1.880   3.203
28325WAT     H185217   7.018   1.783   3.217
28325WAT     H285218   7.076   1.932   3.246
28326WAT      O85219   4.257   1.895   2.828
28326WAT     H185220   4.226   1.801   2.816
28326WAT     H285221   4.245   1.922   2.923
28327WAT      O85222   0.920   1.204   5.752
28327WAT     H185223   0.960   1.257   5.677
28327WAT     H285224   0.985   1.198   5.827
28328WAT      O85225   2.506   6.360   5.066
28328WAT     H185226   2.553   6.279   5.032
28328WAT     H285227   2.559   6.441   5.044
28329WAT      O85228   0.929   4.826   0.956
28329WAT     H185229   0.894   4.842   0.864
28329WAT     H285230   0.866   4.867   1.023
28330WAT      O85231   5.973   9.731   2.284
28330WAT     H185232   5.964   9.816   2.337
28330WAT     H285233   6.057   9.733   2.231
28331WAT      O85234   3.159   2.552   7.773
28331WAT     H185235   3.189   2.641   7.806
28331WAT     H285236   3.167   2.484   7.846
28332WAT      O85237   6.779   5.547   0.556
28332WAT     H185238   6.697   5.599   0.532
28332WAT     H285239   6.860   5.602   0.538
28333WAT      O85240   7.613   4.466   5.500
28333WAT     H185241   7.611   4.558   5.462
28333WAT     H285242   7.642   4.401   5.429
28334WAT      O85243   6.232   7.837   6.654
28334WAT     H185244   6.276   7.914   6.606
28334WAT     H285245   6.224   7.860   6.751
28335WAT      O85246   9.010   9.059   1.011
28335WAT     H185247   8.919   9.024   0.991
28335WAT     H285248   9.053   9.002   1.081
28336WAT      O85249   8.688   5.568   8.356
28336WAT     H185250   8.668   5.664   8.378
28336WAT     H285251   8.777   5.563   8.310
28337WAT      O85252   3.799   9.213   1.669
28337WAT     H185253   3.802   9.306   1.631
28337WAT     H285254   3.892   9.180   1.683
28338WAT      O85255   6.195   0.985   3.241
28338WAT     H185256   6.244   0.942   3.316
28338WAT     H285257   6.209   1.084   3.244
28339WAT      O85258   2.973   9.731   4.438
28339WAT     H185259   2.942   9.814   4.483
28339WAT     H285260   2.898   9.690   4.386
28340WAT      O85261   8.136   3.683   1.794
28340WAT     H185262   8.060   3.649   1.848
28340WAT     H285263   8.196   3.739   1.851
28341WAT      O85264   3.315   1.616   2.849
28341WAT     H185265   3.289   1.536   2.796
28341WAT     H285266   3.258   1.694   2.821
28342WAT      O85267   3.770   7.718   8.164
28342WAT     H185268   3.866   7.691   8.170
28342WAT     H285269   3.744   7.765   8.249
28343WAT      O85270   2.150   6.013   0.922
28343WAT     H185271   2.122   5.958   1.000
28343WAT     H285272   2.078   6.079   0.901
28344WAT      O85273   4.558   1.273   1.401
28344WAT     H185274   4.626   1.339   1.368
28344WAT     H285275   4.478   1.276   1.341
28345WAT      O85276   3.767   9.594   1.863
28345WAT     H185277   3.838   9.532   1.895
28345WAT     H285278   3.684   9.542   1.842
28346WAT      O85279   9.340   9.779   3.702
28346WAT     H185280   9.349   9.702   3.639
28346WAT     H285281   9.267   9.840   3.670
28347WAT      O85282   4.487   1.943   3.228
28347WAT     H185283   4.416   1.920   3.295
28347WAT     H285284   4.568   1.886   3.244
28348WAT      O85285   2.231   3.993   2.713
28348WAT     H185286   2.147   3.984   2.660
28348WAT     H285287   2.212   3.980   2.810
28349WAT      O85288   6.352   4.415   3.221
28349WAT     H185289   6.446   4.413   3.255
28349WAT     H285290   6.352   4.399   3.123
28350WAT      O85291   9.865   4.635   7.107
28350WAT     H185292   9.845   4.593   7.195
28350WAT     H285293   9.779   4.663   7.063
28351WAT      O85294   1.964   8.686   6.026
28351WAT     H185295   1.949   8.782   6.047
28351WAT     H285296   1.961   8.632   6.110
28352WAT      O85297   4.544   5.937   5.386
28352WAT     H185298   4.552   5.862   5.452
28352WAT     H285299   4.601   5.917   5.306
28353WAT      O85300   2.899   6.990   2.419
28353WAT     H185301   2.802   7.001   2.445
28353WAT     H285302   2.941   7.081   2.413
28354WAT      O85303   8.390   1.381   0.280
28354WAT     H185304   8.311   1.439   0.299
28354WAT     H285305   8.416   1.390   0.184
28355WAT      O85306   5.841   6.353   4.205
28355WAT     H185307   5.838   6.336   4.107
28355WAT     H285308   5.920   6.306   4.245
28356WAT      O85309   4.267   9.730   0.147
28356WAT     H185310   4.316   9.689   0.223
28356WAT     H285311   4.281   9.829   0.148
28357WAT      O85312   9.549   4.156   3.419
28357WAT     H185313   9.568   4.091   3.492
28357WAT     H285314   9.452   4.154   3.397
28358WAT      O85315   6.649   0.873   6.243
28358WAT     H185316   6.582   0.897   6.173
28358WAT     H285317   6.602   0.862   6.331
28359WAT      O85318   4.512   1.195   9.198
28359WAT     H185319   4.474   1.225   9.111
28359WAT     H285320   4.501   1.096   9.206
28360WAT      O85321   8.643   1.033   2.657
28360WAT     H185322   8.737   1.001   2.660
28360WAT     H285323   8.640   1.133   2.664
28361WAT      O85324   3.999   7.673   5.157
28361WAT     H185325   4.098   7.664   5.154
28361WAT     H285326   3.966   7.653   5.249
28362WAT      O85327   3.782   4.577   5.168
28362WAT     H185328   3.859   4.589   5.231
28362WAT     H285329   3.758   4.480   5.163
28363WAT      O85330   8.952   8.895   8.239
28363WAT     H185331   8.981   8.805   8.206
28363WAT     H285332   8.857   8.911   8.211
28364WAT      O85333   5.034   6.514   0.297
28364WAT     H185334   4.968   6.532   0.224
28364WAT     H285335   4.994   6.540   0.385
28365WAT      O85336   7.351   2.511   6.598
28365WAT     H185337   7.304   2.503   6.510
28365WAT     H285338   7.406   2.594   6.600
28366WAT      O85339   6.810   7.650   2.827
28366WAT     H185340   6.791   7.633   2.924
28366WAT     H285341   6.741   7.604   2.771
28367WAT      O85342   5.458   4.064   9.833
28367WAT     H185343   5.506   4.143   9.795
28367WAT     H285344   5.371   4.093   9.873
28368WAT      O85345   3.444   2.176   7.057
28368WAT     H185346   3.367   2.169   6.994
28368WAT     H285347   3.527   2.199   7.004
28369WAT      O85348   2.166   7.360   4.502
28369WAT     H185349   2.266   7.369   4.495
28369WAT     H285350   2.143   7.334   4.596
28370WAT      O85351   6.274   0.148   4.755
28370WAT     H185352   6.180   0.131   4.726
28370WAT     H285353   6.274   0.197   4.842
28371WAT      O85354   8.150   0.743   9.295
28371WAT     H185355   8.056   0.738   9.261
28371WAT     H285356   8.150   0.735   9.394
28372WAT      O85357   7.816   0.125   8.391
28372WAT     H185358   7.890   0.183   8.356
28372WAT     H285359   7.854   0.037   8.420
28373WAT      O85360   6.600   9.587   0.118
28373WAT     H185361   6.687   9.560   0.158
28373WAT     H285362   6.525   9.560   0.178
28374WAT      O85363   3.676   8.308   3.673
28374WAT     H185364   3.706   8.214   3.653
28374WAT     H285365   3.576   8.312   3.669
28375WAT      O85366   5.539   5.943   0.152
28375WAT     H185367   5.617   5.880   0.151
28375WAT     H285368   5.538   5.998   0.069
28376WAT      O85369   6.980   4.263   4.856
28376WAT     H185370   6.978   4.300   4.949
28376WAT     H285371   6.906   4.196   4.845
28377WAT      O85372   8.400   1.740   8.754
28377WAT     H185373   8.451   1.701   8.831
28377WAT     H285374   8.414   1.839   8.751
28378WAT      O85375   6.259   3.891   9.605
28378WAT     H185376   6.329   3.962   9.596
28378WAT     H285377   6.233   3.882   9.702
28379WAT      O85378   3.843   1.556   8.896
28379WAT     H185379   3.759   1.609   8.901
28379WAT     H285380   3.822   1.458   8.895
28380WAT      O85381   3.441   2.958   4.928
28380WAT     H185382   3.356   2.909   4.946
28380WAT     H285383   3.449   3.035   4.991
28381WAT      O85384   8.688   5.419   7.546
28381WAT     H185385   8.662   5.507   7.586
28381WAT     H285386   8.728   5.360   7.617
28382WAT      O85387   8.001   8.537   3.819
28382WAT     H185388   7.986   8.558   3.916
28382WAT     H285389   8.098   8.547   3.798
28383WAT      O85390   0.954   8.731   6.244
28383WAT     H185391   0.923   8.704   6.152
28383WAT     H285392   0.878   8.723   6.308
28384WAT      O85393   3.064   3.433   8.254
28384WAT     H185394   3.154   3.423   8.297
28384WAT     H285395   3.012   3.504   8.302
28385WAT      O85396   6.309   3.119   1.166
28385WAT     H185397   6.289   3.171   1.249
28385WAT     H285398   6.378   3.050   1.186
28386WAT      O85399   0.977   1.781   3.130
28386WAT     H185400   0.939   1.867   3.165
28386WAT     H285401   1.020   1.797   3.041
28387WAT      O85402   4.970   2.453   6.600
28387WAT     H185403   5.004   2.463   6.506
28387WAT     H285404   4.880   2.410   6.597
28388WAT      O85405   7.723   0.987   4.620
28388WAT     H185406   7.800   1.038   4.582
28388WAT     H285407   7.670   0.945   4.546
28389WAT      O85408   5.296   8.181   6.907
28389WAT     H185409   5.227   8.114   6.936
28389WAT     H285410   5.383   8.161   6.952
28390WAT      O85411   2.922   7.773   8.962
28390WAT     H185412   2.976   7.708   8.908
28390WAT     H285413   2.832   7.783   8.919
28391WAT      O85414   7.772   0.276   2.033
28391WAT     H185415   7.815   0.321   2.111
28391WAT     H285416   7.826   0.291   1.951
28392WAT      O85417   1.306   6.126   3.365
28392WAT     H185418   1.262   6.097   3.450
28392WAT     H285419   1.301   6.226   3.359
28393WAT      O85420   3.076   6.599   2.289
28393WAT     H185421   3.062   6.676   2.227
28393WAT     H285422   3.159   6.615   2.343
28394WAT      O85423   3.103   5.065   5.822
28394WAT     H185424   3.051   4.987   5.788
28394WAT     H285425   3.168   5.095   5.751
28395WAT      O85426   4.007   9.374   5.363
28395WAT     H185427   4.095   9.360   5.317
28395WAT     H285428   4.007   9.462   5.409
28396WAT      O85429   1.189   5.348   1.558
28396WAT     H185430   1.260   5.417   1.573
28396WAT     H285431   1.174   5.337   1.460
28397WAT      O85432   5.298   4.492   3.400
28397WAT     H185433   5.275   4.399   3.371
28397WAT     H285434   5.397   4.504   3.396
28398WAT      O85435   5.345   7.306   8.333
28398WAT     H185436   5.274   7.237   8.319
28398WAT     H285437   5.435   7.266   8.318
28399WAT      O85438   2.602   2.446   9.455
28399WAT     H185439   2.534   2.500   9.504
28399WAT     H285440   2.572   2.433   9.360
28400WAT      O85441   7.788   8.048   1.311
28400WAT     H185442   7.778   8.139   1.351
28400WAT     H285443   7.851   7.993   1.366
28401WAT      O85444   1.122   8.915   0.061
28401WAT     H185445   1.189   8.890   0.130
28401WAT     H285446   1.166   8.969  -0.011
28402WAT      O85447   3.121   0.913   9.620
28402WAT     H185448   3.166   0.838   9.572
28402WAT     H285449   3.047   0.877   9.677
28403WAT      O85450   6.638   9.641   4.220
28403WAT     H185451   6.665   9.547   4.197
28403WAT     H285452   6.664   9.703   4.146
28404WAT      O85453   0.849   4.303   1.532
28404WAT     H185454   0.866   4.247   1.613
28404WAT     H285455   0.766   4.358   1.546
28405WAT      O85456   3.678   0.054   7.462
28405WAT     H185457   3.688   0.099   7.551
28405WAT     H285458   3.583   0.025   7.449
28406WAT      O85459   6.797   5.337   0.736
28406WAT     H185460   6.853   5.270   0.686
28406WAT     H285461   6.801   5.425   0.689
28407WAT      O85462   8.780   7.231   3.485
28407WAT     H185463   8.789   7.147   3.432
28407WAT     H285464   8.868   7.253   3.528
28408WAT      O85465   7.631   6.721   1.735
28408WAT     H185466   7.695   6.797   1.734
28408WAT     H285467   7.594   6.710   1.828
28409WAT      O85468   8.273   2.230   5.261
28409WAT     H185469   8.279   2.224   5.162
28409WAT     H285470   8.339   2.297   5.295
28410WAT      O85471   4.990   7.658   8.752
28410WAT     H185472   5.024   7.751   8.762
28410WAT     H285473   4.925   7.654   8.676
28411WAT      O85474   4.222   7.533   9.269
28411WAT     H185475   4.249   7.574   9.182
28411WAT     H285476   4.163   7.596   9.320
28412WAT      O85477   7.493   2.062   3.722
28412WAT     H185478   7.498   2.112   3.635
28412WAT     H285479   7.435   1.981   3.710
28413WAT      O85480   7.999   7.905   5.404
28413WAT     H185481   7.981   7.946   5.314
28413WAT     H285482   8.047   7.972   5.462
28414WAT      O85483   6.848   5.798   6.177
28414WAT     H185484   6.907   5.767   6.102
28414WAT     H285485   6.797   5.720   6.214
28415WAT      O85486   3.276   1.928   8.983
28415WAT     H185487   3.358   1.887   9.024
28415WAT     H285488   3.212   1.952   9.056
28416WAT      O85489   6.925   0.166   2.064
28416WAT     H185490   6.941   0.078   2.110
28416WAT     H285491   6.990   0.176   1.989
28417WAT      O85492   0.795   4.201   9.529
28417WAT     H185493   0.879   4.178   9.578
28417WAT     H285494   0.784   4.140   9.451
28418WAT      O85495   1.220   3.947   6.052
28418WAT     H185496   1.284   3.886   6.098
28418WAT     H285497   1.269   4.022   6.009
28419WAT      O85498   3.037   4.821   8.053
28419WAT     H185499   3.068   4.912   8.025
28419WAT     H285500   3.109   4.775   8.104
28420WAT      O85501   0.607   2.681   2.388
28420WAT     H185502   0.601   2.643   2.296
28420WAT     H285503   0.635   2.777   2.383
28421WAT      O85504   3.270   2.972   6.449
28421WAT     H185505   3.240   3.051   6.395
28421WAT     H285506   3.319   3.004   6.530
28422WAT      O85507   3.799   4.422   0.541
28422WAT     H185508   3.885   4.372   0.537
28422WAT     H285509   3.797   4.479   0.624
28423WAT      O85510   5.082   5.389   0.969
28423WAT     H185511   5.080   5.298   0.927
28423WAT     H285512   5.168   5.401   1.020
28424WAT      O85513   5.889   7.179   8.919
28424WAT     H185514   5.886   7.093   8.868
28424WAT     H285515   5.842   7.167   9.007
28425WAT      O85516   0.503   9.174   2.315
28425WAT     H185517   0.587   9.200   2.363
28425WAT     H285518   0.424   9.194   2.373
28426WAT      O85519   8.149   0.957   8.110
28426WAT     H185520   8.107   0.968   8.200
28426WAT     H285521   8.152   0.860   8.087
28427WAT      O85522   6.295   0.179   9.114
28427WAT     H185523   6.340   0.148   9.030
28427WAT     H285524   6.252   0.101   9.159
28428WAT      O85525   1.927   8.218   3.585
28428WAT     H185526   1.852   8.175   3.635
28428WAT     H285527   2.008   8.159   3.589
28429WAT      O85528   2.226   9.114   1.306
28429WAT     H185529   2.283   9.151   1.380
28429WAT     H285530   2.138   9.160   1.305
28430WAT      O85531   2.001   4.350   3.187
28430WAT     H185532   1.979   4.431   3.133
28430WAT     H285533   1.976   4.366   3.283
28431WAT      O85534   5.775   0.428   8.890
28431WAT     H185535   5.809   0.345   8.935
28431WAT     H285536   5.778   0.415   8.791
28432WAT      O85537   2.946   5.555   2.673
28432WAT     H185538   2.888   5.505   2.609
28432WAT     H285539   2.929   5.653   2.665
28433WAT      O85540   6.601   7.394   8.617
28433WAT     H185541   6.563   7.467   8.561
28433WAT     H285542   6.527   7.339   8.656
28434WAT      O85543   3.738   0.445   2.836
28434WAT     H185544   3.746   0.420   2.740
28434WAT     H285545   3.769   0.369   2.893
28435WAT      O85546   0.647   3.133   1.401
28435WAT     H185547   0.719   3.078   1.443
28435WAT     H285548   0.559   3.113   1.446
28436WAT      O85549   9.527   1.787   0.379
28436WAT     H185550   9.599   1.794   0.448
28436WAT     H285551   9.465   1.712   0.402
28437WAT      O85552   7.123   7.659   0.150
28437WAT     H185553   7.091   7.567   0.171
28437WAT     H285554   7.153   7.663   0.055
28438WAT      O85555   1.849   4.817   0.647
28438WAT     H185556   1.920   4.868   0.695
28438WAT     H285557   1.764   4.871   0.647
28439WAT      O85558   0.304   4.446   0.708
28439WAT     H185559   0.268   4.368   0.759
28439WAT     H285560   0.332   4.518   0.772
28440WAT      O85561   9.355   5.922   3.464
28440WAT     H185562   9.388   5.988   3.396
28440WAT     H285563   9.411   5.839   3.461
28441WAT      O85564   9.535   6.612   5.130
28441WAT     H185565   9.620   6.563   5.150
28441WAT     H285566   9.480   6.619   5.213
28442WAT      O85567   3.338   2.491   9.091
28442WAT     H185568   3.333   2.548   9.173
28442WAT     H285569   3.247   2.483   9.051
28443WAT      O85570   4.011   0.651   2.212
28443WAT     H185571   4.080   0.719   2.186
28443WAT     H285572   3.946   0.691   2.275
28444WAT      O85573   7.861   9.526   7.668
28444WAT     H185574   7.823   9.607   7.712
28444WAT     H285575   7.850   9.533   7.569
28445WAT      O85576   5.145   7.353   0.292
28445WAT     H185577   5.126   7.296   0.212
28445WAT     H285578   5.080   7.331   0.365
28446WAT      O85579   2.155   7.519   5.588
28446WAT     H185580   2.094   7.485   5.661
28446WAT     H285581   2.250   7.499   5.613
28447WAT      O85582   6.622   8.537   5.779
28447WAT     H185583   6.534   8.496   5.804
28447WAT     H285584   6.697   8.484   5.819
28448WAT      O85585   2.227   2.794   8.039
28448WAT     H185586   2.263   2.837   7.956
28448WAT     H285587   2.167   2.857   8.087
28449WAT      O85588   2.936   0.002   0.887
28449WAT     H185589   2.848   0.002   0.840
28449WAT     H285590   2.935   0.070   0.961
28450WAT      O85591   6.082   9.346   6.522
28450WAT     H185592   6.059   9.398   6.440
28450WAT     H285593   6.053   9.397   6.603
28451WAT      O85594   9.298   8.737   5.847
28451WAT     H185595   9.339   8.817   5.891
28451WAT     H285596   9.199   8.740   5.857
28452WAT      O85597   1.443   7.417   1.540
28452WAT     H185598   1.426   7.510   1.508
28452WAT     H285599   1.361   7.361   1.523
28453WAT      O85600   8.953   2.551   9.746
28453WAT     H185601   9.033   2.531   9.689
28453WAT     H285602   8.940   2.478   9.812
28454WAT      O85603   2.972   8.692   7.893
28454WAT     H185604   3.038   8.739   7.835
28454WAT     H285605   2.987   8.718   7.989
28455WAT      O85606   0.115   8.956   8.754
28455WAT     H185607   0.020   8.957   8.725
28455WAT     H285608   0.165   9.031   8.710
28456WAT      O85609   9.209   4.672   2.121
28456WAT     H185610   9.124   4.628   2.091
28456WAT     H285611   9.249   4.721   2.044
28457WAT      O85612   5.989   1.944   2.690
28457WAT     H185613   6.033   1.941   2.600
28457WAT     H285614   6.057   1.967   2.759
28458WAT      O85615   6.581   5.635   7.539
28458WAT     H185616   6.568   5.544   7.500
28458WAT     H285617   6.493   5.683   7.542
28459WAT      O85618   2.349   5.860   8.114
28459WAT     H185619   2.353   5.957   8.136
28459WAT     H285620   2.263   5.839   8.069
28460WAT      O85621   0.163   1.790   4.840
28460WAT     H185622   0.116   1.878   4.842
28460WAT     H285623   0.250   1.797   4.889
28461WAT      O85624   9.841   7.408   0.722
28461WAT     H185625   9.747   7.442   0.714
28461WAT     H285626   9.885   7.410   0.633
28462WAT      O85627   2.455   7.916   4.477
28462WAT     H185628   2.543   7.940   4.519
28462WAT     H285629   2.436   7.819   4.492
28463WAT      O85630   0.348   3.256   2.232
28463WAT     H185631   0.302   3.186   2.178
28463WAT     H285632   0.373   3.333   2.173
28464WAT      O85633   0.920   6.888   9.681
28464WAT     H185634   0.921   6.802   9.733
28464WAT     H285635   0.979   6.879   9.601
28465WAT      O85636   6.469   6.726   7.914
28465WAT     H185637   6.483   6.770   7.826
28465WAT     H285638   6.438   6.795   7.981
28466WAT      O85639   7.804   4.765   3.145
28466WAT     H185640   7.895   4.767   3.185
28466WAT     H285641   7.741   4.819   3.202
28467WAT      O85642   8.176   9.298   3.745
28467WAT     H185643   8.078   9.316   3.759
28467WAT     H285644   8.216   9.265   3.830
28468WAT      O85645   0.253   4.635   2.345
28468WAT     H185646   0.222   4.552   2.390
28468WAT     H285647   0.340   4.664   2.384
28469WAT      O85648   8.591   6.468   6.237
28469WAT     H185649   8.505   6.447   6.191
28469WAT     H285650   8.613   6.565   6.223
28470WAT      O85651   1.333   3.551   3.969
28470WAT     H185652   1.419   3.500   3.975
28470WAT     H285653   1.323   3.607   4.052
28471WAT      O85654   2.993   5.470   0.528
28471WAT     H185655   3.008   5.475   0.627
28471WAT     H285656   2.990   5.562   0.489
28472WAT      O85657   2.704   0.515   6.456
28472WAT     H185658   2.789   0.565   6.440
28472WAT     H285659   2.696   0.494   6.554
28473WAT      O85660   8.628   3.357   7.153
28473WAT     H185661   8.612   3.454   7.139
28473WAT     H285662   8.714   3.344   7.203
28474WAT      O85663   3.093   5.095   8.002
28474WAT     H185664   3.030   5.172   8.011
28474WAT     H285665   3.162   5.116   7.934
28475WAT      O85666   2.969   5.431   9.155
28475WAT     H185667   3.026   5.365   9.204
28475WAT     H285668   2.989   5.426   9.057
28476WAT      O85669   6.086   1.049   5.911
28476WAT     H185670   6.084   1.012   6.004
28476WAT     H285671   6.180   1.071   5.885
28477WAT      O85672   2.706   4.189   1.333
28477WAT     H185673   2.653   4.107   1.353
28477WAT     H285674   2.728   4.235   1.419
28478WAT      O85675   6.465   6.941   0.739
28478WAT     H185676   6.491   6.851   0.704
28478WAT     H285677   6.486   6.947   0.836
28479WAT      O85678   3.925   7.163   3.069
28479WAT     H185679   3.895   7.152   3.164
28479WAT     H285680   3.884   7.246   3.030
28480WAT      O85681   1.102   9.359   1.360
28480WAT     H185682   1.026   9.362   1.296
28480WAT     H285683   1.152   9.273   1.349
28481WAT      O85684   9.299   3.122   5.913
28481WAT     H185685   9.199   3.131   5.912
28481WAT     H285686   9.340   3.213   5.917
28482WAT      O85687   8.896   1.026   2.139
28482WAT     H185688   8.973   1.047   2.080
28482WAT     H285689   8.929   1.002   2.231
28483WAT      O85690   1.934   8.072   1.212
28483WAT     H185691   1.880   8.069   1.296
28483WAT     H285692   1.931   8.164   1.173
28484WAT      O85693   3.824   2.793   2.357
28484WAT     H185694   3.820   2.775   2.455
28484WAT     H285695   3.738   2.834   2.328
28485WAT      O85696   7.398   0.222   3.191
28485WAT     H185697   7.430   0.175   3.108
28485WAT     H285698   7.476   0.253   3.245
28486WAT      O85699   5.442   1.560   6.017
28486WAT     H185700   5.423   1.655   5.994
28486WAT     H285701   5.515   1.526   5.959
28487WAT      O85702   6.940   2.226   8.788
28487WAT     H185703   6.886   2.279   8.854
28487WAT     H285704   7.018   2.281   8.757
28488WAT      O85705   0.362   9.726   6.899
28488WAT     H185706   0.427   9.713   6.973
28488WAT     H285707   0.345   9.824   6.886
28489WAT      O85708   2.614   5.140   3.150
28489WAT     H185709   2.699   5.107   3.191
28489WAT     H285710   2.584   5.077   3.079
28490WAT      O85711   2.304   5.715   1.178
28490WAT     H185712   2.404   5.714   1.171
28490WAT     H285713   2.278   5.731   1.273
28491WAT      O85714   2.367   6.202   6.594
28491WAT     H185715   2.337   6.132   6.658
28491WAT     H285716   2.453   6.173   6.550
28492WAT      O85717   1.571   8.494   4.977
28492WAT     H185718   1.545   8.461   4.886
28492WAT     H285719   1.549   8.424   5.045
28493WAT      O85720   6.356   1.617   4.147
28493WAT     H185721   6.435   1.667   4.112
28493WAT     H285722   6.382   1.565   4.229
28494WAT      O85723   9.333   3.086   2.084
28494WAT     H185724   9.401   3.159   2.093
28494WAT     H285725   9.368   3.003   2.127
28495WAT      O85726   8.458   1.199   7.366
28495WAT     H185727   8.495   1.216   7.457
28495WAT     H285728   8.427   1.104   7.359
28496WAT      O85729   5.949   3.245   6.536
28496WAT     H185730   5.892   3.307   6.483
28496WAT     H285731   5.892   3.194   6.601
28497WAT      O85732   6.787   3.318   2.592
28497WAT     H185733   6.767   3.298   2.688
28497WAT     H285734   6.852   3.394   2.586
28498WAT      O85735   3.660   1.163   6.442
28498WAT     H185736   3.582   1.120   6.488
28498WAT     H285737   3.658   1.262   6.458
28499WAT      O85738   4.269   4.671   7.443
28499WAT     H185739   4.326   4.633   7.371
28499WAT     H285740   4.174   4.640   7.431
28500WAT      O85741   7.596   9.155   9.210
28500WAT     H185742   7.636   9.151   9.118
28500WAT     H285743   7.549   9.068   9.229
28501WAT      O85744   5.227   2.067   6.806
28501WAT     H185745   5.219   1.993   6.739
28501WAT     H285746   5.149   2.129   6.796
28502WAT      O85747   3.096   3.181   0.401
28502WAT     H185748   3.038   3.142   0.329
28502WAT     H285749   3.158   3.110   0.435
28503WAT      O85750   9.127   0.079   6.926
28503WAT     H185751   9.100  -0.010   6.889
28503WAT     H285752   9.073   0.151   6.882
28504WAT      O85753   2.158   1.059   3.774
28504WAT     H185754   2.102   0.977   3.779
28504WAT     H285755   2.186   1.075   3.679
28505WAT      O85756   6.702   8.634   3.075
28505WAT     H185757   6.753   8.564   3.125
28505WAT     H285758   6.687   8.713   3.133
28506WAT      O85759   5.157   1.827   8.014
28506WAT     H185760   5.147   1.804   8.111
28506WAT     H285761   5.254   1.821   7.988
28507WAT      O85762   5.913   1.003   9.876
28507WAT     H185763   5.833   0.946   9.891
28507WAT     H285764   5.995   0.953   9.904
28508WAT      O85765   4.928   3.484   9.627
28508WAT     H185766   5.006   3.431   9.593
28508WAT     H285767   4.851   3.474   9.565
28509WAT      O85768   6.983   7.617   5.427
28509WAT     H185769   6.963   7.654   5.337
28509WAT     H285770   6.900   7.619   5.483
28510WAT      O85771   2.115   0.410   2.581
28510WAT     H185772   2.037   0.433   2.639
28510WAT     H285773   2.110   0.314   2.553
28511WAT      O85774   0.501   3.406   2.584
28511WAT     H185775   0.496   3.306   2.595
28511WAT     H285776   0.594   3.432   2.561
28512WAT      O85777   2.456   3.850   0.982
28512WAT     H185778   2.365   3.816   1.007
28512WAT     H285779   2.501   3.784   0.922
28513WAT      O85780   5.262   5.074   9.212
28513WAT     H185781   5.165   5.073   9.235
28513WAT     H285782   5.310   5.138   9.272
28514WAT      O85783   9.535   7.648   5.523
28514WAT     H185784   9.542   7.571   5.586
28514WAT     H285785   9.627   7.678   5.495
28515WAT      O85786   6.066   6.555   3.966
28515WAT     H185787   6.165   6.558   3.979
28515WAT     H285788   6.021   6.605   4.041
28516WAT      O85789   1.109   8.437   1.033
28516WAT     H185790   1.189   8.405   1.084
28516WAT     H285791   1.031   8.443   1.095
28517WAT      O85792   0.064   2.357   6.981
28517WAT     H185793   0.019   2.352   6.892
28517WAT     H285794   0.161   2.378   6.968
28518WAT      O85795   2.152   4.451   4.433
28518WAT     H185796   2.099   4.368   4.452
28518WAT     H285797   2.218   4.432   4.360
28519WAT      O85798   1.957   6.196   0.908
28519WAT     H185799   2.006   6.276   0.942
28519WAT     H285800   1.860   6.218   0.896
28520WAT      O85801   0.719   1.910   0.290
28520WAT     H185802   0.775   1.973   0.343
28520WAT     H285803   0.767   1.823   0.278
28521WAT      O85804   7.133   3.009   1.631
28521WAT     H185805   7.054   2.947   1.631
28521WAT     H285806   7.216   2.958   1.608
28522WAT      O85807   3.663   2.021   3.287
28522WAT     H185808   3.584   2.008   3.347
28522WAT     H285809   3.632   2.035   3.193
28523WAT      O85810   7.810   8.099   1.764
28523WAT     H185811   7.766   8.187   1.781
28523WAT     H285812   7.846   8.063   1.850
28524WAT      O85813   7.887   6.689   6.746
28524WAT     H185814   7.914   6.725   6.656
28524WAT     H285815   7.935   6.603   6.764
28525WAT      O85816   8.278   2.886   9.392
28525WAT     H185817   8.333   2.857   9.470
28525WAT     H285818   8.227   2.969   9.415
28526WAT      O85819   7.377   7.924   6.267
28526WAT     H185820   7.397   8.003   6.325
28526WAT     H285821   7.462   7.888   6.229
28527WAT      O85822   0.465   3.185   0.014
28527WAT     H185823   0.445   3.112   0.079
28527WAT     H285824   0.564   3.195   0.004
28528WAT      O85825   0.105   6.965   2.016
28528WAT     H185826   0.104   6.868   2.038
28528WAT     H285827   0.018   6.990   1.974
28529WAT      O85828   8.437   8.007   9.614
28529WAT     H185829   8.472   7.918   9.584
28529WAT     H285830   8.339   8.011   9.599
28530WAT      O85831   5.970   6.724   1.123
28530WAT     H185832   6.030   6.803   1.107
28530WAT     H285833   5.942   6.686   1.034
28531WAT      O85834   7.296   5.515   5.896
28531WAT     H185835   7.368   5.572   5.934
28531WAT     H285836   7.333   5.426   5.870
28532WAT      O85837   2.300   4.316   7.724
28532WAT     H185838   2.241   4.250   7.677
28532WAT     H285839   2.302   4.295   7.822
28533WAT      O85840   1.652   8.937   2.080
28533WAT     H185841   1.596   8.915   2.160
28533WAT     H285842   1.737   8.884   2.083
28534WAT      O85843   8.931   7.270   5.656
28534WAT     H185844   8.851   7.274   5.596
28534WAT     H285845   9.014   7.274   5.600
28535WAT      O85846   3.872   4.372   6.640
28535WAT     H185847   3.943   4.441   6.630
28535WAT     H285848   3.911   4.281   6.630
28536WAT      O85849   9.037   6.082   8.210
28536WAT     H185850   9.094   6.144   8.263
28536WAT     H285851   9.030   6.114   8.116
28537WAT      O85852   3.935   2.609   0.124
28537WAT     H185853   3.939   2.685   0.189
28537WAT     H285854   3.962   2.641   0.033
28538WAT      O85855   3.742   1.340   1.963
28538WAT     H185856   3.769   1.382   2.049
28538WAT     H285857   3.663   1.388   1.925
28539WAT      O85858   5.351   2.638   5.022
28539WAT     H185859   5.319   2.733   5.015
28539WAT     H285860   5.406   2.616   4.941
28540WAT      O85861   0.355   2.607   0.999
28540WAT     H185862   0.363   2.541   0.924
28540WAT     H285863   0.258   2.627   1.014
28541WAT      O85864   9.729   0.359   3.113
28541WAT     H185865   9.673   0.435   3.080
28541WAT     H285866   9.723   0.283   3.048
28542WAT      O85867   5.463   9.506   2.174
28542WAT     H185868   5.503   9.580   2.227
28542WAT     H285869   5.533   9.463   2.117
28543WAT      O85870   5.610   3.224   9.195
28543WAT     H185871   5.670   3.149   9.223
28543WAT     H285872   5.613   3.297   9.264
28544WAT      O85873   5.802   5.016   6.650
28544WAT     H185874   5.871   5.086   6.636
28544WAT     H285875   5.786   5.004   6.748
28545WAT      O85876   9.803   8.907   4.005
28545WAT     H185877   9.898   8.896   4.034
28545WAT     H285878   9.780   9.004   4.007
28546WAT      O85879   5.735   4.430   7.714
28546WAT     H185880   5.826   4.463   7.689
28546WAT     H285881   5.731   4.331   7.706
28547WAT      O85882   0.170   8.864   1.421
28547WAT     H185883   0.221   8.837   1.339
28547WAT     H285884   0.074   8.839   1.411
28548WAT      O85885   6.054   6.725   7.483
28548WAT     H185886   6.085   6.733   7.388
28548WAT     H285887   6.117   6.668   7.534
28549WAT      O85888   7.020   5.346   7.829
28549WAT     H185889   6.924   5.374   7.838
28549WAT     H285890   7.024   5.255   7.788
28550WAT      O85891   0.852   7.813   0.011
28550WAT     H185892   0.772   7.782  -0.040
28550WAT     H285893   0.826   7.830   0.106
28551WAT      O85894   6.970   7.896   8.916
28551WAT     H185895   7.001   7.980   8.960
28551WAT     H285896   6.899   7.918   8.849
28552WAT      O85897   5.799   1.550   2.885
28552WAT     H185898   5.867   1.599   2.832
28552WAT     H285899   5.838   1.463   2.918
28553WAT      O85900   1.491   8.627   5.383
28553WAT     H185901   1.476   8.699   5.452
28553WAT     H285902   1.447   8.654   5.298
28554WAT      O85903   3.968   1.954   1.964
28554WAT     H185904   4.000   1.864   1.933
28554WAT     H285905   3.998   1.970   2.058
28555WAT      O85906   4.047   4.959   2.104
28555WAT     H185907   4.114   5.031   2.124
28555WAT     H285908   4.084   4.871   2.131
28556WAT      O85909   0.024   1.608   2.635
28556WAT     H185910   0.056   1.630   2.543
28556WAT     H285911  -0.036   1.528   2.631
28557WAT      O85912   8.759   1.884   5.835
28557WAT     H185913   8.758   1.801   5.891
28557WAT     H285914   8.696   1.873   5.758
28558WAT      O85915   6.583   8.380   9.569
28558WAT     H185916   6.510   8.319   9.602
28558WAT     H285917   6.666   8.328   9.553
28559WAT      O85918   8.538   7.895   2.041
28559WAT     H185919   8.544   7.885   1.942
28559WAT     H285920   8.446   7.926   2.066
28560WAT      O85921   4.531   3.211   7.846
28560WAT     H185922   4.570   3.149   7.913
28560WAT     H285923   4.529   3.304   7.884
28561WAT      O85924   7.810   9.301   1.584
28561WAT     H185925   7.783   9.397   1.591
28561WAT     H285926   7.906   9.291   1.609
28562WAT      O85927   8.642   3.378   0.849
28562WAT     H185928   8.597   3.460   0.814
28562WAT     H285929   8.739   3.398   0.866
28563WAT      O85930   7.006   1.885   9.731
28563WAT     H185931   7.036   1.796   9.696
28563WAT     H285932   7.073   1.955   9.705
28564WAT      O85933   7.731   9.738   3.112
28564WAT     H185934   7.752   9.705   3.021
28564WAT     H285935   7.787   9.819   3.132
28565WAT      O85936   7.008   4.353   7.912
28565WAT     H185937   7.091   4.406   7.895
28565WAT     H285938   6.996   4.286   7.839
28566WAT      O85939   0.430   8.899   0.757
28566WAT     H185940   0.380   8.918   0.841
28566WAT     H285941   0.527   8.917   0.771
28567WAT      O85942   1.962   6.621   7.154
28567WAT     H185943   1.960   6.721   7.145
28567WAT     H285944   1.888   6.581   7.100
28568WAT      O85945   8.171   0.601   4.326
28568WAT     H185946   8.216   0.670   4.269
28568WAT     H285947   8.157   0.638   4.418
28569WAT      O85948   5.152   7.460   7.251
28569WAT     H185949   5.085   7.464   7.326
28569WAT     H285950   5.241   7.488   7.285
28570WAT      O85951   8.627   4.819   0.286
28570WAT     H185952   8.627   4.722   0.260
28570WAT     H285953   8.702   4.865   0.238
28571WAT      O85954   8.360   4.563   7.011
28571WAT     H185955   8.279   4.577   7.068
28571WAT     H285956   8.381   4.465   7.006
28572WAT      O85957   9.166   4.511   5.923
28572WAT     H185958   9.192   4.415   5.937
28572WAT     H285959   9.194   4.539   5.831
28573WAT      O85960   7.458   2.009   6.705
28573WAT     H185961   7.466   2.062   6.621
28573WAT     H285962   7.427   2.069   6.779
28574WAT      O85963   5.712   1.284   1.426
28574WAT     H185964   5.747   1.276   1.519
28574WAT     H285965   5.739   1.204   1.373
28575WAT      O85966   1.797   8.373   0.067
28575WAT     H185967   1.768   8.311   0.140
28575WAT     H285968   1.789   8.467   0.098
28576WAT      O85969   9.550   5.328   9.048
28576WAT     H185970   9.604   5.410   9.066
28576WAT     H285971   9.492   5.343   8.968
28577WAT      O85972   3.979   5.584   4.476
28577WAT     H185973   4.003   5.488   4.460
28577WAT     H285974   4.033   5.619   4.553
28578WAT      O85975   9.814   8.643   0.563
28578WAT     H185976   9.825   8.574   0.491
28578WAT     H285977   9.822   8.599   0.652
28579WAT      O85978   0.252   3.879   7.763
28579WAT     H185979   0.345   3.847   7.784
28579WAT     H285980   0.186   3.810   7.794
28580WAT      O85981   9.700   3.996   1.189
28580WAT     H185982   9.602   3.999   1.169
28580WAT     H285983   9.749   3.966   1.107
28581WAT      O85984   0.831   5.761   3.309
28581WAT     H185985   0.873   5.702   3.378
28581WAT     H285986   0.870   5.739   3.219
28582WAT      O85987   4.616   7.057   4.164
28582WAT     H185988   4.540   7.104   4.119
28582WAT     H285989   4.667   7.004   4.097
28583WAT      O85990   4.477   6.607   0.664
28583WAT     H185991   4.554   6.671   0.669
28583WAT     H285992   4.393   6.658   0.645
28584WAT      O85993   7.711   1.657   9.599
28584WAT     H185994   7.652   1.720   9.549
28584WAT     H285995   7.657   1.579   9.631
28585WAT      O85996   1.582   5.762   9.370
28585WAT     H185997   1.630   5.674   9.376
28585WAT     H285998   1.520   5.771   9.448
28586WAT      O85999   1.391   9.162   2.224
28586WAT     H186000   1.490   9.167   2.240
28586WAT     H286001   1.344   9.150   2.311
28587WAT      O86002   7.449   6.987   1.441
28587WAT     H186003   7.449   7.083   1.467
28587WAT     H286004   7.455   6.979   1.342
28588WAT      O86005   0.327   5.255   5.494
28588WAT     H186006   0.316   5.353   5.477
28588WAT     H286007   0.419   5.237   5.526
28589WAT      O86008   2.919   6.723   8.642
28589WAT     H186009   2.921   6.626   8.664
28589WAT     H286010   2.889   6.774   8.723
28590WAT      O86011   3.861   6.686   6.908
28590WAT     H186012   3.930   6.622   6.876
28590WAT     H286013   3.883   6.778   6.874
28591WAT      O86014   8.443   9.537   6.406
28591WAT     H186015   8.531   9.548   6.453
28591WAT     H286016   8.368   9.549   6.472
28592WAT      O86017   0.624   8.729   7.537
28592WAT     H186018   0.534   8.771   7.525
28592WAT     H286019   0.627   8.643   7.486
28593WAT      O86020   4.826   3.107   5.625
28593WAT     H186021   4.906   3.163   5.602
28593WAT     H286022   4.853   3.038   5.693
28594WAT      O86023   2.340   3.743   9.679
28594WAT     H186024   2.430   3.741   9.723
28594WAT     H286025   2.342   3.807   9.602
28595WAT      O86026   5.075   8.231   0.562
28595WAT     H186027   5.010   8.155   0.572
28595WAT     H286028   5.101   8.240   0.466
28596WAT      O86029   2.875   8.493   0.468
28596WAT     H186030   2.936   8.493   0.389
28596WAT     H286031   2.809   8.418   0.459
28597WAT      O86032   7.213   4.109   8.200
28597WAT     H186033   7.132   4.167   8.191
28597WAT     H286034   7.250   4.089   8.110
28598WAT      O86035   6.733   2.703   3.603
28598WAT     H186036   6.645   2.694   3.651
28598WAT     H286037   6.766   2.797   3.612
28599WAT      O86038   6.287   6.475   3.497
28599WAT     H186039   6.329   6.393   3.537
28599WAT     H286040   6.232   6.521   3.567
28600WAT      O86041   8.309   0.001   5.975
28600WAT     H186042   8.331  -0.062   6.049
28600WAT     H286043   8.349   0.091   5.994
28601WAT      O86044   9.856   7.606   0.389
28601WAT     H186045   9.890   7.516   0.417
28601WAT     H286046   9.792   7.595   0.313
28602WAT      O86047   2.687   2.529   8.703
28602WAT     H186048   2.618   2.488   8.763
28602WAT     H286049   2.641   2.575   8.627
28603WAT      O86050   3.200   3.002   7.003
28603WAT     H186051   3.131   3.051   6.950
28603WAT     H286052   3.155   2.934   7.061
28604WAT      O86053   8.774   8.823   9.453
28604WAT     H186054   8.812   8.898   9.399
28604WAT     H286055   8.841   8.748   9.457
28605WAT      O86056   6.689   6.640   3.430
28605WAT     H186057   6.697   6.541   3.438
28605WAT     H286058   6.751   6.684   3.496
28606WAT      O86059   8.139   7.632   9.166
28606WAT     H186060   8.175   7.540   9.154
28606WAT     H286061   8.171   7.691   9.092
28607WAT      O86062   7.756   7.766   8.310
28607WAT     H186063   7.750   7.791   8.406
28607WAT     H286064   7.698   7.686   8.292
28608WAT      O86065   7.899   2.970   5.923
28608WAT     H186066   7.902   3.067   5.948
28608WAT     H286067   7.872   2.962   5.827
28609WAT      O86068   2.567   7.336   8.914
28609WAT     H186069   2.514   7.282   8.847
28609WAT     H286070   2.551   7.433   8.898
28610WAT      O86071   1.809   5.255   3.032
28610WAT     H186072   1.815   5.267   2.933
28610WAT     H286073   1.869   5.320   3.077
28611WAT      O86074   5.498   8.538   3.294
28611WAT     H186075   5.450   8.623   3.275
28611WAT     H286076   5.506   8.525   3.393
28612WAT      O86077   2.844   1.720   0.882
28612WAT     H186078   2.852   1.709   0.783
28612WAT     H286079   2.811   1.812   0.903
28613WAT      O86080   4.695   2.207   1.333
28613WAT     H186081   4.638   2.279   1.293
28613WAT     H286082   4.691   2.126   1.275
28614WAT      O86083   9.830   1.737   1.870
28614WAT     H186084   9.782   1.812   1.824
28614WAT     H286085   9.885   1.687   1.804
28615WAT      O86086   8.137   7.911   3.263
28615WAT     H186087   8.196   7.987   3.237
28615WAT     H286088   8.151   7.835   3.200
28616WAT      O86089   1.086   7.979   6.647
28616WAT     H186090   1.128   8.037   6.577
28616WAT     H286091   1.099   8.020   6.737
28617WAT      O86092   7.496   3.509   8.800
28617WAT     H186093   7.508   3.485   8.897
28617WAT     H286094   7.509   3.427   8.744
28618WAT      O86095   4.441   1.502   6.780
28618WAT     H186096   4.517   1.441   6.801
28618WAT     H286097   4.424   1.502   6.682
28619WAT      O86098   1.371   7.384   7.810
28619WAT     H186099   1.295   7.440   7.842
28619WAT     H286100   1.349   7.348   7.719
28620WAT      O86101   8.201   8.426   7.781
28620WAT     H186102   8.206   8.338   7.733
28620WAT     H286103   8.250   8.419   7.868
28621WAT      O86104   3.158   1.234   2.269
28621WAT     H186105   3.132   1.319   2.315
28621WAT     H286106   3.227   1.186   2.324
28622WAT      O86107   5.288   0.524   4.490
28622WAT     H186108   5.334   0.493   4.573
28622WAT     H286109   5.306   0.621   4.476
28623WAT      O86110   3.524   8.630   9.656
28623WAT     H186111   3.565   8.591   9.739
28623WAT     H286112   3.447   8.574   9.627
28624WAT      O86113   1.029   1.294   4.281
28624WAT     H186114   0.964   1.272   4.208
28624WAT     H286115   0.989   1.361   4.343
28625WAT      O86116   9.033   1.112   3.313
28625WAT     H186117   9.120   1.151   3.285
28625WAT     H286118   8.978   1.183   3.357
28626WAT      O86119   7.296   5.908   9.673
28626WAT     H186120   7.385   5.876   9.642
28626WAT     H286121   7.228   5.835   9.662
28627WAT      O86122   6.115   8.830   9.659
28627WAT     H186123   6.065   8.894   9.602
28627WAT     H286124   6.191   8.791   9.607
28628WAT      O86125   5.707   9.504   3.798
28628WAT     H186126   5.789   9.517   3.854
28628WAT     H286127   5.627   9.499   3.858
28629WAT      O86128   4.816   0.549   1.286
28629WAT     H186129   4.773   0.603   1.357
28629WAT     H286130   4.803   0.451   1.305
28630WAT      O86131   0.741   6.828   1.533
28630WAT     H186132   0.716   6.813   1.629
28630WAT     H286133   0.830   6.873   1.529
28631WAT      O86134   8.643   1.742   2.974
28631WAT     H186135   8.588   1.823   2.951
28631WAT     H286136   8.706   1.765   3.047
28632WAT      O86137   1.109   0.319   8.129
28632WAT     H186138   1.171   0.340   8.205
28632WAT     H286139   1.133   0.376   8.051
28633WAT      O86140   1.346   6.576   8.315
28633WAT     H186141   1.291   6.660   8.308
28633WAT     H286142   1.324   6.516   8.238
28634WAT      O86143   6.647   3.546   6.657
28634WAT     H186144   6.736   3.505   6.677
28634WAT     H286145   6.607   3.581   6.742
28635WAT      O86146   8.969   6.799   5.150
28635WAT     H186147   9.047   6.750   5.190
28635WAT     H286148   8.885   6.749   5.171
28636WAT      O86149   3.193   4.002   6.558
28636WAT     H186150   3.102   4.017   6.519
28636WAT     H286151   3.254   3.965   6.488
28637WAT      O86152   5.753   5.999   1.551
28637WAT     H186153   5.731   5.911   1.509
28637WAT     H286154   5.715   6.003   1.643
28638WAT      O86155   4.889   4.564   7.915
28638WAT     H186156   4.854   4.657   7.905
28638WAT     H286157   4.833   4.514   7.981
28639WAT      O86158   6.069   0.692   3.756
28639WAT     H186159   6.053   0.778   3.708
28639WAT     H286160   6.105   0.624   3.693
28640WAT      O86161   5.528   7.920   3.666
28640WAT     H186162   5.598   7.880   3.607
28640WAT     H286163   5.437   7.893   3.633
28641WAT      O86164   0.119   1.440   2.079
28641WAT     H186165   0.043   1.384   2.046
28641WAT     H286166   0.179   1.384   2.137
28642WAT      O86167   8.519   2.015   4.315
28642WAT     H186168   8.476   1.951   4.251
28642WAT     H286169   8.524   1.974   4.406
28643WAT      O86170   2.252   9.400   6.829
28643WAT     H186171   2.250   9.403   6.929
28643WAT     H286172   2.347   9.385   6.799
28644WAT      O86173   6.191   0.556   4.214
28644WAT     H186174   6.128   0.565   4.137
28644WAT     H286175   6.160   0.612   4.291
28645WAT      O86176   4.807   8.343   0.096
28645WAT     H186177   4.830   8.305   0.006
28645WAT     H286178   4.709   8.334   0.112
28646WAT      O86179   4.981   8.334   1.285
28646WAT     H186180   4.924   8.252   1.276
28646WAT     H286181   4.948   8.390   1.361
28647WAT      O86182   4.515   1.735   7.297
28647WAT     H186183   4.457   1.817   7.298
28647WAT     H286184   4.565   1.729   7.384
28648WAT      O86185   0.215   6.168   9.802
28648WAT     H186186   0.151   6.154   9.727
28648WAT     H286187   0.164   6.179   9.888
28649WAT      O86188   7.972   7.261   6.076
28649WAT     H186189   8.051   7.205   6.049
28649WAT     H286190   8.003   7.335   6.136
28650WAT      O86191   2.194   5.772   7.879
28650WAT     H186192   2.186   5.854   7.822
28650WAT     H286193   2.252   5.705   7.833
28651WAT      O86194   4.637   4.852   1.996
28651WAT     H186195   4.549   4.898   1.995
28651WAT     H286196   4.656   4.814   1.905
28652WAT      O86197   2.027   8.980   9.723
28652WAT     H186198   1.935   8.996   9.686
28652WAT     H286199   2.019   8.947   9.817
28653WAT      O86200   6.725   0.279   6.504
28653WAT     H186201   6.818   0.266   6.468
28653WAT     H286202   6.661   0.225   6.449
28654WAT      O86203   9.308   8.278   3.342
28654WAT     H186204   9.221   8.283   3.294
28654WAT     H286205   9.330   8.368   3.380
28655WAT      O86206   0.727   8.720   6.928
28655WAT     H186207   0.666   8.799   6.922
28655WAT     H286208   0.675   8.641   6.961
28656WAT      O86209   4.228   2.194   7.305
28656WAT     H186210   4.223   2.219   7.209
28656WAT     H286211   4.245   2.276   7.360
28657WAT      O86212   3.501   9.066   4.582
28657WAT     H186213   3.472   9.146   4.635
28657WAT     H286214   3.468   9.075   4.488
28658WAT      O86215   3.544   0.727   2.614
28658WAT     H186216   3.447   0.709   2.598
28658WAT     H286217   3.597   0.702   2.533
28659WAT      O86218   4.064   2.859   2.171
28659WAT     H186219   3.996   2.806   2.221
28659WAT     H286220   4.085   2.814   2.084
28660WAT      O86221   6.204   4.799   7.991
28660WAT     H186222   6.280   4.735   8.006
28660WAT     H286223   6.120   4.759   8.027
28661WAT      O86224   4.913   4.842   2.067
28661WAT     H186225   4.939   4.751   2.100
28661WAT     H286226   4.813   4.851   2.070
28662WAT      O86227   1.211   1.986   9.089
28662WAT     H186228   1.150   2.049   9.040
28662WAT     H286229   1.161   1.902   9.111
28663WAT      O86230   9.767   3.939   7.652
28663WAT     H186231   9.769   3.894   7.741
28663WAT     H286232   9.675   3.934   7.614
28664WAT      O86233   4.180   2.068   1.112
28664WAT     H186234   4.223   2.153   1.081
28664WAT     H286235   4.182   2.001   1.038
28665WAT      O86236   4.440   0.131   2.677
28665WAT     H186237   4.516   0.183   2.715
28665WAT     H286238   4.354   0.162   2.717
28666WAT      O86239   1.315   9.162   4.845
28666WAT     H186240   1.357   9.075   4.872
28666WAT     H286241   1.270   9.151   4.756
28667WAT      O86242   3.503   2.948   5.317
28667WAT     H186243   3.502   3.039   5.277
28667WAT     H286244   3.412   2.925   5.351
28668WAT      O86245   3.597   7.537   9.697
28668WAT     H186246   3.636   7.550   9.788
28668WAT     H286247   3.505   7.576   9.694
28669WAT      O86248   2.679   9.588   7.595
28669WAT     H186249   2.621   9.553   7.668
28669WAT     H286250   2.716   9.677   7.620
28670WAT      O86251   6.590   8.295   1.805
28670WAT     H186252   6.611   8.256   1.894
28670WAT     H286253   6.619   8.391   1.803
28671WAT      O86254   2.482   9.197   5.994
28671WAT     H186255   2.500   9.123   5.930
28671WAT     H286256   2.480   9.284   5.945
28672WAT      O86257   5.275   0.925   4.968
28672WAT     H186258   5.332   0.884   5.040
28672WAT     H286259   5.248   0.854   4.903
28673WAT      O86260   0.155   5.741   8.860
28673WAT     H186261   0.248   5.724   8.829
28673WAT     H286262   0.141   5.840   8.871
28674WAT      O86263   1.087   0.989   6.489
28674WAT     H186264   1.146   0.992   6.570
28674WAT     H286265   1.029   0.908   6.494
28675WAT      O86266   7.781   7.950   3.813
28675WAT     H186267   7.820   7.861   3.789
28675WAT     H286268   7.684   7.952   3.788
28676WAT      O86269   5.846   2.288   3.591
28676WAT     H186270   5.928   2.316   3.541
28676WAT     H286271   5.869   2.220   3.660
28677WAT      O86272   1.875   4.427   7.948
28677WAT     H186273   1.954   4.439   7.887
28677WAT     H286274   1.794   4.467   7.906
28678WAT      O86275   6.516   0.976   1.616
28678WAT     H186276   6.470   1.013   1.535
28678WAT     H286277   6.610   0.951   1.592
28679WAT      O86278   0.032   7.813   7.284
28679WAT     H186279   0.023   7.723   7.241
28679WAT     H286280   0.114   7.814   7.341
28680WAT      O86281   3.804   5.044   1.325
28680WAT     H186282   3.726   5.102   1.350
28680WAT     H286283   3.809   4.965   1.386
28681WAT      O86284   7.187   5.592   8.407
28681WAT     H186285   7.229   5.530   8.340
28681WAT     H286286   7.091   5.605   8.383
28682WAT      O86287   6.067   9.277   4.585
28682WAT     H186288   6.006   9.317   4.654
28682WAT     H286289   6.025   9.196   4.546
28683WAT      O86290   0.012   7.754   1.261
28683WAT     H186291   0.098   7.748   1.312
28683WAT     H286292  -0.003   7.669   1.212
28684WAT      O86293   4.297   3.944   9.110
28684WAT     H186294   4.227   3.894   9.161
28684WAT     H286295   4.256   4.023   9.065
28685WAT      O86296   4.111   8.180   4.186
28685WAT     H186297   4.204   8.207   4.212
28685WAT     H286298   4.114   8.121   4.106
28686WAT      O86299   1.803   6.533   5.492
28686WAT     H186300   1.864   6.480   5.432
28686WAT     H286301   1.820   6.508   5.587
28687WAT      O86302   8.573   4.629   3.281
28687WAT     H186303   8.615   4.714   3.250
28687WAT     H286304   8.619   4.551   3.239
28688WAT      O86305   2.832   6.240   8.481
28688WAT     H186306   2.739   6.251   8.446
28688WAT     H286307   2.898   6.268   8.411
28689WAT      O86308   2.372   1.027   8.734
28689WAT     H186309   2.285   1.039   8.687
28689WAT     H286310   2.440   1.088   8.694
28690WAT      O86311   4.347   8.992   1.340
28690WAT     H186312   4.319   9.075   1.388
28690WAT     H286313   4.300   8.913   1.379
28691WAT      O86314   8.665   0.154   2.366
28691WAT     H186315   8.651   0.063   2.404
28691WAT     H286316   8.754   0.189   2.395
28692WAT      O86317   1.054   7.757   6.467
28692WAT     H186318   1.076   7.823   6.539
28692WAT     H286319   0.959   7.768   6.440
28693WAT      O86320   9.606   7.681   7.453
28693WAT     H186321   9.585   7.704   7.358
28693WAT     H286322   9.612   7.582   7.462
28694WAT      O86323   9.834   7.054   2.906
28694WAT     H186324   9.783   7.140   2.915
28694WAT     H286325   9.924   7.065   2.947
28695WAT      O86326   2.076   3.114   5.673
28695WAT     H186327   2.158   3.143   5.625
28695WAT     H286328   2.067   3.015   5.669
28696WAT      O86329   1.170   5.697   3.932
28696WAT     H186330   1.101   5.706   4.004
28696WAT     H286331   1.256   5.665   3.971
28697WAT      O86332   7.846   8.905   5.927
28697WAT     H186333   7.757   8.949   5.942
28697WAT     H286334   7.834   8.827   5.865
28698WAT      O86335   5.993   7.427   6.843
28698WAT     H186336   5.979   7.495   6.915
28698WAT     H286337   6.002   7.474   6.755
28699WAT      O86338   8.427   2.080   2.159
28699WAT     H186339   8.371   2.147   2.208
28699WAT     H286340   8.378   1.993   2.154
28700WAT      O86341   9.204   6.509   9.549
28700WAT     H186342   9.270   6.435   9.565
28700WAT     H286343   9.235   6.565   9.472
28701WAT      O86344   9.840   9.109   5.911
28701WAT     H186345   9.916   9.046   5.922
28701WAT     H286346   9.865   9.181   5.847
28702WAT      O86347   2.556   9.184   7.810
28702WAT     H186348   2.549   9.240   7.728
28702WAT     H286349   2.623   9.223   7.872
28703WAT      O86350   3.848   3.213   5.604
28703WAT     H186351   3.887   3.223   5.695
28703WAT     H286352   3.784   3.288   5.587
28704WAT      O86353   6.557   7.324   7.882
28704WAT     H186354   6.628   7.359   7.943
28704WAT     H286355   6.600   7.281   7.803
28705WAT      O86356   3.844   5.445   6.924
28705WAT     H186357   3.833   5.431   6.825
28705WAT     H286358   3.911   5.379   6.959
28706WAT      O86359   8.133   7.390   6.252
28706WAT     H186360   8.053   7.446   6.274
28706WAT     H286361   8.147   7.322   6.324
28707WAT      O86362   4.004   6.260   8.570
28707WAT     H186363   4.023   6.332   8.504
28707WAT     H286364   3.949   6.189   8.526
28708WAT      O86365   8.513   5.647   6.193
28708WAT     H186366   8.599   5.691   6.164
28708WAT     H286367   8.507   5.649   6.293
28709WAT      O86368   4.870   0.303   5.385
28709WAT     H186369   4.912   0.284   5.297
28709WAT     H286370   4.772   0.285   5.380
28710WAT      O86371   1.037   1.134   4.801
28710WAT     H186372   1.111   1.107   4.739
28710WAT     H286373   1.074   1.150   4.892
28711WAT      O86374   6.572   9.222   7.479
28711WAT     H186375   6.522   9.150   7.528
28711WAT     H286376   6.670   9.213   7.499
28712WAT      O86377   1.686   4.611   4.597
28712WAT     H186378   1.635   4.685   4.555
28712WAT     H286379   1.784   4.623   4.579
28713WAT      O86380   2.770   5.504   0.939
28713WAT     H186381   2.671   5.489   0.949
28713WAT     H286382   2.818   5.455   1.011
28714WAT      O86383   9.537   3.577   7.124
28714WAT     H186384   9.584   3.535   7.047
28714WAT     H286385   9.550   3.676   7.120
28715WAT      O86386   4.534   5.004   4.154
28715WAT     H186387   4.442   4.970   4.173
28715WAT     H286388   4.527   5.095   4.113
28716WAT      O86389   8.178   1.738   2.903
28716WAT     H186390   8.212   1.737   2.808
28716WAT     H286391   8.229   1.807   2.955
28717WAT      O86392   2.911   8.082   2.051
28717WAT     H186393   2.877   7.988   2.048
28717WAT     H286394   2.856   8.139   1.991
28718WAT      O86395   6.385   3.240   0.789
28718WAT     H186396   6.374   3.151   0.833
28718WAT     H286397   6.454   3.233   0.717
28719WAT      O86398   6.202   2.616   7.156
28719WAT     H186399   6.113   2.575   7.136
28719WAT     H286400   6.219   2.612   7.255
28720WAT      O86401   6.932   4.546   9.516
28720WAT     H186402   6.906   4.584   9.427
28720WAT     H286403   7.029   4.564   9.532
28721WAT      O86404   2.114   0.892   9.355
28721WAT     H186405   2.073   0.869   9.443
28721WAT     H286406   2.125   0.809   9.301
28722WAT      O86407   2.619   3.619   4.527
28722WAT     H186408   2.603   3.662   4.616
28722WAT     H286409   2.717   3.604   4.514
28723WAT      O86410   7.967   5.224   0.070
28723WAT     H186411   7.908   5.144   0.059
28723WAT     H286412   7.972   5.275  -0.016
28724WAT      O86413   7.874   7.731   0.355
28724WAT     H186414   7.936   7.694   0.285
28724WAT     H286415   7.787   7.754   0.313
28725WAT      O86416   2.318   2.121   6.304
28725WAT     H186417   2.327   2.153   6.399
28725WAT     H286418   2.406   2.134   6.257
28726WAT      O86419   0.460   1.949   2.191
28726WAT     H186420   0.449   1.885   2.115
28726WAT     H286421   0.494   2.037   2.156
28727WAT      O86422   6.896   8.862   0.134
28727WAT     H186423   6.825   8.802   0.096
28727WAT     H286424   6.974   8.865   0.072
28728WAT      O86425   6.056   1.348   7.094
28728WAT     H186426   6.083   1.268   7.148
28728WAT     H286427   5.971   1.386   7.130
28729WAT      O86428   8.314   7.897   7.670
28729WAT     H186429   8.410   7.912   7.646
28729WAT     H286430   8.279   7.818   7.621
28730WAT      O86431   3.022   6.849   6.607
28730WAT     H186432   3.007   6.947   6.621
28730WAT     H286433   3.047   6.806   6.694
28731WAT      O86434   1.784   3.629   9.450
28731WAT     H186435   1.750   3.535   9.461
28731WAT     H286436   1.861   3.628   9.386
28732WAT      O86437   5.240   0.059   3.392
28732WAT     H186438   5.196   0.065   3.302
28732WAT     H286439   5.291  -0.027   3.399
28733WAT      O86440   7.892   7.361   4.049
28733WAT     H186441   7.855   7.310   3.970
28733WAT     H286442   7.944   7.298   4.107
28734WAT      O86443   8.074   5.516   1.772
28734WAT     H186444   8.038   5.575   1.844
28734WAT     H286445   8.168   5.490   1.794
28735WAT      O86446   8.536   0.704   4.443
28735WAT     H186447   8.467   0.772   4.468
28735WAT     H286448   8.561   0.716   4.347
28736WAT      O86449   9.461   2.886   2.232
28736WAT     H186450   9.479   2.787   2.232
28736WAT     H286451   9.542   2.934   2.267
28737WAT      O86452   9.728   2.977   4.965
28737WAT     H186453   9.697   3.041   4.894
28737WAT     H286454   9.806   3.017   5.013
28738WAT      O86455   2.888   6.433   8.696
28738WAT     H186456   2.858   6.380   8.617
28738WAT     H286457   2.863   6.385   8.780
28739WAT      O86458   0.232   5.298   0.853
28739WAT     H186459   0.260   5.349   0.934
28739WAT     H286460   0.172   5.355   0.797
28740WAT      O86461   4.348   0.466   1.963
28740WAT     H186462   4.268   0.447   2.019
28740WAT     H286463   4.412   0.389   1.968
28741WAT      O86464   3.934   6.987   7.982
28741WAT     H186465   3.999   7.001   8.057
28741WAT     H286466   3.953   6.899   7.939
28742WAT      O86467   4.120   2.915   7.160
28742WAT     H186468   4.217   2.896   7.176
28742WAT     H286469   4.110   2.962   7.072
28743WAT      O86470   3.903   2.893   6.942
28743WAT     H186471   3.877   2.971   6.998
28743WAT     H286472   3.970   2.923   6.873
28744WAT      O86473   2.576   0.425   5.650
28744WAT     H186474   2.513   0.412   5.726
28744WAT     H286475   2.632   0.506   5.667
28745WAT      O86476   5.900   7.759   4.110
28745WAT     H186477   5.831   7.725   4.174
28745WAT     H286478   5.890   7.712   4.022
28746WAT      O86479   0.003   8.175   1.079
28746WAT     H186480  -0.070   8.242   1.093
28746WAT     H286481   0.067   8.208   1.010
28747WAT      O86482   8.369   0.122   4.372
28747WAT     H186483   8.418   0.043   4.335
28747WAT     H286484   8.320   0.168   4.298
28748WAT      O86485   3.488   4.354   2.435
28748WAT     H186486   3.476   4.433   2.496
28748WAT     H286487   3.565   4.372   2.374
28749WAT      O86488   4.048   6.486   6.821
28749WAT     H186489   4.074   6.399   6.863
28749WAT     H286490   4.113   6.509   6.749
28750WAT      O86491   6.644   1.231   9.633
28750WAT     H186492   6.578   1.214   9.706
28750WAT     H286493   6.617   1.181   9.551
28751WAT      O86494   9.131   1.935   9.892
28751WAT     H186495   9.193   1.891   9.957
28751WAT     H286496   9.170   1.931   9.800
28752WAT      O86497   8.360   4.009   5.472
28752WAT     H186498   8.309   3.952   5.537
28752WAT     H286499   8.458   4.002   5.493
28753WAT      O86500   9.527   3.451   7.349
28753WAT     H186501   9.533   3.491   7.257
28753WAT     H286502   9.619   3.443   7.387
28754WAT      O86503   0.031   6.507   0.053
28754WAT     H186504  -0.050   6.556   0.021
28754WAT     H286505   0.094   6.572   0.097
28755WAT      O86506   6.175   8.039   8.723
28755WAT     H186507   6.245   8.106   8.697
28755WAT     H286508   6.128   8.006   8.641
28756WAT      O86509   3.385   1.761   8.070
28756WAT     H186510   3.331   1.817   8.007
28756WAT     H286511   3.352   1.667   8.067
28757WAT      O86512   3.051   6.726   6.214
28757WAT     H186513   3.094   6.756   6.300
28757WAT     H286514   2.952   6.735   6.222
28758WAT      O86515   0.692   6.379   1.416
28758WAT     H186516   0.602   6.388   1.372
28758WAT     H286517   0.680   6.376   1.515
28759WAT      O86518   4.490   9.671   8.470
28759WAT     H186519   4.396   9.667   8.505
28759WAT     H286520   4.549   9.711   8.540
28760WAT      O86521   3.443   2.095   6.657
28760WAT     H186522   3.514   2.099   6.727
28760WAT     H286523   3.353   2.096   6.701
28761WAT      O86524   6.087   1.829   0.837
28761WAT     H186525   6.040   1.741   0.823
28761WAT     H286526   6.185   1.816   0.829
28762WAT      O86527   8.693   6.131   4.854
28762WAT     H186528   8.785   6.135   4.894
28762WAT     H286529   8.629   6.095   4.921
28763WAT      O86530   6.927   6.183   3.634
28763WAT     H186531   6.925   6.260   3.570
28763WAT     H286532   7.020   6.147   3.641
28764WAT      O86533   6.477   8.690   8.494
28764WAT     H186534   6.472   8.790   8.486
28764WAT     H286535   6.564   8.658   8.457
28765WAT      O86536   8.290   7.511   7.143
28765WAT     H186537   8.242   7.599   7.145
28765WAT     H286538   8.312   7.487   7.048
28766WAT      O86539   6.785   3.741   3.692
28766WAT     H186540   6.797   3.816   3.757
28766WAT     H286541   6.690   3.742   3.658
28767WAT      O86542   7.111   6.445   4.965
28767WAT     H186543   7.128   6.477   4.872
28767WAT     H286544   7.066   6.356   4.962
28768WAT      O86545   7.280   4.200   3.200
28768WAT     H186546   7.187   4.200   3.236
28768WAT     H286547   7.292   4.277   3.138
28769WAT      O86548   2.246   4.672   3.142
28769WAT     H186549   2.163   4.696   3.192
28769WAT     H286550   2.254   4.573   3.136
28770WAT      O86551   3.457   6.460   1.955
28770WAT     H186552   3.443   6.376   2.008
28770WAT     H286553   3.455   6.438   1.857
28771WAT      O86554   1.756   3.452   2.799
28771WAT     H186555   1.714   3.363   2.779
28771WAT     H286556   1.818   3.443   2.877
28772WAT      O86557   6.748   5.324   5.587
28772WAT     H186558   6.764   5.401   5.650
28772WAT     H286559   6.740   5.358   5.494
28773WAT      O86560   9.001   4.903   8.839
28773WAT     H186561   9.073   4.860   8.785
28773WAT     H286562   8.947   4.965   8.782
28774WAT      O86563   3.553   3.469   4.054
28774WAT     H186564   3.643   3.488   4.016
28774WAT     H286565   3.563   3.436   4.148
28775WAT      O86566   3.445   2.398   7.810
28775WAT     H186567   3.365   2.386   7.869
28775WAT     H286568   3.512   2.456   7.855
28776WAT      O86569   0.277   3.404   8.953
28776WAT     H186570   0.316   3.312   8.954
28776WAT     H286571   0.295   3.448   9.041
28777WAT      O86572   6.129   6.688   6.535
28777WAT     H186573   6.150   6.750   6.611
28777WAT     H286574   6.030   6.689   6.517
28778WAT      O86575   9.642   7.936   3.020
28778WAT     H186576   9.660   7.908   3.114
28778WAT     H286577   9.657   7.858   2.959
28779WAT      O86578   6.773   9.783   3.396
28779WAT     H186579   6.743   9.703   3.344
28779WAT     H286580   6.865   9.808   3.368
28780WAT      O86581   8.804   9.807   7.796
28780WAT     H186582   8.708   9.819   7.770
28780WAT     H286583   8.861   9.870   7.744
28781WAT      O86584   2.199   6.720   3.315
28781WAT     H186585   2.231   6.640   3.265
28781WAT     H286586   2.150   6.691   3.397
28782WAT      O86587   8.180   6.612   6.433
28782WAT     H186588   8.171   6.523   6.387
28782WAT     H286589   8.275   6.627   6.458
28783WAT      O86590   2.898   9.123   9.641
28783WAT     H186591   2.972   9.058   9.658
28783WAT     H286592   2.935   9.216   9.639
28784WAT      O86593   1.347   0.658   8.322
28784WAT     H186594   1.423   0.720   8.304
28784WAT     H286595   1.298   0.639   8.237
28785WAT      O86596   1.620   0.092   4.087
28785WAT     H186597   1.549   0.148   4.131
28785WAT     H286598   1.580   0.040   4.011
28786WAT      O86599   6.598   0.354   6.212
28786WAT     H186600   6.690   0.350   6.173
28786WAT     H286601   6.575   0.265   6.253
28787WAT      O86602   4.979   7.811   9.126
28787WAT     H186603   4.921   7.759   9.064
28787WAT     H286604   5.073   7.811   9.091
28788WAT      O86605   9.746   5.838   8.465
28788WAT     H186606   9.696   5.913   8.422
28788WAT     H286607   9.718   5.752   8.424
28789WAT      O86608   0.140   4.125   7.096
28789WAT     H186609   0.220   4.181   7.113
28789WAT     H286610   0.061   4.184   7.076
28790WAT      O86611   4.191   5.494   0.501
28790WAT     H186612   4.289   5.497   0.516
28790WAT     H286613   4.158   5.585   0.475
28791WAT      O86614   0.142   0.802   2.311
28791WAT     H186615   0.046   0.824   2.326
28791WAT     H286616   0.196   0.836   2.388
28792WAT      O86617   1.368   0.994   5.658
28792WAT     H186618   1.401   1.041   5.576
28792WAT     H286619   1.269   0.979   5.651
28793WAT      O86620   6.309   6.015   9.253
28793WAT     H186621   6.301   5.922   9.216
28793WAT     H286622   6.217   6.054   9.265
28794WAT      O86623   2.329   5.238   4.179
28794WAT     H186624   2.364   5.329   4.201
28794WAT     H286625   2.309   5.188   4.263
28795WAT      O86626   7.898   6.990   2.175
28795WAT     H186627   7.843   6.962   2.097
28795WAT     H286628   7.986   7.024   2.143
28796WAT      O86629   3.683   1.629   8.603
28796WAT     H186630   3.722   1.541   8.577
28796WAT     H286631   3.598   1.613   8.655
28797WAT      O86632   2.303   9.021   7.477
28797WAT     H186633   2.311   9.052   7.572
28797WAT     H286634   2.392   8.987   7.445
28798WAT      O86635   4.968   0.952   8.243
28798WAT     H186636   5.046   0.986   8.191
28798WAT     H286637   4.888   0.946   8.183
28799WAT      O86638   5.108   8.282   9.223
28799WAT     H186639   5.198   8.283   9.266
28799WAT     H286640   5.048   8.218   9.272
28800WAT      O86641   2.059   7.847   0.301
28800WAT     H186642   2.033   7.867   0.207
28800WAT     H286643   2.122   7.768   0.302
28801WAT      O86644   6.272   0.437   7.210
28801WAT     H186645   6.175   0.414   7.214
28801WAT     H286646   6.314   0.421   7.299
28802WAT      O86647   9.209   5.317   1.540
28802WAT     H186648   9.275   5.264   1.486
28802WAT     H286649   9.213   5.413   1.512
28803WAT      O86650   8.521   8.123   6.239
28803WAT     H186651   8.424   8.135   6.262
28803WAT     H286652   8.576   8.189   6.290
28804WAT      O86653   1.411   0.300   6.650
28804WAT     H186654   1.489   0.320   6.710
28804WAT     H286655   1.427   0.214   6.602
28805WAT      O86656   6.955   0.024   6.134
28805WAT     H186657   6.981  -0.070   6.110
28805WAT     H286658   6.935   0.074   6.050
28806WAT      O86659   9.112   3.851   5.166
28806WAT     H186660   9.095   3.775   5.103
28806WAT     H286661   9.135   3.814   5.257
28807WAT      O86662   2.970   7.927   8.670
28807WAT     H186663   3.015   7.985   8.738
28807WAT     H286664   2.979   7.831   8.696
28808WAT      O86665   8.815   2.691   4.665
28808WAT     H186666   8.903   2.736   4.683
28808WAT     H286667   8.760   2.747   4.604
28809WAT      O86668   2.362   0.151   9.868
28809WAT     H186669   2.341   0.248   9.857
28809WAT     H286670   2.276   0.100   9.877
28810WAT      O86671   9.660   8.088   0.447
28810WAT     H186672   9.711   8.148   0.385
28810WAT     H286673   9.722   8.021   0.486
28811WAT      O86674   2.915   0.726   5.018
28811WAT     H186675   2.855   0.779   5.078
28811WAT     H286676   2.946   0.784   4.943
28812WAT      O86677   1.422   8.100   3.956
28812WAT     H186678   1.490   8.145   4.014
28812WAT     H286679   1.442   8.118   3.860
28813WAT      O86680   7.233   2.019   4.606
28813WAT     H186681   7.293   2.009   4.527
28813WAT     H286682   7.288   2.044   4.686
28814WAT      O86683   8.494   6.095   9.875
28814WAT     H186684   8.561   6.082   9.948
28814WAT     H286685   8.469   6.006   9.837
28815WAT      O86686   6.194   2.250   2.460
28815WAT     H186687   6.130   2.174   2.449
28815WAT     H286688   6.204   2.271   2.558
28816WAT      O86689   3.657   5.322   4.256
28816WAT     H186690   3.689   5.411   4.286
28816WAT     H286691   3.729   5.253   4.273
28817WAT      O86692   1.734   8.834   6.806
28817WAT     H186693   1.664   8.903   6.824
28817WAT     H286694   1.793   8.825   6.886
28818WAT      O86695   2.725   3.203   0.852
28818WAT     H186696   2.674   3.126   0.890
28818WAT     H286697   2.662   3.269   0.813
28819WAT      O86698   9.600   9.380   3.117
28819WAT     H186699   9.556   9.440   3.049
28819WAT     H286700   9.697   9.371   3.095
28820WAT      O86701   3.336   0.492   5.483
28820WAT     H186702   3.316   0.581   5.441
28820WAT     H286703   3.287   0.420   5.434
28821WAT      O86704   4.491   7.904   8.163
28821WAT     H186705   4.584   7.932   8.139
28821WAT     H286706   4.480   7.909   8.263
28822WAT      O86707   0.666   5.616   2.449
28822WAT     H186708   0.719   5.551   2.504
28822WAT     H286709   0.576   5.578   2.430
28823WAT      O86710   5.792   2.501   9.510
28823WAT     H186711   5.737   2.435   9.562
28823WAT     H286712   5.762   2.594   9.533
28824WAT      O86713   1.721   8.554   1.809
28824WAT     H186714   1.639   8.501   1.787
28824WAT     H286715   1.767   8.512   1.887
28825WAT      O86716   8.559   6.992   2.483
28825WAT     H186717   8.562   7.002   2.583
28825WAT     H286718   8.617   7.061   2.441
28826WAT      O86719   2.705   8.167   7.555
28826WAT     H186720   2.783   8.226   7.535
28826WAT     H286721   2.653   8.205   7.631
28827WAT      O86722   4.116   6.864   6.587
28827WAT     H186723   4.022   6.861   6.620
28827WAT     H286724   4.145   6.960   6.578
28828WAT      O86725   7.965   4.075   3.731
28828WAT     H186726   8.062   4.050   3.731
28828WAT     H286727   7.922   4.043   3.647
28829WAT      O86728   8.169   1.907   6.745
28829WAT     H186729   8.167   1.836   6.816
28829WAT     H286730   8.106   1.883   6.672
28830WAT      O86731   6.765   8.364   7.891
28830WAT     H186732   6.759   8.293   7.960
28830WAT     H286733   6.850   8.352   7.839
28831WAT      O86734   8.988   8.736   7.675
28831WAT     H186735   8.974   8.662   7.609
28831WAT     H286736   9.085   8.760   7.677
28832WAT      O86737   6.161   8.360   7.788
28832WAT     H186738   6.126   8.453   7.795
28832WAT     H286739   6.085   8.295   7.789
28833WAT      O86740   2.994   1.297   1.437
28833WAT     H186741   3.039   1.279   1.525
28833WAT     H286742   3.059   1.339   1.374
28834WAT      O86743   1.221   2.058   4.775
28834WAT     H186744   1.265   2.024   4.858
28834WAT     H286745   1.133   2.100   4.798
28835WAT      O86746   6.521   8.346   8.076
28835WAT     H186747   6.567   8.435   8.082
28835WAT     H286748   6.423   8.360   8.063
28836WAT      O86749   5.501   2.061   8.105
28836WAT     H186750   5.444   2.133   8.065
28836WAT     H286751   5.553   2.016   8.033
28837WAT      O86752   1.577   4.551   9.625
28837WAT     H186753   1.484   4.519   9.644
28837WAT     H286754   1.639   4.518   9.697
28838WAT      O86755   9.764   0.571   2.800
28838WAT     H186756   9.678   0.596   2.843
28838WAT     H286757   9.756   0.479   2.761
28839WAT      O86758   2.561   4.610   1.524
28839WAT     H186759   2.558   4.699   1.568
28839WAT     H286760   2.618   4.548   1.578
28840WAT      O86761   3.328   0.474   6.889
28840WAT     H186762   3.329   0.448   6.793
28840WAT     H286763   3.281   0.562   6.899
28841WAT      O86764   0.371   0.891   3.411
28841WAT     H186765   0.401   0.986   3.422
28841WAT     H286766   0.448   0.835   3.382
28842WAT      O86767   1.179   5.536   9.017
28842WAT     H186768   1.202   5.467   8.948
28842WAT     H286769   1.083   5.563   9.005
28843WAT      O86770   4.380   3.782   0.997
28843WAT     H186771   4.386   3.741   0.906
28843WAT     H286772   4.450   3.741   1.056
28844WAT      O86773   2.991   6.637   5.399
28844WAT     H186774   2.944   6.602   5.318
28844WAT     H286775   3.044   6.718   5.375
28845WAT      O86776   7.843   2.533   3.291
28845WAT     H186777   7.782   2.610   3.269
28845WAT     H286778   7.850   2.472   3.213
28846WAT      O86779   5.590   8.677   9.881
28846WAT     H186780   5.516   8.745   9.887
28846WAT     H286781   5.669   8.710   9.932
28847WAT      O86782   9.597   3.637   7.640
28847WAT     H186783   9.619   3.563   7.576
28847WAT     H286784   9.569   3.718   7.589
28848WAT      O86785   9.529   7.364   4.379
28848WAT     H186786   9.489   7.372   4.288
28848WAT     H286787   9.468   7.405   4.446
28849WAT      O86788   1.644   3.883   8.846
28849WAT     H186789   1.663   3.862   8.942
28849WAT     H286790   1.625   3.798   8.797
28850WAT      O86791   2.529   4.870   7.731
28850WAT     H186792   2.617   4.911   7.756
28850WAT     H286793   2.472   4.861   7.812
28851WAT      O86794   2.477   7.760   9.263
28851WAT     H186795   2.416   7.731   9.337
28851WAT     H286796   2.425   7.766   9.178
28852WAT      O86797   2.783   2.337   8.480
28852WAT     H186798   2.785   2.407   8.409
28852WAT     H286799   2.736   2.373   8.561
28853WAT      O86800   2.254   4.158   2.246
28853WAT     H186801   2.233   4.073   2.294
28853WAT     H286802   2.245   4.235   2.310
28854WAT      O86803   6.968   8.710   6.068
28854WAT     H186804   7.042   8.777   6.065
28854WAT     H286805   6.981   8.649   6.146
28855WAT      O86806   0.200   7.318   0.111
28855WAT     H186807   0.239   7.346   0.199
28855WAT     H286808   0.170   7.399   0.060
28856WAT      O86809   9.208   6.663   1.270
28856WAT     H186810   9.229   6.759   1.289
28856WAT     H286811   9.241   6.640   1.178
28857WAT      O86812   2.085   9.772   8.025
28857WAT     H186813   2.034   9.858   8.024
28857WAT     H286814   2.102   9.742   7.931
28858WAT      O86815   4.466   3.543   2.187
28858WAT     H186816   4.399   3.578   2.122
28858WAT     H286817   4.544   3.606   2.191
28859WAT      O86818   9.078   1.451   4.616
28859WAT     H186819   9.039   1.536   4.580
28859WAT     H286820   9.177   1.460   4.622
28860WAT      O86821   8.300   7.592   1.135
28860WAT     H186822   8.317   7.572   1.232
28860WAT     H286823   8.263   7.510   1.091
28861WAT      O86824   6.363   7.745   6.218
28861WAT     H186825   6.447   7.744   6.272
28861WAT     H286826   6.377   7.696   6.132
28862WAT      O86827   2.478   0.164   1.228
28862WAT     H186828   2.514   0.124   1.144
28862WAT     H286829   2.399   0.112   1.260
28863WAT      O86830   7.299   1.379   2.766
28863WAT     H186831   7.251   1.443   2.706
28863WAT     H286832   7.262   1.386   2.859
28864WAT      O86833   4.889   4.738   5.932
28864WAT     H186834   4.886   4.832   5.898
28864WAT     H286835   4.950   4.733   6.010
28865WAT      O86836   0.142   0.899   8.573
28865WAT     H186837   0.152   0.977   8.635
28865WAT     H286838   0.224   0.842   8.577
28866WAT      O86839   4.948   2.217   9.647
28866WAT     H186840   4.926   2.252   9.738
28866WAT     H286841   4.866   2.218   9.590
28867WAT      O86842   6.424   1.344   0.774
28867WAT     H186843   6.411   1.364   0.677
28867WAT     H286844   6.505   1.393   0.807
28868WAT      O86845   3.240   4.398   8.158
28868WAT     H186846   3.231   4.411   8.059
28868WAT     H286847   3.173   4.456   8.206
28869WAT      O86848   2.080   3.975   9.387
28869WAT     H186849   1.996   3.999   9.436
28869WAT     H286850   2.068   3.886   9.343
28870WAT      O86851   7.628   6.912   0.727
28870WAT     H186852   7.555   6.847   0.707
28870WAT     H286853   7.713   6.862   0.745
28871WAT      O86854   3.230   5.995   4.700
28871WAT     H186855   3.235   5.902   4.736
28871WAT     H286856   3.322   6.032   4.691
28872WAT      O86857   8.944   0.361   5.764
28872WAT     H186858   8.943   0.397   5.671
28872WAT     H286859   8.996   0.275   5.766
28873WAT      O86860   8.488   9.481   5.401
28873WAT     H186861   8.485   9.494   5.500
28873WAT     H286862   8.442   9.396   5.376
28874WAT      O86863   3.355   1.946   8.706
28874WAT     H186864   3.368   1.999   8.790
28874WAT     H286865   3.381   2.001   8.627
28875WAT      O86866   7.777   6.932   1.675
28875WAT     H186867   7.743   7.026   1.670
28875WAT     H286868   7.861   6.924   1.621
28876WAT      O86869   8.027   0.308   4.471
28876WAT     H186870   8.088   0.332   4.395
28876WAT     H286871   8.039   0.211   4.494
28877WAT      O86872   3.071   8.077   4.497
28877WAT     H186873   3.074   7.993   4.551
28877WAT     H286874   3.050   8.154   4.556
28878WAT      O86875   6.942   3.939   0.105
28878WAT     H186876   6.950   4.037   0.121
28878WAT     H286877   6.948   3.920   0.007
28879WAT      O86878   9.724   4.123   8.723
28879WAT     H186879   9.727   4.033   8.767
28879WAT     H286880   9.798   4.130   8.657
28880WAT      O86881   9.515   5.558   7.935
28880WAT     H186882   9.571   5.593   7.859
28880WAT     H286883   9.565   5.484   7.981
28881WAT      O86884   9.850   6.335   4.528
28881WAT     H186885   9.939   6.371   4.555
28881WAT     H286886   9.786   6.411   4.513
28882WAT      O86887   9.496   6.750   2.077
28882WAT     H186888   9.527   6.675   2.019
28882WAT     H286889   9.403   6.730   2.110
28883WAT      O86890   8.154   8.194   7.228
28883WAT     H186891   8.183   8.108   7.187
28883WAT     H286892   8.086   8.176   7.298
28884WAT      O86893   0.786   5.428   5.443
28884WAT     H186894   0.814   5.500   5.380
28884WAT     H286895   0.862   5.407   5.505
28885WAT      O86896   0.979   0.518   3.724
28885WAT     H186897   1.013   0.429   3.694
28885WAT     H286898   0.934   0.565   3.648
28886WAT      O86899   9.657   6.471   9.312
28886WAT     H186900   9.665   6.406   9.388
28886WAT     H286901   9.674   6.424   9.226
28887WAT      O86902   8.941   7.878   5.804
28887WAT     H186903   9.038   7.866   5.827
28887WAT     H286904   8.921   7.975   5.790
28888WAT      O86905   5.302   7.325   9.199
28888WAT     H186906   5.308   7.415   9.155
28888WAT     H286907   5.345   7.330   9.289
28889WAT      O86908   1.396   3.253   4.905
28889WAT     H186909   1.432   3.160   4.896
28889WAT     H286910   1.447   3.315   4.846
28890WAT      O86911   7.352   4.138   9.015
28890WAT     H186912   7.324   4.056   9.064
28890WAT     H286913   7.450   4.151   9.023
28891WAT      O86914   8.704   5.599   7.135
28891WAT     H186915   8.796   5.585   7.099
28891WAT     H286916   8.710   5.645   7.224
28892WAT      O86917   7.499   6.155   6.025
28892WAT     H186918   7.531   6.250   6.022
28892WAT     H286919   7.518   6.110   5.938
28893WAT      O86920   1.392   8.909   2.796
28893WAT     H186921   1.372   8.872   2.706
28893WAT     H286922   1.440   8.997   2.787
28894WAT      O86923   2.906   5.211   7.630
28894WAT     H186924   2.959   5.158   7.564
28894WAT     H286925   2.899   5.306   7.599
28895WAT      O86926   4.034   5.483   9.282
28895WAT     H186927   4.016   5.385   9.279
28895WAT     H286928   4.090   5.504   9.363
28896WAT      O86929   3.829   0.277   9.214
28896WAT     H186930   3.762   0.211   9.181
28896WAT     H286931   3.908   0.278   9.152
28897WAT      O86932   5.448   8.113   5.587
28897WAT     H186933   5.424   8.023   5.625
28897WAT     H286934   5.474   8.103   5.491
28898WAT      O86935   8.686   7.163   6.130
28898WAT     H186936   8.759   7.142   6.196
28898WAT     H286937   8.639   7.079   6.105
28899WAT      O86938   8.108   9.539   7.445
28899WAT     H186939   8.140   9.561   7.537
28899WAT     H286940   8.160   9.461   7.409
28900WAT      O86941   7.456   0.855   0.095
28900WAT     H186942   7.528   0.788   0.107
28900WAT     H286943   7.436   0.899   0.183
28901WAT      O86944   8.330   5.407   5.566
28901WAT     H186945   8.395   5.462   5.514
28901WAT     H286946   8.302   5.328   5.512
28902WAT      O86947   5.613   9.410   6.721
28902WAT     H186948   5.683   9.345   6.749
28902WAT     H286949   5.537   9.361   6.678
28903WAT      O86950   0.921   6.952   6.654
28903WAT     H186951   0.964   6.893   6.723
28903WAT     H286952   0.887   7.035   6.698
28904WAT      O86953   2.545   0.739   6.097
28904WAT     H186954   2.601   0.817   6.120
28904WAT     H286955   2.524   0.741   5.999
28905WAT      O86956   8.285   0.097   5.538
28905WAT     H186957   8.291   0.196   5.550
28905WAT     H286958   8.204   0.075   5.483
28906WAT      O86959   6.981   7.404   0.809
28906WAT     H186960   6.917   7.463   0.859
28906WAT     H286961   6.936   7.365   0.729
28907WAT      O86962   1.417   6.596   2.534
28907WAT     H186963   1.408   6.652   2.452
28907WAT     H286964   1.501   6.621   2.583
28908WAT      O86965   2.194   4.805   4.251
28908WAT     H186966   2.287   4.825   4.221
28908WAT     H286967   2.160   4.725   4.201
28909WAT      O86968   2.366   9.258   3.057
28909WAT     H186969   2.316   9.343   3.073
28909WAT     H286970   2.367   9.239   2.959
28910WAT      O86971   8.669   8.724   2.532
28910WAT     H186972   8.763   8.757   2.537
28910WAT     H286973   8.662   8.635   2.578
28911WAT      O86974   9.103   3.334   8.370
28911WAT     H186975   9.073   3.319   8.275
28911WAT     H286976   9.035   3.294   8.432
28912WAT      O86977   8.158   5.887   7.278
28912WAT     H186978   8.126   5.971   7.321
28912WAT     H286979   8.080   5.832   7.249
28913WAT      O86980   5.549   0.179   6.066
28913WAT     H186981   5.508   0.121   5.995
28913WAT     H286982   5.483   0.195   6.138
28914WAT      O86983   3.274   0.838   7.743
28914WAT     H186984   3.330   0.912   7.707
28914WAT     H286985   3.282   0.836   7.843
28915WAT      O86986   1.249   3.687   2.941
28915WAT     H186987   1.286   3.776   2.916
28915WAT     H286988   1.325   3.622   2.954
28916WAT      O86989   9.266   0.516   8.236
28916WAT     H186990   9.175   0.511   8.194
28916WAT     H286991   9.289   0.612   8.253
28917WAT      O86992   7.331   8.965   3.914
28917WAT     H186993   7.324   9.063   3.930
28917WAT     H286994   7.369   8.921   3.995
28918WAT      O86995   6.996   5.417   3.757
28918WAT     H186996   6.933   5.341   3.766
28918WAT     H286997   7.064   5.396   3.686
28919WAT      O86998   9.518   6.461   6.834
28919WAT     H186999   9.582   6.385   6.847
28919WAT     H287000   9.449   6.436   6.767
28920WAT      O87001   3.446   3.748   2.866
28920WAT     H187002   3.385   3.731   2.789
28920WAT     H287003   3.490   3.837   2.854
28921WAT      O87004   9.480   2.313   2.102
28921WAT     H187005   9.563   2.299   2.156
28921WAT     H287006   9.406   2.258   2.142
28922WAT      O87007   3.554   8.577   4.549
28922WAT     H187008   3.593   8.541   4.633
28922WAT     H287009   3.563   8.677   4.547
28923WAT      O87010   8.561   7.017   7.267
28923WAT     H187011   8.654   6.980   7.266
28923WAT     H287012   8.502   6.963   7.207
28924WAT      O87013   2.946   3.016   0.262
28924WAT     H187014   2.883   2.986   0.334
28924WAT     H287015   2.897   3.017   0.175
28925WAT      O87016   7.673   8.057   4.041
28925WAT     H187017   7.617   7.996   4.098
28925WAT     H287018   7.722   8.003   3.973
28926WAT      O87019   3.132   3.100   0.715
28926WAT     H187020   3.229   3.087   0.694
28926WAT     H287021   3.122   3.118   0.813
28927WAT      O87022   6.813   8.293   9.469
28927WAT     H187023   6.912   8.302   9.461
28927WAT     H287024   6.777   8.248   9.387
28928WAT      O87025   5.419   1.447   2.797
28928WAT     H187026   5.355   1.496   2.857
28928WAT     H287027   5.477   1.387   2.853
28929WAT      O87028   9.708   8.505   6.474
28929WAT     H187029   9.677   8.594   6.506
28929WAT     H287030   9.762   8.461   6.545
28930WAT      O87031   3.369   7.916   3.797
28930WAT     H187032   3.322   7.879   3.717
28930WAT     H287033   3.306   7.971   3.851
28931WAT      O87034   4.102   4.480   8.188
28931WAT     H187035   4.177   4.415   8.199
28931WAT     H287036   4.081   4.491   8.091
28932WAT      O87037   4.697   6.434   7.779
28932WAT     H187038   4.717   6.474   7.690
28932WAT     H287039   4.699   6.334   7.772
28933WAT      O87040   4.736   0.715   1.504
28933WAT     H187041   4.811   0.781   1.515
28933WAT     H287042   4.697   0.693   1.593
28934WAT      O87043   7.805   5.883   5.131
28934WAT     H187044   7.736   5.949   5.102
28934WAT     H287045   7.802   5.803   5.071
28935WAT      O87046   9.883   1.483   8.170
28935WAT     H187047   9.950   1.424   8.215
28935WAT     H287048   9.792   1.443   8.183
28936WAT      O87049   2.456   5.688   5.623
28936WAT     H187050   2.408   5.665   5.708
28936WAT     H287051   2.389   5.715   5.553
28937WAT      O87052   9.207   6.491   6.069
28937WAT     H187053   9.260   6.544   6.004
28937WAT     H287054   9.174   6.550   6.143
28938WAT      O87055   5.834   0.883   0.266
28938WAT     H187056   5.782   0.846   0.189
28938WAT     H287057   5.772   0.899   0.343
28939WAT      O87058   3.893   6.075   6.865
28939WAT     H187059   3.907   5.991   6.813
28939WAT     H287060   3.803   6.072   6.910
28940WAT      O87061   8.750   6.069   8.000
28940WAT     H187062   8.848   6.091   8.009
28940WAT     H287063   8.728   6.052   7.904
28941WAT      O87064   1.403   7.218   4.316
28941WAT     H187065   1.457   7.170   4.247
28941WAT     H287066   1.392   7.160   4.396
28942WAT      O87067   5.001   5.987   4.841
28942WAT     H187068   5.001   5.914   4.773
28942WAT     H287069   4.911   5.992   4.884
28943WAT      O87070   0.193   0.630   4.912
28943WAT     H187071   0.129   0.557   4.888
28943WAT     H287072   0.219   0.680   4.828
28944WAT      O87073   4.939   4.561   3.300
28944WAT     H187074   4.904   4.638   3.245
28944WAT     H287075   4.971   4.596   3.388
28945WAT      O87076   4.540   2.952   7.511
28945WAT     H187077   4.573   2.934   7.604
28945WAT     H287078   4.453   2.904   7.497
28946WAT      O87079   8.773   8.313   5.536
28946WAT     H187080   8.715   8.393   5.553
28946WAT     H287081   8.856   8.342   5.489
28947WAT      O87082   8.806   8.259   2.103
28947WAT     H187083   8.819   8.354   2.074
28947WAT     H287084   8.805   8.255   2.203
28948WAT      O87085   9.028   2.145   8.936
28948WAT     H187086   9.088   2.115   9.010
28948WAT     H287087   8.981   2.229   8.963
28949WAT      O87088   6.213   2.928   8.030
28949WAT     H187089   6.234   2.937   7.932
28949WAT     H287090   6.117   2.952   8.045
28950WAT      O87091   7.293   1.929   2.777
28950WAT     H187092   7.387   1.944   2.806
28950WAT     H287093   7.252   1.858   2.834
28951WAT      O87094   2.785   2.939   7.801
28951WAT     H187095   2.849   2.982   7.866
28951WAT     H287096   2.782   2.993   7.717
28952WAT      O87097   8.744   7.917   6.595
28952WAT     H187098   8.829   7.917   6.543
28952WAT     H287099   8.738   7.833   6.649
28953WAT      O87100   5.867   3.301   1.864
28953WAT     H187101   5.858   3.396   1.896
28953WAT     H287102   5.799   3.284   1.793
28954WAT      O87103   5.011   0.809   4.799
28954WAT     H187104   5.000   0.789   4.702
28954WAT     H287105   4.934   0.770   4.850
28955WAT      O87106   3.001   9.131   0.705
28955WAT     H187107   3.055   9.190   0.645
28955WAT     H287108   3.041   9.039   0.707
28956WAT      O87109   0.726   6.370   8.888
28956WAT     H187110   0.644   6.397   8.938
28956WAT     H287111   0.788   6.448   8.880
28957WAT      O87112   6.426   0.953   0.480
28957WAT     H187113   6.373   0.994   0.554
28957WAT     H287114   6.519   0.935   0.512
28958WAT      O87115   5.249   0.768   3.911
28958WAT     H187116   5.322   0.798   3.850
28958WAT     H287117   5.197   0.694   3.868
28959WAT      O87118   6.997   5.599   4.296
28959WAT     H187119   6.997   5.502   4.274
28959WAT     H287120   6.905   5.636   4.284
28960WAT      O87121   3.501   1.033   3.395
28960WAT     H187122   3.589   1.078   3.412
28960WAT     H287123   3.448   1.087   3.330
28961WAT      O87124   1.813   4.729   1.443
28961WAT     H187125   1.775   4.759   1.531
28961WAT     H287126   1.894   4.673   1.459
28962WAT      O87127   4.800   3.905   5.751
28962WAT     H187128   4.840   3.983   5.800
28962WAT     H287129   4.866   3.872   5.683
28963WAT      O87130   1.464   6.444   3.759
28963WAT     H187131   1.383   6.499   3.780
28963WAT     H287132   1.500   6.470   3.670
28964WAT      O87133   0.973   5.760   1.074
28964WAT     H187134   0.976   5.757   0.974
28964WAT     H287135   0.877   5.755   1.104
28965WAT      O87136   0.641   2.437   5.562
28965WAT     H187137   0.697   2.378   5.504
28965WAT     H287138   0.555   2.458   5.515
28966WAT      O87139   8.366   4.569   7.733
28966WAT     H187140   8.387   4.471   7.730
28966WAT     H287141   8.414   4.615   7.658
28967WAT      O87142   0.960   9.524   9.118
28967WAT     H187143   0.958   9.435   9.072
28967WAT     H287144   0.877   9.535   9.172
28968WAT      O87145   9.587   8.514   1.216
28968WAT     H187146   9.572   8.475   1.307
28968WAT     H287147   9.500   8.546   1.179
28969WAT      O87148   5.139   0.909   9.423
28969WAT     H187149   5.133   0.809   9.433
28969WAT     H287150   5.050   0.944   9.393
28970WAT      O87151   5.411   6.031   4.905
28970WAT     H187152   5.475   6.102   4.934
28970WAT     H287153   5.319   6.070   4.901
28971WAT      O87154   3.568   0.998   9.659
28971WAT     H187155   3.629   1.027   9.586
28971WAT     H287156   3.611   0.924   9.711
28972WAT      O87157   9.235   2.734   0.037
28972WAT     H187158   9.216   2.681   0.120
28972WAT     H287159   9.161   2.800   0.022
28973WAT      O87160   2.946   8.569   9.108
28973WAT     H187161   2.925   8.620   9.025
28973WAT     H287162   3.020   8.504   9.090
28974WAT      O87163   8.989   4.540   8.574
28974WAT     H187164   8.898   4.582   8.581
28974WAT     H287165   8.979   4.444   8.548
28975WAT      O87166   5.540   4.655   5.909
28975WAT     H187167   5.542   4.576   5.970
28975WAT     H287168   5.445   4.675   5.883
28976WAT      O87169   6.758   4.794   7.324
28976WAT     H187170   6.662   4.823   7.324
28976WAT     H287171   6.777   4.745   7.409
28977WAT      O87172   5.002   1.404   3.809
28977WAT     H187173   4.936   1.372   3.741
28977WAT     H287174   5.007   1.504   3.805
28978WAT      O87175   5.866   2.244   7.192
28978WAT     H187176   5.769   2.219   7.193
28978WAT     H287177   5.920   2.167   7.159
28979WAT      O87178   1.826   9.047   9.108
28979WAT     H187179   1.839   8.999   9.195
28979WAT     H287180   1.729   9.044   9.082
28980WAT      O87181   8.231   1.003   9.031
28980WAT     H187182   8.139   0.963   9.030
28980WAT     H287183   8.293   0.943   9.082
28981WAT      O87184   2.258   8.239   7.766
28981WAT     H187185   2.250   8.141   7.782
28981WAT     H287186   2.172   8.284   7.790
28982WAT      O87187   5.239   4.721   2.777
28982WAT     H187188   5.259   4.712   2.875
28982WAT     H287189   5.287   4.800   2.740
28983WAT      O87190   7.642   4.021   0.750
28983WAT     H187191   7.716   4.087   0.747
28983WAT     H287192   7.573   4.044   0.680
28984WAT      O87193   7.529   6.391   4.681
28984WAT     H187194   7.565   6.406   4.588
28984WAT     H287195   7.572   6.456   4.743
28985WAT      O87196   5.299   7.042   2.071
28985WAT     H187197   5.217   7.023   2.124
28985WAT     H287198   5.318   7.141   2.073
28986WAT      O87199   0.729   8.393   0.306
28986WAT     H187200   0.716   8.393   0.207
28986WAT     H287201   0.821   8.361   0.327
28987WAT      O87202   0.506   0.037   7.892
28987WAT     H187203   0.461   0.054   7.980
28987WAT     H287204   0.451   0.077   7.819
28988WAT      O87205   9.197   6.867   2.789
28988WAT     H187206   9.258   6.788   2.785
28988WAT     H287207   9.211   6.915   2.876
28989WAT      O87208   4.073   4.270   6.046
28989WAT     H187209   3.992   4.275   5.988
28989WAT     H287210   4.141   4.336   6.013
28990WAT      O87211   7.075   2.309   7.956
28990WAT     H187212   7.115   2.355   8.035
28990WAT     H287213   7.019   2.233   7.987
28991WAT      O87214   7.465   1.280   3.114
28991WAT     H187215   7.457   1.213   3.040
28991WAT     H287216   7.548   1.262   3.167
28992WAT      O87217   8.589   6.277   8.901
28992WAT     H187218   8.529   6.344   8.859
28992WAT     H287219   8.556   6.256   8.993
28993WAT      O87220   2.553   7.977   7.488
28993WAT     H187221   2.499   7.951   7.569
28993WAT     H287222   2.625   8.041   7.516
28994WAT      O87223   4.820   8.140   6.731
28994WAT     H187224   4.905   8.096   6.759
28994WAT     H287225   4.753   8.133   6.805
28995WAT      O87226   8.754   6.573   9.387
28995WAT     H187227   8.796   6.662   9.372
28995WAT     H287228   8.762   6.518   9.303
28996WAT      O87229   0.442   4.943   5.823
28996WAT     H187230   0.400   4.869   5.876
28996WAT     H287231   0.371   5.010   5.798
28997WAT      O87232   3.441   3.665   6.186
28997WAT     H187233   3.388   3.664   6.102
28997WAT     H287234   3.528   3.619   6.171
28998WAT      O87235   9.083   6.186   5.900
28998WAT     H187236   9.139   6.210   5.980
28998WAT     H287237   9.044   6.270   5.861
28999WAT      O87238   2.322   8.766   6.265
28999WAT     H187239   2.383   8.838   6.232
28999WAT     H287240   2.241   8.807   6.305
29000WAT      O87241   6.030   1.465   1.465
29000WAT     H187242   5.938   1.450   1.429
29000WAT     H287243   6.073   1.377   1.484
29001WAT      O87244   4.308   2.177   4.969
29001WAT     H187245   4.248   2.251   4.999
29001WAT     H287246   4.320   2.181   4.870
29002WAT      O87247   2.987   5.011   9.853
29002WAT     H187248   2.924   5.058   9.791
29002WAT     H287249   3.081   5.035   9.829
29003WAT      O87250   4.631   1.042   5.633
29003WAT     H187251   4.588   1.000   5.552
29003WAT     H287252   4.655   1.137   5.612
29004WAT      O87253   4.038   3.735   4.521
29004WAT     H187254   4.118   3.769   4.570
29004WAT     H287255   4.028   3.637   4.537
29005WAT      O87256   5.425   9.167   1.063
29005WAT     H187257   5.431   9.068   1.074
29005WAT     H287258   5.366   9.189   0.985
29006WAT      O87259   8.663   0.740   8.902
29006WAT     H187260   8.630   0.800   8.830
29006WAT     H287261   8.589   0.679   8.932
29007WAT      O87262   6.226   3.915   3.755
29007WAT     H187263   6.229   3.816   3.771
29007WAT     H287264   6.163   3.957   3.820
29008WAT      O87265   7.949   0.613   9.717
29008WAT     H187266   7.927   0.522   9.753
29008WAT     H287267   7.959   0.677   9.793
29009WAT      O87268   6.285   3.055   2.600
29009WAT     H187269   6.246   3.147   2.590
29009WAT     H287270   6.280   3.007   2.512
29010WAT      O87271   1.267   1.425   5.263
29010WAT     H187272   1.296   1.342   5.312
29010WAT     H287273   1.254   1.403   5.166
29011WAT      O87274   4.512   9.430   7.131
29011WAT     H187275   4.439   9.472   7.078
29011WAT     H287276   4.530   9.484   7.213
29012WAT      O87277   4.059   1.465   5.761
29012WAT     H187278   4.158   1.470   5.748
29012WAT     H287279   4.028   1.544   5.814
29013WAT      O87280   2.312   9.571   0.340
29013WAT     H187281   2.354   9.569   0.430
29013WAT     H287282   2.381   9.592   0.271
29014WAT      O87283   0.696   1.603   9.017
29014WAT     H187284   0.678   1.518   8.967
29014WAT     H287285   0.703   1.679   8.951
29015WAT      O87286   3.481   3.681   0.678
29015WAT     H187287   3.542   3.676   0.599
29015WAT     H287288   3.480   3.775   0.713
29016WAT      O87289   4.109   5.958   7.519
29016WAT     H187290   4.047   6.019   7.569
29016WAT     H287291   4.197   5.955   7.566
29017WAT      O87292   3.527   0.234   8.422
29017WAT     H187293   3.553   0.198   8.512
29017WAT     H287294   3.559   0.173   8.351
29018WAT      O87295   4.869   5.623   2.912
29018WAT     H187296   4.800   5.559   2.946
29018WAT     H287297   4.955   5.608   2.960
29019WAT      O87298   4.359   6.875   7.168
29019WAT     H187299   4.269   6.858   7.129
29019WAT     H287300   4.420   6.799   7.145
29020WAT      O87301   3.908   2.011   7.220
29020WAT     H187302   3.909   2.002   7.319
29020WAT     H287303   3.866   2.098   7.194
29021WAT      O87304   9.065   1.352   9.074
29021WAT     H187305   9.122   1.431   9.050
29021WAT     H287306   8.969   1.375   9.057
29022WAT      O87307   6.122   1.694   4.000
29022WAT     H187308   6.216   1.667   4.018
29022WAT     H287309   6.078   1.723   4.085
29023WAT      O87310   4.398   0.301   6.337
29023WAT     H187311   4.371   0.245   6.415
29023WAT     H287312   4.318   0.321   6.280
29024WAT      O87313   3.826   8.422   0.919
29024WAT     H187314   3.813   8.324   0.903
29024WAT     H287315   3.924   8.442   0.921
29025WAT      O87316   0.024   5.596   3.036
29025WAT     H187317   0.012   5.559   3.128
29025WAT     H287318  -0.049   5.562   2.976
29026WAT      O87319   8.674   9.400   0.086
29026WAT     H187320   8.595   9.449   0.123
29026WAT     H287321   8.743   9.390   0.157
29027WAT      O87322   4.139   3.645   9.376
29027WAT     H187323   4.230   3.617   9.344
29027WAT     H287324   4.090   3.690   9.301
29028WAT      O87325   1.443   7.462   8.714
29028WAT     H187326   1.406   7.475   8.805
29028WAT     H287327   1.375   7.489   8.646
29029WAT      O87328   9.574   5.845   5.746
29029WAT     H187329   9.536   5.759   5.711
29029WAT     H287330   9.558   5.852   5.844
29030WAT      O87331   8.190   1.888   7.829
29030WAT     H187332   8.226   1.796   7.840
29030WAT     H287333   8.237   1.933   7.753
29031WAT      O87334   7.775   4.223   7.410
29031WAT     H187335   7.767   4.299   7.346
29031WAT     H287336   7.761   4.256   7.504
29032WAT      O87337   4.526   8.273   1.135
29032WAT     H187338   4.583   8.351   1.161
29032WAT     H287339   4.550   8.194   1.191
29033WAT      O87340   8.920   6.271   7.048
29033WAT     H187341   8.871   6.342   6.998
29033WAT     H287342   8.927   6.296   7.144
29034WAT      O87343   2.629   9.709   5.642
29034WAT     H187344   2.650   9.805   5.629
29034WAT     H287345   2.534   9.691   5.615
29035WAT      O87346   4.846   2.439   2.713
29035WAT     H187347   4.844   2.346   2.676
29035WAT     H287348   4.761   2.457   2.763
29036WAT      O87349   7.731   0.593   4.414
29036WAT     H187350   7.674   0.668   4.448
29036WAT     H287351   7.817   0.630   4.380
29037WAT      O87352   7.735   2.361   6.712
29037WAT     H187353   7.754   2.455   6.740
29037WAT     H287354   7.684   2.315   6.784
29038WAT      O87355   9.197   5.020   1.857
29038WAT     H187356   9.155   4.953   1.795
29038WAT     H287357   9.181   5.112   1.822
29039WAT      O87358   6.531   0.309   5.746
29039WAT     H187359   6.617   0.287   5.792
29039WAT     H287360   6.456   0.264   5.794
29040WAT      O87361   7.199   6.874   1.137
29040WAT     H187362   7.292   6.912   1.131
29040WAT     H287363   7.138   6.926   1.078
29041WAT      O87364   4.624   2.946   9.576
29041WAT     H187365   4.558   2.958   9.650
29041WAT     H287366   4.716   2.933   9.614
29042WAT      O87367   7.977   4.817   6.279
29042WAT     H187368   7.987   4.872   6.362
29042WAT     H287369   8.065   4.815   6.230
29043WAT      O87370   3.884   0.615   6.808
29043WAT     H187371   3.851   0.523   6.790
29043WAT     H287372   3.978   0.624   6.773
29044WAT      O87373   6.230   5.709   1.662
29044WAT     H187374   6.322   5.708   1.622
29044WAT     H287375   6.230   5.766   1.744
29045WAT      O87376   8.436   4.287   2.632
29045WAT     H187377   8.369   4.330   2.571
29045WAT     H287378   8.450   4.346   2.712
29046WAT      O87379   4.921   9.137   4.941
29046WAT     H187380   4.835   9.087   4.951
29046WAT     H287381   4.996   9.081   4.975
29047WAT      O87382   7.079   9.766   6.477
29047WAT     H187383   7.110   9.717   6.396
29047WAT     H287384   7.050   9.701   6.547
29048WAT      O87385   0.046   1.970   2.389
29048WAT     H187386   0.031   1.872   2.400
29048WAT     H287387   0.139   1.994   2.419
29049WAT      O87388   7.025   3.573   1.673
29049WAT     H187389   6.959   3.574   1.748
29049WAT     H287390   7.111   3.614   1.703
29050WAT      O87391   3.977   8.266   2.625
29050WAT     H187392   4.034   8.242   2.704
29050WAT     H287393   4.034   8.276   2.544
29051WAT      O87394   1.006   3.914   8.429
29051WAT     H187395   0.999   3.984   8.500
29051WAT     H287396   1.077   3.940   8.363
29052WAT      O87397   6.442   0.885   6.025
29052WAT     H187398   6.502   0.820   5.979
29052WAT     H287399   6.388   0.934   5.956
29053WAT      O87400   2.397   2.902   6.717
29053WAT     H187401   2.424   2.815   6.759
29053WAT     H287402   2.362   2.963   6.789
29054WAT      O87403   5.040   7.365   6.365
29054WAT     H187404   4.978   7.381   6.442
29054WAT     H287405   5.123   7.319   6.397
29055WAT      O87406   5.564   6.333   4.061
29055WAT     H187407   5.484   6.283   4.027
29055WAT     H287408   5.644   6.307   4.007
29056WAT      O87409   7.147   2.836   7.352
29056WAT     H187410   7.194   2.924   7.348
29056WAT     H287411   7.207   2.765   7.316
29057WAT      O87412   5.301   1.244   2.359
29057WAT     H187413   5.228   1.264   2.293
29057WAT     H287414   5.276   1.280   2.449
29058WAT      O87415   7.988   3.004   9.569
29058WAT     H187416   8.011   2.976   9.662
29058WAT     H287417   8.056   3.071   9.537
29059WAT      O87418   0.107   3.191   7.032
29059WAT     H187419   0.072   3.102   7.003
29059WAT     H287420   0.113   3.194   7.131
29060WAT      O87421   9.229   7.819   0.425
29060WAT     H187422   9.164   7.760   0.472
29060WAT     H287423   9.311   7.830   0.480
29061WAT      O87424   3.554   7.723   3.551
29061WAT     H187425   3.464   7.683   3.567
29061WAT     H287426   3.601   7.735   3.638
29062WAT      O87427   8.141   2.408   4.328
29062WAT     H187428   8.144   2.447   4.236
29062WAT     H287429   8.047   2.412   4.363
29063WAT      O87430   6.890   0.019   6.843
29063WAT     H187431   6.807  -0.004   6.792
29063WAT     H287432   6.965   0.037   6.778
29064WAT      O87433   0.423   3.241   5.846
29064WAT     H187434   0.434   3.142   5.835
29064WAT     H287435   0.476   3.288   5.776
29065WAT      O87436   3.733   6.178   8.286
29065WAT     H187437   3.768   6.126   8.364
29065WAT     H287438   3.705   6.269   8.316
29066WAT      O87439   2.290   8.610   4.962
29066WAT     H187440   2.286   8.660   4.875
29066WAT     H287441   2.207   8.555   4.973
29067WAT      O87442   5.002   8.760   1.559
29067WAT     H187443   5.033   8.775   1.466
29067WAT     H287444   5.026   8.839   1.616
29068WAT      O87445   5.975   2.517   1.776
29068WAT     H187446   5.927   2.550   1.858
29068WAT     H287447   5.919   2.448   1.731
29069WAT      O87448   2.157   0.300   1.764
29069WAT     H187449   2.152   0.396   1.735
29069WAT     H287450   2.077   0.250   1.730
29070WAT      O87451   2.620   6.633   5.080
29070WAT     H187452   2.555   6.620   5.155
29070WAT     H287453   2.631   6.731   5.061
29071WAT      O87454   7.179   3.727   4.556
29071WAT     H187455   7.132   3.653   4.604
29071WAT     H287456   7.188   3.806   4.617
29072WAT      O87457   1.392   6.790   1.879
29072WAT     H187458   1.394   6.694   1.905
29072WAT     H287459   1.391   6.798   1.779
29073WAT      O87460   7.440   5.932   7.083
29073WAT     H187461   7.363   5.876   7.115
29073WAT     H287462   7.526   5.890   7.111
29074WAT      O87463   6.960   2.000   8.649
29074WAT     H187464   6.965   2.085   8.701
29074WAT     H287465   7.033   1.998   8.580
29075WAT      O87466   6.793   6.513   5.617
29075WAT     H187467   6.713   6.521   5.676
29075WAT     H287468   6.770   6.544   5.525
29076WAT      O87469   7.370   5.132   8.051
29076WAT     H187470   7.424   5.103   7.972
29076WAT     H287471   7.427   5.131   8.133
29077WAT      O87472   3.711   0.453   8.930
29077WAT     H187473   3.788   0.392   8.913
29077WAT     H287474   3.632   0.400   8.961
29078WAT      O87475   9.884   8.578   2.994
29078WAT     H187476   9.916   8.489   2.964
29078WAT     H287477   9.924   8.600   3.083
29079WAT      O87478   0.871   8.456   1.480
29079WAT     H187479   0.826   8.477   1.566
29079WAT     H287480   0.931   8.531   1.454
29080WAT      O87481   2.502   3.483   5.103
29080WAT     H187482   2.506   3.423   5.024
29080WAT     H287483   2.555   3.566   5.085
29081WAT      O87484   2.543   4.904   8.571
29081WAT     H187485   2.486   4.966   8.625
29081WAT     H287486   2.592   4.955   8.501
29082WAT      O87487   8.777   1.249   1.039
29082WAT     H187488   8.746   1.191   0.964
29082WAT     H287489   8.737   1.340   1.030
29083WAT      O87490   5.571   9.169   2.226
29083WAT     H187491   5.510   9.186   2.304
29083WAT     H287492   5.662   9.147   2.259
29084WAT      O87493   3.401   8.886   3.701
29084WAT     H187494   3.477   8.896   3.638
29084WAT     H287495   3.326   8.947   3.674
29085WAT      O87496   7.731   0.351   7.976
29085WAT     H187497   7.732   0.406   7.892
29085WAT     H287498   7.653   0.289   7.975
29086WAT      O87499   4.799   8.276   4.051
29086WAT     H187500   4.797   8.182   4.085
29086WAT     H287501   4.804   8.275   3.951
29087WAT      O87502   6.011   1.878   3.742
29087WAT     H187503   6.019   1.846   3.837
29087WAT     H287504   5.971   1.806   3.686
29088WAT      O87505   6.759   8.292   5.441
29088WAT     H187506   6.774   8.206   5.490
29088WAT     H287507   6.828   8.359   5.471
29089WAT      O87508   1.648   3.461   9.128
29089WAT     H187509   1.721   3.493   9.068
29089WAT     H287510   1.563   3.509   9.106
29090WAT      O87511   7.484   8.923   2.565
29090WAT     H187512   7.439   8.878   2.488
29090WAT     H287513   7.417   8.976   2.616
29091WAT      O87514   5.233   7.568   8.822
29091WAT     H187515   5.268   7.491   8.768
29091WAT     H287516   5.146   7.599   8.784
29092WAT      O87517   0.977   1.304   8.845
29092WAT     H187518   1.071   1.278   8.868
29092WAT     H287519   0.916   1.275   8.918
29093WAT      O87520   1.329   3.942   5.410
29093WAT     H187521   1.372   3.852   5.420
29093WAT     H287522   1.341   3.994   5.495
29094WAT      O87523   9.243   6.430   5.708
29094WAT     H187524   9.154   6.465   5.677
29094WAT     H287525   9.294   6.502   5.755
29095WAT      O87526   2.294   0.603   5.750
29095WAT     H187527   2.260   0.537   5.683
29095WAT     H287528   2.225   0.675   5.764
29096WAT      O87529   5.966   7.097   5.983
29096WAT     H187530   6.002   7.129   5.896
29096WAT     H287531   5.982   6.998   5.991
29097WAT      O87532   0.472   2.020   3.711
29097WAT     H187533   0.407   2.016   3.635
29097WAT     H287534   0.558   1.977   3.684
29098WAT      O87535   4.628   0.218   7.265
29098WAT     H187536   4.660   0.123   7.265
29098WAT     H287537   4.549   0.227   7.325
29099WAT      O87538   4.924   8.388   3.007
29099WAT     H187539   5.006   8.438   2.978
29099WAT     H287540   4.907   8.312   2.944
29100WAT      O87541   3.965   7.543   4.591
29100WAT     H187542   3.903   7.589   4.655
29100WAT     H287543   4.027   7.610   4.550
29101WAT      O87544   7.659   6.108   6.528
29101WAT     H187545   7.672   6.082   6.432
29101WAT     H287546   7.591   6.048   6.570
29102WAT      O87547   5.663   6.944   8.474
29102WAT     H187548   5.611   7.009   8.419
29102WAT     H287549   5.654   6.968   8.571
29103WAT      O87550   5.045   1.551   3.506
29103WAT     H187551   5.116   1.482   3.510
29103WAT     H287552   5.059   1.618   3.580
29104WAT      O87553   3.454   0.154   1.584
29104WAT     H187554   3.420   0.248   1.593
29104WAT     H287555   3.478   0.118   1.674
29105WAT      O87556   6.756   6.714   8.481
29105WAT     H187557   6.797   6.673   8.562
29105WAT     H287558   6.823   6.716   8.407
29106WAT      O87559   9.153   6.780   2.352
29106WAT     H187560   9.144   6.838   2.272
29106WAT     H287561   9.081   6.710   2.352
29107WAT      O87562   2.340   2.494   6.898
29107WAT     H187563   2.290   2.520   6.815
29107WAT     H287564   2.301   2.541   6.977
29108WAT      O87565   0.433   4.919   2.174
29108WAT     H187566   0.514   4.862   2.168
29108WAT     H287567   0.446   4.988   2.246
29109WAT      O87568   2.018   1.657   6.036
29109WAT     H187569   1.963   1.704   6.106
29109WAT     H287570   2.115   1.665   6.060
29110WAT      O87571   5.371   6.349   2.867
29110WAT     H187572   5.277   6.323   2.842
29110WAT     H287573   5.405   6.287   2.938
29111WAT      O87574   5.311   6.159   4.022
29111WAT     H187575   5.327   6.138   4.119
29111WAT     H287576   5.241   6.230   4.014
29112WAT      O87577   4.834   6.078   7.066
29112WAT     H187578   4.801   6.114   7.153
29112WAT     H287579   4.918   6.126   7.040
29113WAT      O87580   8.528   5.221   8.144
29113WAT     H187581   8.456   5.214   8.075
29113WAT     H287582   8.515   5.305   8.196
29114WAT      O87583   4.180   4.691   0.538
29114WAT     H187584   4.095   4.673   0.488
29114WAT     H287585   4.185   4.787   0.563
29115WAT      O87586   1.294   9.675   7.144
29115WAT     H187587   1.198   9.691   7.168
29115WAT     H287588   1.312   9.577   7.140
29116WAT      O87589   4.872   0.309   6.381
29116WAT     H187590   4.810   0.315   6.460
29116WAT     H287591   4.878   0.214   6.351
29117WAT      O87592   3.571   4.098   0.345
29117WAT     H187593   3.628   4.049   0.411
29117WAT     H287594   3.493   4.139   0.392
29118WAT      O87595   7.079   0.106   9.705
29118WAT     H187596   7.002   0.044   9.721
29118WAT     H287597   7.114   0.139   9.792
29119WAT      O87598   0.410   0.180   4.787
29119WAT     H187599   0.474   0.187   4.864
29119WAT     H287600   0.442   0.110   4.723
29120WAT      O87601   6.935   1.457   1.317
29120WAT     H187602   6.899   1.376   1.361
29120WAT     H287603   6.903   1.461   1.222
29121WAT      O87604   4.579   0.255   9.207
29121WAT     H187605   4.543   0.199   9.282
29121WAT     H287606   4.676   0.274   9.224
29122WAT      O87607   0.511   7.403   3.442
29122WAT     H187608   0.582   7.465   3.476
29122WAT     H287609   0.421   7.444   3.459
29123WAT      O87610   6.586   4.968   7.983
29123WAT     H187611   6.535   4.892   7.943
29123WAT     H287612   6.592   4.955   8.082
29124WAT      O87613   6.069   0.778   2.636
29124WAT     H187614   6.108   0.698   2.590
29124WAT     H287615   5.978   0.797   2.598
29125WAT      O87616   0.298   0.762   8.795
29125WAT     H187617   0.354   0.839   8.765
29125WAT     H287618   0.211   0.796   8.831
29126WAT      O87619   0.073   8.822   6.289
29126WAT     H187620   0.164   8.813   6.248
29126WAT     H287621   0.004   8.795   6.222
29127WAT      O87622   4.013   9.305   5.896
29127WAT     H187623   4.002   9.207   5.882
29127WAT     H287624   3.931   9.341   5.941
29128WAT      O87625   1.802   4.951   1.136
29128WAT     H187626   1.799   4.957   1.235
29128WAT     H287627   1.748   5.026   1.096
29129WAT      O87628   5.364   6.415   7.197
29129WAT     H187629   5.360   6.495   7.256
29129WAT     H287630   5.306   6.343   7.235
29130WAT      O87631   4.900   2.356   7.864
29130WAT     H187632   4.881   2.290   7.792
29130WAT     H287633   4.849   2.332   7.946
29131WAT      O87634   9.565   1.366   1.052
29131WAT     H187635   9.487   1.401   0.999
29131WAT     H287636   9.641   1.347   0.991
29132WAT      O87637   0.847   8.865   4.167
29132WAT     H187638   0.924   8.903   4.116
29132WAT     H287639   0.818   8.931   4.237
29133WAT      O87640   1.913   2.519   1.131
29133WAT     H187641   1.981   2.592   1.139
29133WAT     H287642   1.881   2.493   1.222
29134WAT      O87643   9.762   3.375   6.262
29134WAT     H187644   9.736   3.451   6.321
29134WAT     H287645   9.857   3.387   6.233
29135WAT      O87646   5.911   4.425   1.504
29135WAT     H187647   5.878   4.339   1.466
29135WAT     H287648   5.839   4.466   1.561
29136WAT      O87649   4.338   1.940   5.721
29136WAT     H187650   4.327   1.862   5.659
29136WAT     H287651   4.299   1.917   5.810
29137WAT      O87652   7.431   9.378   9.621
29137WAT     H187653   7.437   9.349   9.525
29137WAT     H287654   7.362   9.449   9.630
29138WAT      O87655   4.845   6.262   4.297
29138WAT     H187656   4.831   6.200   4.374
29138WAT     H287657   4.920   6.324   4.318
29139WAT      O87658   8.987   1.073   7.040
29139WAT     H187659   8.899   1.118   7.050
29139WAT     H287660   9.036   1.076   7.127
29140WAT      O87661   7.620   9.090   8.260
29140WAT     H187662   7.588   9.122   8.170
29140WAT     H287663   7.560   9.018   8.293
29141WAT      O87664   0.543   6.672   0.494
29141WAT     H187665   0.577   6.577   0.495
29141WAT     H287666   0.480   6.684   0.418
29142WAT      O87667   3.230   4.722   6.651
29142WAT     H187668   3.330   4.724   6.653
29142WAT     H287669   3.198   4.712   6.557
29143WAT      O87670   8.590   5.736   2.633
29143WAT     H187671   8.611   5.758   2.728
29143WAT     H287672   8.526   5.803   2.596
29144WAT      O87673   7.765   2.985   3.053
29144WAT     H187674   7.706   3.039   3.114
29144WAT     H287675   7.713   2.906   3.020
29145WAT      O87676   8.566   4.728   1.995
29145WAT     H187677   8.522   4.814   1.969
29145WAT     H287678   8.501   4.652   1.985
29146WAT      O87679   0.631   3.907   3.703
29146WAT     H187680   0.707   3.851   3.673
29146WAT     H287681   0.557   3.903   3.635
29147WAT      O87682   1.606   3.020   0.044
29147WAT     H187683   1.570   2.937   0.087
29147WAT     H287684   1.554   3.040  -0.039
29148WAT      O87685   4.503   7.685   3.551
29148WAT     H187686   4.524   7.765   3.495
29148WAT     H287687   4.440   7.625   3.502
29149WAT      O87688   1.788   4.422   7.586
29149WAT     H187689   1.749   4.467   7.506
29149WAT     H287690   1.731   4.440   7.666
29150WAT      O87691   8.570   8.860   2.003
29150WAT     H187692   8.484   8.816   2.025
29150WAT     H287693   8.641   8.829   2.067
29151WAT      O87694   4.472   1.615   1.346
29151WAT     H187695   4.468   1.710   1.315
29151WAT     H287696   4.566   1.582   1.339
29152WAT      O87697   8.098   3.477   3.667
29152WAT     H187698   8.060   3.453   3.756
29152WAT     H287699   8.103   3.577   3.658
29153WAT      O87700   4.334   9.665   7.553
29153WAT     H187701   4.364   9.679   7.459
29153WAT     H287702   4.238   9.637   7.553
29154WAT      O87703   5.230   1.405   8.608
29154WAT     H187704   5.328   1.409   8.588
29154WAT     H287705   5.212   1.446   8.697
29155WAT      O87706   6.180   0.944   5.041
29155WAT     H187707   6.163   1.035   5.004
29155WAT     H287708   6.106   0.921   5.105
29156WAT      O87709   1.303   2.375   7.817
29156WAT     H187710   1.344   2.310   7.882
29156WAT     H287711   1.225   2.420   7.861
29157WAT      O87712   2.061   9.653   1.736
29157WAT     H187713   2.099   9.582   1.676
29157WAT     H287714   1.963   9.661   1.719
29158WAT      O87715   0.443   1.524   6.568
29158WAT     H187716   0.367   1.555   6.625
29158WAT     H287717   0.506   1.469   6.624
29159WAT      O87718   0.496   9.385   1.655
29159WAT     H187719   0.512   9.304   1.598
29159WAT     H287720   0.503   9.467   1.599
29160WAT      O87721   3.301   1.689   3.423
29160WAT     H187722   3.282   1.611   3.363
29160WAT     H287723   3.397   1.689   3.448
29161WAT      O87724   2.861   5.239   3.474
29161WAT     H187725   2.892   5.208   3.384
29161WAT     H287726   2.933   5.292   3.518
29162WAT      O87727   0.884   1.333   5.338
29162WAT     H187728   0.912   1.239   5.316
29162WAT     H287729   0.785   1.336   5.351
29163WAT      O87730   7.599   0.871   3.773
29163WAT     H187731   7.631   0.963   3.797
29163WAT     H287732   7.630   0.806   3.842
29164WAT      O87733   1.232   3.667   3.357
29164WAT     H187734   1.293   3.746   3.343
29164WAT     H287735   1.286   3.588   3.387
29165WAT      O87736   8.942   6.141   7.396
29165WAT     H187737   8.877   6.068   7.417
29165WAT     H287738   8.928   6.217   7.460
29166WAT      O87739   8.789   2.577   9.518
29166WAT     H187740   8.815   2.657   9.464
29166WAT     H287741   8.855   2.564   9.592
29167WAT      O87742   4.389   6.645   1.714
29167WAT     H187743   4.475   6.624   1.759
29167WAT     H287744   4.405   6.706   1.637
29168WAT      O87745   4.125   6.226   3.704
29168WAT     H187746   4.101   6.303   3.645
29168WAT     H287747   4.178   6.160   3.651
29169WAT      O87748   4.928   7.239   2.674
29169WAT     H187749   4.949   7.196   2.586
29169WAT     H287750   4.908   7.169   2.741
29170WAT      O87751   8.704   0.346   1.464
29170WAT     H187752   8.662   0.419   1.410
29170WAT     H287753   8.800   0.368   1.481
29171WAT      O87754   4.138   8.435   7.389
29171WAT     H187755   4.144   8.530   7.357
29171WAT     H287756   4.050   8.396   7.361
29172WAT      O87757   5.428   1.994   6.966
29172WAT     H187758   5.359   2.037   6.908
29172WAT     H287759   5.500   1.956   6.909
29173WAT      O87760   7.219   7.340   0.419
29173WAT     H187761   7.230   7.361   0.516
29173WAT     H287762   7.298   7.375   0.368
29174WAT      O87763   1.349   9.573   5.075
29174WAT     H187764   1.363   9.539   4.982
29174WAT     H287765   1.256   9.608   5.085
29175WAT      O87766   1.298   2.355   6.419
29175WAT     H187767   1.371   2.408   6.463
29175WAT     H287768   1.231   2.326   6.487
29176WAT      O87769   2.334   0.865   9.693
29176WAT     H187770   2.388   0.861   9.777
29176WAT     H287771   2.248   0.912   9.711
29177WAT      O87772   0.885   9.729   2.780
29177WAT     H187773   0.950   9.664   2.820
29177WAT     H287774   0.933   9.793   2.721
29178WAT      O87775   2.126   0.671   7.975
29178WAT     H187776   2.081   0.620   7.902
29178WAT     H287777   2.100   0.767   7.971
29179WAT      O87778   0.452   7.897   9.035
29179WAT     H187779   0.421   7.889   8.940
29179WAT     H287780   0.515   7.823   9.056
29180WAT      O87781   0.424   3.995   2.471
29180WAT     H187782   0.493   3.962   2.535
29180WAT     H287783   0.352   3.927   2.462
29181WAT      O87784   1.925   0.640   1.855
29181WAT     H187785   2.010   0.603   1.818
29181WAT     H287786   1.867   0.565   1.888
29182WAT      O87787   4.772   8.905   7.592
29182WAT     H187788   4.842   8.968   7.625
29182WAT     H287789   4.770   8.824   7.650
29183WAT      O87790   5.529   6.259   5.530
29183WAT     H187791   5.619   6.302   5.524
29183WAT     H287792   5.519   6.215   5.619
29184WAT      O87793   6.181   8.832   3.477
29184WAT     H187794   6.259   8.806   3.533
29184WAT     H287795   6.097   8.824   3.532
29185WAT      O87796   0.350   6.501   7.837
29185WAT     H187797   0.387   6.485   7.929
29185WAT     H287798   0.279   6.434   7.818
29186WAT      O87799   8.283   1.865   1.517
29186WAT     H187800   8.327   1.782   1.553
29186WAT     H287801   8.353   1.925   1.477
29187WAT      O87802   1.398   6.768   2.896
29187WAT     H187803   1.403   6.857   2.941
29187WAT     H287804   1.307   6.730   2.909
29188WAT      O87805   1.708   6.874   3.123
29188WAT     H187806   1.692   6.959   3.073
29188WAT     H287807   1.779   6.888   3.193
29189WAT      O87808   1.803   0.629   3.556
29189WAT     H187809   1.838   0.556   3.614
29189WAT     H287810   1.868   0.705   3.555
29190WAT      O87811   9.268   7.504   3.441
29190WAT     H187812   9.187   7.510   3.384
29190WAT     H287813   9.317   7.420   3.421
29191WAT      O87814   0.411   6.051   4.863
29191WAT     H187815   0.376   5.959   4.885
29191WAT     H287816   0.474   6.044   4.786
29192WAT      O87817   3.026   5.805   0.467
29192WAT     H187818   2.987   5.894   0.493
29192WAT     H287819   2.973   5.767   0.391
29193WAT      O87820   2.415   4.401   3.402
29193WAT     H187821   2.448   4.308   3.418
29193WAT     H287822   2.406   4.449   3.490
29194WAT      O87823   3.443   3.477   1.688
29194WAT     H187824   3.383   3.443   1.760
29194WAT     H287825   3.525   3.518   1.729
29195WAT      O87826   9.866   3.800   6.272
29195WAT     H187827   9.952   3.748   6.271
29195WAT     H287828   9.886   3.897   6.286
29196WAT      O87829   3.105   3.880   2.663
29196WAT     H187830   3.075   3.890   2.568
29196WAT     H287831   3.159   3.960   2.689
29197WAT      O87832   1.307   6.895   6.555
29197WAT     H187833   1.220   6.898   6.505
29197WAT     H287834   1.319   6.979   6.607
29198WAT      O87835   5.381   7.779   9.242
29198WAT     H187836   5.443   7.832   9.300
29198WAT     H287837   5.320   7.725   9.300
29199WAT      O87838   2.601   6.052   1.382
29199WAT     H187839   2.585   6.076   1.478
29199WAT     H287840   2.620   5.954   1.375
29200WAT      O87841   2.263   9.092   0.148
29200WAT     H187842   2.322   9.170   0.167
29200WAT     H287843   2.181   9.123   0.098
29201WAT      O87844   6.817   8.712   9.769
29201WAT     H187845   6.732   8.715   9.821
29201WAT     H287846   6.834   8.802   9.727
29202WAT      O87847   8.670   2.197   7.043
29202WAT     H187848   8.638   2.178   7.136
29202WAT     H287849   8.766   2.226   7.046
29203WAT      O87850   0.802   3.788   9.138
29203WAT     H187851   0.852   3.761   9.220
29203WAT     H287852   0.749   3.710   9.104
29204WAT      O87853   9.569   8.085   5.387
29204WAT     H187854   9.624   8.168   5.398
29204WAT     H287855   9.553   8.069   5.290
29205WAT      O87856   9.769   1.074   9.327
29205WAT     H187857   9.718   1.082   9.242
29205WAT     H287858   9.842   1.007   9.316
29206WAT      O87859   8.916   0.332   8.705
29206WAT     H187860   8.849   0.400   8.732
29206WAT     H287861   8.998   0.342   8.762
29207WAT      O87862   7.214   8.940   1.290
29207WAT     H187863   7.307   8.905   1.298
29207WAT     H287864   7.202   9.017   1.353
29208WAT      O87865   6.735   0.973   4.177
29208WAT     H187866   6.793   0.912   4.231
29208WAT     H287867   6.661   0.920   4.135
29209WAT      O87868   4.640   1.527   7.797
29209WAT     H187869   4.589   1.485   7.873
29209WAT     H287870   4.686   1.455   7.745
29210WAT      O87871   3.015   7.683   1.814
29210WAT     H187872   3.095   7.639   1.855
29210WAT     H287873   3.044   7.757   1.754
29211WAT      O87874   5.708   9.654   6.814
29211WAT     H187875   5.675   9.561   6.797
29211WAT     H287876   5.672   9.715   6.743
29212WAT      O87877   7.959   8.425   5.298
29212WAT     H187878   8.057   8.441   5.299
29212WAT     H287879   7.932   8.379   5.383
29213WAT      O87880   0.970   5.582   5.227
29213WAT     H187881   1.023   5.500   5.249
29213WAT     H287882   0.950   5.584   5.129
29214WAT      O87883   1.931   4.627   3.034
29214WAT     H187884   1.950   4.701   2.970
29214WAT     H287885   1.923   4.663   3.126
29215WAT      O87886   9.632   7.762   0.471
29215WAT     H187887   9.572   7.765   0.390
29215WAT     H287888   9.718   7.717   0.446
29216WAT      O87889   6.499   6.887   7.687
29216WAT     H187890   6.474   6.888   7.590
29216WAT     H287891   6.594   6.918   7.696
29217WAT      O87892   0.484   4.691   2.471
29217WAT     H187893   0.480   4.653   2.564
29217WAT     H287894   0.577   4.680   2.435
29218WAT      O87895   3.020   6.864   2.143
29218WAT     H187896   2.968   6.947   2.163
29218WAT     H287897   3.042   6.861   2.046
29219WAT      O87898   9.659   6.128   4.595
29219WAT     H187899   9.724   6.202   4.612
29219WAT     H287900   9.681   6.050   4.653
29220WAT      O87901   4.514   7.811   0.784
29220WAT     H187902   4.584   7.767   0.729
29220WAT     H287903   4.448   7.857   0.724
29221WAT      O87904   4.509   9.069   0.668
29221WAT     H187905   4.549   9.120   0.744
29221WAT     H287906   4.443   9.126   0.620
29222WAT      O87907   8.949   4.414   6.881
29222WAT     H187908   8.991   4.400   6.791
29222WAT     H287909   8.872   4.478   6.872
29223WAT      O87910   5.506   6.382   2.362
29223WAT     H187911   5.433   6.314   2.366
29223WAT     H287912   5.593   6.340   2.385
29224WAT      O87913   7.027   7.643   1.143
29224WAT     H187914   7.052   7.731   1.183
29224WAT     H287915   6.928   7.630   1.150
29225WAT      O87916   2.016   8.936   4.551
29225WAT     H187917   1.956   8.910   4.627
29225WAT     H287918   2.055   8.855   4.509
29226WAT      O87919   1.861   5.493   8.357
29226WAT     H187920   1.830   5.400   8.335
29226WAT     H287921   1.958   5.491   8.380
29227WAT      O87922   8.874   9.104   0.343
29227WAT     H187923   8.885   9.187   0.289
29227WAT     H287924   8.932   9.110   0.425
29228WAT      O87925   4.929   5.997   8.714
29228WAT     H187926   4.860   5.925   8.703
29228WAT     H287927   4.956   6.030   8.623
29229WAT      O87928   8.151   4.443   8.857
29229WAT     H187929   8.163   4.344   8.862
29229WAT     H287930   8.222   4.488   8.913
29230WAT      O87931   2.024   8.408   7.776
29230WAT     H187932   1.991   8.363   7.694
29230WAT     H287933   2.065   8.496   7.751
29231WAT      O87934   2.045   3.196   1.571
29231WAT     H187935   1.965   3.173   1.516
29231WAT     H287936   2.126   3.202   1.512
29232WAT      O87937   9.407   8.466   3.960
29232WAT     H187938   9.350   8.513   4.027
29232WAT     H287939   9.414   8.369   3.984
29233WAT      O87940   1.062   4.480   9.686
29233WAT     H187941   0.996   4.532   9.632
29233WAT     H287942   1.049   4.500   9.783
29234WAT      O87943   3.638   0.124   6.900
29234WAT     H187944   3.717   0.065   6.913
29234WAT     H287945   3.572   0.078   6.840
29235WAT      O87946   0.412   6.907   6.508
29235WAT     H187947   0.502   6.948   6.492
29235WAT     H287948   0.398   6.831   6.444
29236WAT      O87949   9.759   4.639   2.476
29236WAT     H187950   9.784   4.554   2.523
29236WAT     H287951   9.689   4.621   2.408
29237WAT      O87952   9.132   7.656   3.075
29237WAT     H187953   9.061   7.665   3.006
29237WAT     H287954   9.094   7.611   3.156
29238WAT      O87955   6.004   8.976   9.452
29238WAT     H187956   5.917   8.946   9.414
29238WAT     H287957   6.046   9.044   9.392
29239WAT      O87958   9.724   9.423   8.195
29239WAT     H187959   9.665   9.346   8.170
29239WAT     H287960   9.820   9.394   8.189
29240WAT      O87961   8.008   0.064   2.219
29240WAT     H187962   8.009  -0.018   2.277
29240WAT     H287963   7.989   0.144   2.275
29241WAT      O87964   8.452   5.272   2.857
29241WAT     H187965   8.426   5.252   2.762
29241WAT     H287966   8.466   5.186   2.906
29242WAT      O87967   4.567   7.009   3.277
29242WAT     H187968   4.581   6.951   3.197
29242WAT     H287969   4.590   6.957   3.360
29243WAT      O87970   4.526   1.473   9.609
29243WAT     H187971   4.456   1.462   9.679
29243WAT     H287972   4.546   1.571   9.596
29244WAT      O87973   2.937   8.779   3.403
29244WAT     H187974   2.923   8.771   3.502
29244WAT     H287975   2.936   8.876   3.378
29245WAT      O87976   5.065   4.760   6.155
29245WAT     H187977   5.003   4.829   6.191
29245WAT     H287978   5.146   4.755   6.213
29246WAT      O87979   4.506   9.429   8.910
29246WAT     H187980   4.463   9.515   8.938
29246WAT     H287981   4.604   9.444   8.897
29247WAT      O87982   3.790   1.941   0.368
29247WAT     H187983   3.889   1.928   0.362
29247WAT     H287984   3.770   2.038   0.380
29248WAT      O87985   0.933   2.039   1.717
29248WAT     H187986   1.008   1.993   1.670
29248WAT     H287987   0.969   2.101   1.787
29249WAT      O87988   6.717   4.359   7.482
29249WAT     H187989   6.655   4.388   7.410
29249WAT     H287990   6.782   4.292   7.446
29250WAT      O87991   0.801   7.279   1.198
29250WAT     H187992   0.741   7.200   1.185
29250WAT     H287993   0.749   7.363   1.188
29251WAT      O87994   3.946   7.267   1.271
29251WAT     H187995   3.978   7.211   1.347
29251WAT     H287996   3.886   7.213   1.211
29252WAT      O87997   1.823   5.789   6.743
29252WAT     H187998   1.852   5.857   6.811
29252WAT     H287999   1.805   5.702   6.789
29253WAT      O88000   0.916   4.207   1.779
29253WAT     H188001   0.845   4.244   1.837
29253WAT     H288002   0.966   4.135   1.828
29254WAT      O88003   0.194   3.026   2.527
29254WAT     H188004   0.166   2.933   2.504
29254WAT     H288005   0.204   3.080   2.443
29255WAT      O88006   2.459   0.531   1.151
29255WAT     H188007   2.526   0.490   1.213
29255WAT     H288008   2.501   0.548   1.062
29256WAT      O88009   5.968   5.684   1.762
29256WAT     H188010   5.941   5.760   1.821
29256WAT     H288011   6.041   5.713   1.700
29257WAT      O88012   4.773   0.757   0.541
29257WAT     H188013   4.683   0.715   0.552
29257WAT     H288014   4.828   0.740   0.623
29258WAT      O88015   3.736   7.780   8.421
29258WAT     H188016   3.768   7.721   8.495
29258WAT     H288017   3.759   7.875   8.443
29259WAT      O88018   4.073   0.588   8.685
29259WAT     H188019   4.171   0.609   8.692
29259WAT     H288020   4.056   0.537   8.601
29260WAT      O88021   0.561   8.525   7.006
29260WAT     H188022   0.469   8.493   6.986
29260WAT     H288023   0.619   8.448   7.033
29261WAT      O88024   3.973   9.715   4.289
29261WAT     H188025   3.932   9.805   4.270
29261WAT     H288026   4.036   9.723   4.367
29262WAT      O88027   4.641   0.279   7.573
29262WAT     H188028   4.555   0.273   7.522
29262WAT     H288029   4.665   0.189   7.609
29263WAT      O88030   0.199   1.189   8.005
29263WAT     H188031   0.241   1.272   8.042
29263WAT     H288032   0.266   1.138   7.953
29264WAT      O88033   3.958   2.300   2.624
29264WAT     H188034   3.992   2.393   2.617
29264WAT     H288035   4.034   2.237   2.638
29265WAT      O88036   9.226   8.441   9.317
29265WAT     H188037   9.216   8.539   9.300
29265WAT     H288038   9.323   8.416   9.316
29266WAT      O88039   0.681   7.803   2.149
29266WAT     H188040   0.724   7.867   2.213
29266WAT     H288041   0.646   7.854   2.070
29267WAT      O88042   0.566   2.549   4.623
29267WAT     H188043   0.610   2.623   4.673
29267WAT     H288044   0.622   2.525   4.544
29268WAT      O88045   4.392   0.564   8.093
29268WAT     H188046   4.464   0.504   8.127
29268WAT     H288047   4.427   0.618   8.016
29269WAT      O88048   1.919   1.809   2.833
29269WAT     H188049   1.904   1.899   2.792
29269WAT     H288050   1.936   1.819   2.931
29270WAT      O88051   4.562   5.449   0.364
29270WAT     H188052   4.526   5.395   0.288
29270WAT     H288053   4.551   5.398   0.449
29271WAT      O88054   2.027   6.941   7.393
29271WAT     H188055   1.954   6.962   7.458
29271WAT     H288056   2.115   6.972   7.430
29272WAT      O88057   5.533   1.944   4.844
29272WAT     H188058   5.445   1.984   4.819
29272WAT     H288059   5.600   2.017   4.858
29273WAT      O88060   9.054   4.307   4.282
29273WAT     H188061   9.073   4.395   4.239
29273WAT     H288062   9.052   4.317   4.381
29274WAT      O88063   8.465   3.066   9.630
29274WAT     H188064   8.421   2.978   9.650
29274WAT     H288065   8.563   3.053   9.620
29275WAT      O88066   5.273   8.700   8.148
29275WAT     H188067   5.371   8.720   8.151
29275WAT     H288068   5.254   8.619   8.204
29276WAT      O88069   5.076   5.686   7.579
29276WAT     H188070   5.068   5.780   7.545
29276WAT     H288071   5.105   5.626   7.504
29277WAT      O88072   8.928   7.371   1.891
29277WAT     H188073   9.017   7.417   1.887
29277WAT     H288074   8.942   7.274   1.910
29278WAT      O88075   1.854   5.563   1.788
29278WAT     H188076   1.878   5.660   1.789
29278WAT     H288077   1.836   5.534   1.694
29279WAT      O88078   6.953   1.485   3.783
29279WAT     H188079   6.989   1.438   3.702
29279WAT     H288080   6.875   1.542   3.756
29280WAT      O88081   3.215   1.818   4.447
29280WAT     H188082   3.143   1.755   4.474
29280WAT     H288083   3.292   1.766   4.409
29281WAT      O88084   0.912   2.043   9.390
29281WAT     H188085   0.961   2.130   9.380
29281WAT     H288086   0.958   1.973   9.336
29282WAT      O88087   5.260   1.409   3.456
29282WAT     H188088   5.326   1.480   3.433
29282WAT     H288089   5.237   1.357   3.374
29283WAT      O88090   2.136   3.362   6.976
29283WAT     H188091   2.099   3.453   6.958
29283WAT     H288092   2.101   3.329   7.064
29284WAT      O88093   2.137   2.423   7.316
29284WAT     H188094   2.095   2.490   7.378
29284WAT     H288095   2.091   2.428   7.227
29285WAT      O88096   5.320   1.728   4.874
29285WAT     H188097   5.414   1.759   4.864
29285WAT     H288098   5.262   1.805   4.901
29286WAT      O88099   9.475   8.331   0.136
29286WAT     H188100   9.473   8.425   0.102
29286WAT     H288101   9.458   8.330   0.234
29287WAT      O88102   5.566   9.737   7.285
29287WAT     H188103   5.625   9.691   7.218
29287WAT     H288104   5.503   9.798   7.237
29288WAT      O88105   0.119   4.879   5.400
29288WAT     H188106   0.215   4.887   5.370
29288WAT     H288107   0.075   4.968   5.393
29289WAT      O88108   2.571   1.322   3.366
29289WAT     H188109   2.505   1.369   3.307
29289WAT     H288110   2.643   1.281   3.309
29290WAT      O88111   0.519   4.839   5.579
29290WAT     H188112   0.508   4.888   5.665
29290WAT     H288113   0.502   4.741   5.593
29291WAT      O88114   1.738   5.379   4.102
29291WAT     H188115   1.731   5.479   4.109
29291WAT     H288116   1.831   5.350   4.124
29292WAT      O88117   5.788   3.644   7.996
29292WAT     H188118   5.805   3.551   7.965
29292WAT     H288119   5.692   3.655   8.021
29293WAT      O88120   0.217   0.508   3.702
29293WAT     H188121   0.139   0.509   3.639
29293WAT     H288122   0.188   0.534   3.793
29294WAT      O88123   7.566   4.313   7.093
29294WAT     H188124   7.568   4.350   7.000
29294WAT     H288125   7.553   4.214   7.089
29295WAT      O88126   3.136   1.491   2.642
29295WAT     H188127   3.059   1.509   2.702
29295WAT     H288128   3.180   1.577   2.616
29296WAT      O88129   4.300   7.739   7.582
29296WAT     H188130   4.265   7.801   7.652
29296WAT     H288131   4.254   7.759   7.495
29297WAT      O88132   8.067   1.285   4.709
29297WAT     H188133   8.094   1.222   4.782
29297WAT     H288134   8.144   1.346   4.688
29298WAT      O88135   5.575   0.957   3.163
29298WAT     H188136   5.622   1.045   3.172
29298WAT     H288137   5.622   0.900   3.096
29299WAT      O88138   3.094   5.688   1.178
29299WAT     H188139   3.032   5.676   1.255
29299WAT     H288140   3.079   5.778   1.136
29300WAT      O88141   8.933   6.445   1.523
29300WAT     H188142   8.903   6.352   1.505
29300WAT     H288143   8.860   6.509   1.500
29301WAT      O88144   5.729   5.313   0.138
29301WAT     H188145   5.746   5.389   0.201
29301WAT     H288146   5.630   5.299   0.128
29302WAT      O88147   5.795   1.174   8.157
29302WAT     H188148   5.868   1.194   8.222
29302WAT     H288149   5.833   1.161   8.066
29303WAT      O88150   2.561   5.451   4.885
29303WAT     H188151   2.575   5.499   4.972
29303WAT     H288152   2.588   5.355   4.896
29304WAT      O88153   1.509   6.173   4.594
29304WAT     H188154   1.447   6.098   4.570
29304WAT     H288155   1.459   6.244   4.644
29305WAT      O88156   1.276   5.873   1.066
29305WAT     H188157   1.289   5.776   1.087
29305WAT     H288158   1.201   5.909   1.120
29306WAT      O88159   0.532   5.167   1.539
29306WAT     H188160   0.460   5.235   1.551
29306WAT     H288161   0.542   5.114   1.623
29307WAT      O88162   9.849   5.372   5.709
29307WAT     H188163   9.755   5.345   5.731
29307WAT     H288164   9.907   5.359   5.789
29308WAT      O88165   5.644   3.756   1.614
29308WAT     H188166   5.722   3.744   1.553
29308WAT     H288167   5.676   3.770   1.708
29309WAT      O88168   4.041   2.471   8.622
29309WAT     H188169   4.070   2.447   8.715
29309WAT     H288170   3.969   2.541   8.627
29310WAT      O88171   4.853   7.791   3.508
29310WAT     H188172   4.920   7.723   3.475
29310WAT     H288173   4.840   7.781   3.606
29311WAT      O88174   7.080   6.092   0.813
29311WAT     H188175   7.177   6.112   0.801
29311WAT     H288176   7.035   6.170   0.858
29312WAT      O88177   4.155   5.906   7.073
29312WAT     H188178   4.215   5.964   7.017
29312WAT     H288179   4.146   5.946   7.164
29313WAT      O88180   5.138   5.585   3.872
29313WAT     H188181   5.215   5.607   3.932
29313WAT     H288182   5.079   5.665   3.861
29314WAT      O88183   7.310   3.383   2.633
29314WAT     H188184   7.274   3.402   2.542
29314WAT     H288185   7.244   3.329   2.685
29315WAT      O88186   0.853   7.188   6.747
29315WAT     H188187   0.774   7.213   6.804
29315WAT     H288188   0.933   7.242   6.776
29316WAT      O88189   9.039   9.689   1.724
29316WAT     H188190   9.007   9.639   1.804
29316WAT     H288191   8.968   9.688   1.653
29317WAT      O88192   8.097   4.738   3.483
29317WAT     H188193   8.082   4.801   3.407
29317WAT     H288194   8.048   4.770   3.564
29318WAT      O88195   6.922   6.825   9.269
29318WAT     H188196   6.890   6.920   9.263
29318WAT     H288197   6.845   6.765   9.289
29319WAT      O88198   5.366   3.585   5.443
29319WAT     H188199   5.317   3.535   5.372
29319WAT     H288200   5.446   3.630   5.402
29320WAT      O88201   7.578   6.371   0.281
29320WAT     H188202   7.533   6.284   0.265
29320WAT     H288203   7.664   6.375   0.231
29321WAT      O88204   4.483   5.308   4.655
29321WAT     H188205   4.517   5.235   4.596
29321WAT     H288206   4.509   5.289   4.750
29322WAT      O88207   6.207   5.186   2.161
29322WAT     H188208   6.296   5.193   2.115
29322WAT     H288209   6.220   5.192   2.260
29323WAT      O88210   2.659   8.542   8.537
29323WAT     H188211   2.584   8.477   8.549
29323WAT     H288212   2.726   8.504   8.473
29324WAT      O88213   9.247   8.334   2.028
29324WAT     H188214   9.222   8.368   2.118
29324WAT     H288215   9.304   8.402   1.981
29325WAT      O88216   8.476   8.954   1.072
29325WAT     H188217   8.555   9.013   1.060
29325WAT     H288218   8.444   8.921   0.983
29326WAT      O88219   7.550   7.724   5.396
29326WAT     H188220   7.522   7.681   5.481
29326WAT     H288221   7.493   7.690   5.321
29327WAT      O88222   2.647   1.296   2.856
29327WAT     H188223   2.565   1.244   2.836
29327WAT     H288224   2.623   1.379   2.906
29328WAT      O88225   4.917   7.002   3.561
29328WAT     H188226   4.830   6.958   3.583
29328WAT     H288227   4.901   7.100   3.544
29329WAT      O88228   4.001   1.060   6.742
29329WAT     H188229   4.095   1.068   6.709
29329WAT     H288230   4.001   1.041   6.840
29330WAT      O88231   8.235   3.142   6.872
29330WAT     H188232   8.268   3.048   6.886
29330WAT     H288233   8.282   3.203   6.936
29331WAT      O88234   1.930   1.845   2.200
29331WAT     H188235   1.994   1.778   2.237
29331WAT     H288236   1.977   1.933   2.191
29332WAT      O88237   6.666   3.703   7.061
29332WAT     H188238   6.710   3.790   7.038
29332WAT     H288239   6.632   3.707   7.155
29333WAT      O88240   0.407   1.138   6.513
29333WAT     H188241   0.459   1.091   6.442
29333WAT     H288242   0.309   1.122   6.500
29334WAT      O88243   2.869   7.615   9.203
29334WAT     H188244   2.914   7.644   9.287
29334WAT     H288245   2.874   7.688   9.135
29335WAT      O88246   4.890   1.036   4.766
29335WAT     H188247   4.942   0.960   4.804
29335WAT     H288248   4.862   1.098   4.840
29336WAT      O88249   1.820   3.711   0.545
29336WAT     H188250   1.795   3.746   0.454
29336WAT     H288251   1.891   3.769   0.584
29337WAT      O88252   1.916   6.111   0.402
29337WAT     H188253   2.013   6.131   0.417
29337WAT     H288254   1.904   6.075   0.309
29338WAT      O88255   5.871  -0.000   8.837
29338WAT     H188256   5.966  -0.021   8.812
29338WAT     H288257   5.870   0.074   8.904
29339WAT      O88258   7.790   9.260   6.097
29339WAT     H188259   7.816   9.183   6.156
29339WAT     H288260   7.872   9.309   6.068
29340WAT      O88261   9.072   7.592   1.521
29340WAT     H188262   9.062   7.607   1.422
29340WAT     H288263   8.995   7.539   1.555
29341WAT      O88264   4.541   7.577   8.916
29341WAT     H188265   4.535   7.674   8.894
29341WAT     H288266   4.565   7.526   8.834
29342WAT      O88267   9.332   4.512   5.392
29342WAT     H188268   9.259   4.449   5.418
29342WAT     H288269   9.291   4.597   5.360
29343WAT      O88270   6.981   8.514   6.899
29343WAT     H188271   6.929   8.442   6.944
29343WAT     H288272   6.991   8.592   6.961
29344WAT      O88273   8.224   8.318   1.666
29344WAT     H188274   8.242   8.382   1.741
29344WAT     H288275   8.308   8.304   1.614
29345WAT      O88276   9.440   5.260   0.582
29345WAT     H188277   9.534   5.274   0.551
29345WAT     H288278   9.439   5.244   0.681
29346WAT      O88279   8.304   5.755   6.064
29346WAT     H188280   8.371   5.700   6.116
29346WAT     H288281   8.352   5.818   6.004
29347WAT      O88282   7.694   8.842   6.441
29347WAT     H188283   7.702   8.902   6.362
29347WAT     H288284   7.698   8.896   6.525
29348WAT      O88285   1.809   8.206   5.459
29348WAT     H188286   1.827   8.228   5.555
29348WAT     H288287   1.760   8.283   5.417
29349WAT      O88288   5.862   5.717   3.732
29349WAT     H188289   5.855   5.618   3.718
29349WAT     H288290   5.805   5.764   3.664
29350WAT      O88291   7.031   4.957   0.067
29350WAT     H188292   7.075   4.905   0.140
29350WAT     H288293   7.030   5.054   0.091
29351WAT      O88294   1.135   2.584   0.728
29351WAT     H188295   1.160   2.548   0.818
29351WAT     H288296   1.056   2.535   0.692
29352WAT      O88297   2.389   7.898   1.683
29352WAT     H188298   2.430   7.812   1.715
29352WAT     H288299   2.367   7.890   1.586
29353WAT      O88300   8.314   3.318   7.104
29353WAT     H188301   8.362   3.250   7.161
29353WAT     H288302   8.216   3.314   7.124
29354WAT      O88303   3.462   5.082   1.679
29354WAT     H188304   3.389   5.013   1.678
29354WAT     H288305   3.445   5.149   1.606
29355WAT      O88306   3.687   3.078   6.624
29355WAT     H188307   3.736   3.025   6.693
29355WAT     H288308   3.737   3.073   6.537
29356WAT      O88309   4.944   8.877   8.908
29356WAT     H188310   4.922   8.925   8.994
29356WAT     H288311   4.992   8.940   8.847
29357WAT      O88312   2.594   5.705   9.379
29357WAT     H188313   2.663   5.633   9.379
29357WAT     H288314   2.522   5.682   9.444
29358WAT      O88315   9.246   7.379   1.490
29358WAT     H188316   9.199   7.467   1.495
29358WAT     H288317   9.211   7.326   1.413
29359WAT      O88318   8.455   8.540   1.994
29359WAT     H188319   8.438   8.477   2.069
29359WAT     H288320   8.524   8.502   1.933
29360WAT      O88321   9.670   0.643   3.887
29360WAT     H188322   9.731   0.629   3.965
29360WAT     H288323   9.719   0.690   3.814
29361WAT      O88324   9.480   3.159   7.160
29361WAT     H188325   9.554   3.093   7.172
29361WAT     H288326   9.514   3.251   7.180
29362WAT      O88327   5.956   3.698   9.096
29362WAT     H188328   5.999   3.621   9.143
29362WAT     H288329   6.020   3.775   9.090
29363WAT      O88330   4.259   4.888   8.585
29363WAT     H188331   4.242   4.951   8.510
29363WAT     H288332   4.174   4.844   8.612
29364WAT      O88333   7.898   7.502   6.324
29364WAT     H188334   7.897   7.551   6.411
29364WAT     H288335   7.820   7.530   6.269
29365WAT      O88336   7.852   2.409   7.654
29365WAT     H188337   7.805   2.333   7.608
29365WAT     H288338   7.815   2.496   7.622
29366WAT      O88339   9.246   2.260   4.162
29366WAT     H188340   9.160   2.275   4.114
29366WAT     H288341   9.277   2.347   4.203
29367WAT      O88342   3.645   6.211   1.805
29367WAT     H188343   3.549   6.184   1.807
29367WAT     H288344   3.690   6.167   1.727
29368WAT      O88345   9.470   8.554   6.732
29368WAT     H188346   9.461   8.505   6.819
29368WAT     H288347   9.380   8.587   6.703
29369WAT      O88348   2.585   4.358   1.888
29369WAT     H188349   2.684   4.343   1.893
29369WAT     H288350   2.549   4.314   1.806
29370WAT      O88351   0.908   1.962   6.847
29370WAT     H188352   0.820   1.937   6.805
29370WAT     H288353   0.965   2.008   6.779
29371WAT      O88354   9.859   5.765   5.103
29371WAT     H188355   9.847   5.675   5.060
29371WAT     H288356   9.770   5.811   5.110
29372WAT      O88357   3.306   9.133   7.036
29372WAT     H188358   3.308   9.048   7.089
29372WAT     H288359   3.367   9.200   7.078
29373WAT      O88360   3.061   2.247   0.052
29373WAT     H188361   3.068   2.153   0.086
29373WAT     H288362   2.967   2.265   0.024
29374WAT      O88363   7.931   0.610   3.867
29374WAT     H188364   8.007   0.634   3.807
29374WAT     H288365   7.967   0.578   3.955
29375WAT      O88366   0.387   6.516   4.346
29375WAT     H188367   0.364   6.612   4.365
29375WAT     H288368   0.305   6.467   4.318
29376WAT      O88369   6.116   7.365   4.268
29376WAT     H188370   6.095   7.461   4.288
29376WAT     H288371   6.033   7.318   4.238
29377WAT      O88372   7.862   4.716   6.553
29377WAT     H188373   7.850   4.814   6.534
29377WAT     H288374   7.898   4.704   6.646
29378WAT      O88375   9.327   2.534   3.132
29378WAT     H188376   9.382   2.528   3.216
29378WAT     H288377   9.387   2.551   3.054
29379WAT      O88378   6.242   0.247   6.472
29379WAT     H188379   6.170   0.220   6.407
29379WAT     H288380   6.284   0.332   6.441
29380WAT      O88381   6.366   7.663   7.878
29380WAT     H188382   6.405   7.611   7.954
29380WAT     H288383   6.437   7.681   7.810
29381WAT      O88384   8.821   7.834   8.437
29381WAT     H188385   8.805   7.745   8.479
29381WAT     H288386   8.890   7.826   8.366
29382WAT      O88387   8.141   2.495   2.746
29382WAT     H188388   8.063   2.507   2.684
29382WAT     H288389   8.116   2.525   2.838
29383WAT      O88390   6.973   7.995   2.247
29383WAT     H188391   7.037   8.021   2.320
29383WAT     H288392   6.918   8.075   2.221
29384WAT      O88393   4.469   8.853   5.653
29384WAT     H188394   4.437   8.836   5.747
29384WAT     H288395   4.569   8.860   5.653
29385WAT      O88396   2.325   7.825   6.035
29385WAT     H188397   2.258   7.756   6.064
29385WAT     H288398   2.404   7.779   5.994
29386WAT      O88399   9.118   0.879   7.377
29386WAT     H188400   9.039   0.819   7.394
29386WAT     H288401   9.161   0.903   7.464
29387WAT      O88402   7.297   8.211   1.787
29387WAT     H188403   7.260   8.142   1.849
29387WAT     H288404   7.245   8.296   1.798
29388WAT      O88405   6.542   2.685   5.475
29388WAT     H188406   6.545   2.594   5.434
29388WAT     H288407   6.618   2.695   5.539
29389WAT      O88408   9.097   2.131   5.641
29389WAT     H188409   9.095   2.055   5.576
29389WAT     H288410   9.061   2.213   5.596
29390WAT      O88411   5.166   5.597   7.984
29390WAT     H188412   5.126   5.546   7.908
29390WAT     H288413   5.142   5.553   8.071
29391WAT      O88414   6.218   4.397   8.689
29391WAT     H188415   6.238   4.468   8.621
29391WAT     H288416   6.201   4.440   8.777
29392WAT      O88417   4.103   6.289   4.224
29392WAT     H188418   4.027   6.332   4.274
29392WAT     H288419   4.093   6.307   4.127
29393WAT      O88420   7.253   5.046   0.413
29393WAT     H188421   7.298   5.096   0.339
29393WAT     H288422   7.230   4.954   0.382
29394WAT      O88423   3.510   1.615   4.881
29394WAT     H188424   3.592   1.661   4.847
29394WAT     H288425   3.522   1.516   4.875
29395WAT      O88426   5.379   7.562   7.436
29395WAT     H188427   5.423   7.650   7.456
29395WAT     H288428   5.437   7.488   7.470
29396WAT      O88429   7.304   3.919   6.879
29396WAT     H188430   7.257   4.008   6.873
29396WAT     H288431   7.354   3.902   6.795
29397WAT      O88432   2.995   9.006   8.369
29397WAT     H188433   3.093   9.024   8.365
29397WAT     H288434   2.946   9.090   8.393
29398WAT      O88435   1.086   3.729   4.625
29398WAT     H188436   1.117   3.823   4.637
29398WAT     H288437   1.113   3.674   4.704
29399WAT      O88438   2.743   9.630   9.258
29399WAT     H188439   2.828   9.577   9.259
29399WAT     H288440   2.759   9.718   9.213
29400WAT      O88441   2.692   5.972   9.412
29400WAT     H188442   2.673   5.874   9.408
29400WAT     H288443   2.775   5.987   9.467
29401WAT      O88444   4.202   3.529   1.705
29401WAT     H188445   4.300   3.531   1.685
29401WAT     H288446   4.185   3.578   1.791
29402WAT      O88447   0.887   7.356   9.021
29402WAT     H188448   0.943   7.331   9.100
29402WAT     H288449   0.827   7.432   9.045
29403WAT      O88450   7.749   1.563   8.965
29403WAT     H188451   7.751   1.609   9.054
29403WAT     H288452   7.792   1.622   8.896
29404WAT      O88453   3.758   7.620   8.685
29404WAT     H188454   3.818   7.540   8.673
29404WAT     H288455   3.667   7.599   8.648
29405WAT      O88456   1.421   3.252   7.015
29405WAT     H188457   1.508   3.271   6.970
29405WAT     H288458   1.438   3.210   7.104
29406WAT      O88459   8.638   1.931   6.558
29406WAT     H188460   8.550   1.907   6.599
29406WAT     H288461   8.711   1.906   6.621
29407WAT      O88462   5.120   1.372   2.935
29407WAT     H188463   5.184   1.446   2.952
29407WAT     H288464   5.165   1.284   2.951
29408WAT      O88465   4.931   3.710   1.137
29408WAT     H188466   5.023   3.671   1.139
29408WAT     H288467   4.935   3.806   1.163
29409WAT      O88468   8.398   2.287   0.167
29409WAT     H188469   8.422   2.209   0.110
29409WAT     H288470   8.400   2.260   0.263
29410WAT      O88471   3.408   7.740   9.684
29410WAT     H188472   3.486   7.794   9.653
29410WAT     H288473   3.324   7.793   9.674
29411WAT      O88474   6.820   1.992   7.197
29411WAT     H188475   6.763   2.072   7.216
29411WAT     H288476   6.912   2.008   7.233
29412WAT      O88477   8.122   0.996   3.225
29412WAT     H188478   8.094   0.995   3.129
29412WAT     H288479   8.149   0.904   3.254
29413WAT      O88480   7.317   0.577   3.867
29413WAT     H188481   7.226   0.535   3.869
29413WAT     H288482   7.366   0.551   3.950
29414WAT      O88483   7.193   9.333   3.803
29414WAT     H188484   7.251   9.414   3.816
29414WAT     H288485   7.100   9.354   3.834
29415WAT      O88486   3.323   0.870   2.160
29415WAT     H188487   3.273   0.926   2.095
29415WAT     H288488   3.377   0.802   2.111
29416WAT      O88489   4.252   4.702   8.246
29416WAT     H188490   4.336   4.654   8.274
29416WAT     H288491   4.178   4.636   8.236
29417WAT      O88492   8.565   0.260   4.120
29417WAT     H188493   8.500   0.243   4.195
29417WAT     H288494   8.622   0.179   4.106
29418WAT      O88495   9.506   0.041   8.532
29418WAT     H188496   9.569   0.117   8.518
29418WAT     H288497   9.412   0.076   8.527
29419WAT      O88498   9.594   0.983   8.862
29419WAT     H188499   9.613   0.909   8.797
29419WAT     H288500   9.530   1.048   8.820
29420WAT      O88501   0.835   9.668   2.249
29420WAT     H188502   0.816   9.574   2.219
29420WAT     H288503   0.926   9.695   2.219
29421WAT      O88504   5.311   2.433   0.556
29421WAT     H188505   5.277   2.432   0.650
29421WAT     H288506   5.292   2.345   0.513
29422WAT      O88507   3.750   1.536   7.976
29422WAT     H188508   3.719   1.607   8.039
29422WAT     H288509   3.849   1.530   7.978
29423WAT      O88510   7.054   3.182   4.863
29423WAT     H188511   7.026   3.268   4.906
29423WAT     H288512   6.987   3.156   4.794
29424WAT      O88513   0.725   2.579   4.394
29424WAT     H188514   0.743   2.515   4.319
29424WAT     H288515   0.653   2.643   4.368
29425WAT      O88516   8.169   9.568   2.955
29425WAT     H188517   8.262   9.599   2.936
29425WAT     H288518   8.103   9.639   2.930
29426WAT      O88519   3.298   4.420   3.156
29426WAT     H188520   3.347   4.367   3.088
29426WAT     H288521   3.315   4.381   3.247
29427WAT      O88522   0.823   3.129   9.372
29427WAT     H188523   0.783   3.048   9.330
29427WAT     H288524   0.812   3.207   9.310
29428WAT      O88525   6.653   1.907   4.295
29428WAT     H188526   6.562   1.897   4.336
29428WAT     H288527   6.676   1.824   4.245
29429WAT      O88528   8.176   0.356   1.920
29429WAT     H188529   8.233   0.314   1.849
29429WAT     H288530   8.186   0.306   2.005
29430WAT      O88531   0.526   0.036   3.975
29430WAT     H188532   0.503  -0.017   4.057
29430WAT     H288533   0.620   0.069   3.981
29431WAT      O88534   1.445   9.488   2.220
29431WAT     H188535   1.502   9.519   2.296
29431WAT     H288536   1.475   9.398   2.189
29432WAT      O88537   7.250   1.402   3.208
29432WAT     H188538   7.183   1.334   3.239
29432WAT     H288539   7.333   1.355   3.177
29433WAT      O88540   7.939   4.677   4.678
29433WAT     H188541   8.017   4.618   4.699
29433WAT     H288542   7.954   4.721   4.589
29434WAT      O88543   4.212   1.170   2.376
29434WAT     H188544   4.306   1.195   2.352
29434WAT     H288545   4.204   1.071   2.382
29435WAT      O88546   1.864   2.356   5.021
29435WAT     H188547   1.778   2.403   4.999
29435WAT     H288548   1.870   2.272   4.966
29436WAT      O88549   5.470   8.321   8.107
29436WAT     H188550   5.407   8.245   8.091
29436WAT     H288551   5.561   8.286   8.129
29437WAT      O88552   8.973   0.043   0.399
29437WAT     H188553   9.012   0.004   0.482
29437WAT     H288554   9.040   0.040   0.326
29438WAT      O88555   1.052   9.680   6.924
29438WAT     H188556   0.970   9.685   6.982
29438WAT     H288557   1.089   9.587   6.927
29439WAT      O88558   0.663   7.378   7.527
29439WAT     H188559   0.606   7.427   7.461
29439WAT     H288560   0.612   7.359   7.610
29440WAT      O88561   5.132   9.058   5.087
29440WAT     H188562   5.162   9.147   5.119
29440WAT     H288563   5.211   8.997   5.078
29441WAT      O88564   6.766   0.435   8.717
29441WAT     H188565   6.805   0.431   8.625
29441WAT     H288566   6.667   0.428   8.712
29442WAT      O88567   6.595   2.438   1.247
29442WAT     H188568   6.626   2.521   1.295
29442WAT     H288569   6.522   2.461   1.184
29443WAT      O88570   4.237   6.546   5.069
29443WAT     H188571   4.200   6.469   5.121
29443WAT     H288572   4.161   6.598   5.030
29444WAT      O88573   8.156   1.127   7.744
29444WAT     H188574   8.126   1.032   7.755
29444WAT     H288575   8.217   1.152   7.819
29445WAT      O88576   2.894   6.245   4.696
29445WAT     H188577   2.816   6.301   4.726
29445WAT     H288578   2.861   6.162   4.653
29446WAT      O88579   7.850   2.309   2.466
29446WAT     H188580   7.915   2.268   2.530
29446WAT     H288581   7.801   2.237   2.417
29447WAT      O88582   9.747   0.308   9.269
29447WAT     H188583   9.821   0.335   9.208
29447WAT     H288584   9.763   0.346   9.360
29448WAT      O88585   1.958   9.539   0.179
29448WAT     H188586   2.054   9.515   0.162
29448WAT     H288587   1.933   9.511   0.271
29449WAT      O88588   5.381   0.635   6.399
29449WAT     H188589   5.446   0.677   6.461
29449WAT     H288590   5.331   0.707   6.349
29450WAT      O88591   8.604   2.337   3.081
29450WAT     H188592   8.605   2.437   3.089
29450WAT     H288593   8.634   2.296   3.167
29451WAT      O88594   3.141   4.971   6.588
29451WAT     H188595   3.168   4.883   6.627
29451WAT     H288596   3.043   4.970   6.566
29452WAT      O88597   5.691   4.588   3.002
29452WAT     H188598   5.762   4.656   2.982
29452WAT     H288599   5.678   4.530   2.921
29453WAT      O88600   2.145   7.055   5.035
29453WAT     H188601   2.122   6.968   4.990
29453WAT     H288602   2.243   7.060   5.050
29454WAT      O88603   8.527   2.523   0.163
29454WAT     H188604   8.487   2.435   0.135
29454WAT     H288605   8.626   2.518   0.156
29455WAT      O88606   0.323   6.257   1.731
29455WAT     H188607   0.228   6.288   1.731
29455WAT     H288608   0.376   6.315   1.794
29456WAT      O88609   8.885   1.597   3.522
29456WAT     H188610   8.866   1.674   3.582
29456WAT     H288611   8.964   1.546   3.557
29457WAT      O88612   3.505   0.200   0.686
29457WAT     H188613   3.539   0.223   0.777
29457WAT     H288614   3.409   0.173   0.691
29458WAT      O88615   2.413   4.710   5.598
29458WAT     H188616   2.447   4.696   5.690
29458WAT     H288617   2.455   4.644   5.536
29459WAT      O88618   6.135   0.034   7.923
29459WAT     H188619   6.191   0.113   7.900
29459WAT     H288620   6.133  -0.029   7.845
29460WAT      O88621   7.643   5.237   4.767
29460WAT     H188622   7.608   5.169   4.831
29460WAT     H288623   7.736   5.262   4.792
29461WAT      O88624   8.804   1.202   7.608
29461WAT     H188625   8.889   1.221   7.658
29461WAT     H288626   8.799   1.261   7.528
29462WAT      O88627   5.245   2.202   9.721
29462WAT     H188628   5.268   2.195   9.818
29462WAT     H288629   5.146   2.195   9.709
29463WAT      O88630   3.128   8.184   0.214
29463WAT     H188631   3.194   8.255   0.191
29463WAT     H288632   3.046   8.195   0.158
29464WAT      O88633   6.295   8.986   1.339
29464WAT     H188634   6.347   8.912   1.381
29464WAT     H288635   6.301   9.068   1.395
29465WAT      O88636   5.733   3.751   2.086
29465WAT     H188637   5.749   3.820   2.157
29465WAT     H288638   5.768   3.785   1.998
29466WAT      O88639   4.958   9.783   9.343
29466WAT     H188640   5.004   9.748   9.262
29466WAT     H288641   4.945   9.882   9.333
29467WAT      O88642   1.385   5.531   1.684
29467WAT     H188643   1.465   5.487   1.722
29467WAT     H288644   1.406   5.626   1.661
29468WAT      O88645   1.416   2.720   5.563
29468WAT     H188646   1.416   2.820   5.570
29468WAT     H288647   1.470   2.692   5.483
29469WAT      O88648   5.299   6.919   1.822
29469WAT     H188649   5.212   6.931   1.774
29469WAT     H288650   5.286   6.935   1.919
29470WAT      O88651   8.920   9.676   2.440
29470WAT     H188652   8.896   9.624   2.521
29470WAT     H288653   8.943   9.770   2.466
29471WAT      O88654   3.840   1.665   4.450
29471WAT     H188655   3.893   1.715   4.519
29471WAT     H288656   3.822   1.572   4.483
29472WAT      O88657   9.251   7.572   7.074
29472WAT     H188658   9.196   7.553   6.993
29472WAT     H288659   9.191   7.593   7.151
29473WAT      O88660   9.610   8.562   5.260
29473WAT     H188661   9.585   8.591   5.168
29473WAT     H288662   9.656   8.638   5.308
29474WAT      O88663   1.170   7.533   2.661
29474WAT     H188664   1.232   7.543   2.739
29474WAT     H288665   1.172   7.617   2.606
29475WAT      O88666   1.769   3.769   1.777
29475WAT     H188667   1.786   3.776   1.875
29475WAT     H288668   1.813   3.687   1.741
29476WAT      O88669   6.090   8.223   1.897
29476WAT     H188670   6.088   8.177   1.986
29476WAT     H288671   6.180   8.212   1.856
29477WAT      O88672   3.734   9.362   5.394
29477WAT     H188673   3.832   9.354   5.374
29477WAT     H288674   3.714   9.456   5.423
29478WAT      O88675   1.134   6.865   5.664
29478WAT     H188676   1.114   6.957   5.632
29478WAT     H288677   1.091   6.850   5.753
29479WAT      O88678   5.757   4.546   5.021
29479WAT     H188679   5.662   4.561   4.996
29479WAT     H288680   5.769   4.453   5.055
29480WAT      O88681   8.718   1.339   6.640
29480WAT     H188682   8.673   1.257   6.674
29480WAT     H288683   8.794   1.313   6.581
29481WAT      O88684   9.398   6.045   1.727
29481WAT     H188685   9.485   6.079   1.690
29481WAT     H288686   9.322   6.098   1.690
29482WAT      O88687   4.419   2.316   2.710
29482WAT     H188688   4.470   2.232   2.730
29482WAT     H288689   4.324   2.305   2.741
29483WAT      O88690   4.400   3.885   2.274
29483WAT     H188691   4.346   3.939   2.208
29483WAT     H288692   4.337   3.834   2.333
29484WAT      O88693   5.781   6.815   1.320
29484WAT     H188694   5.837   6.782   1.245
29484WAT     H288695   5.723   6.741   1.354
29485WAT      O88696   8.370   4.307   7.702
29485WAT     H188697   8.426   4.225   7.690
29485WAT     H288698   8.287   4.300   7.646
29486WAT      O88699   2.269   1.118   3.496
29486WAT     H188700   2.365   1.090   3.505
29486WAT     H288701   2.244   1.118   3.399
29487WAT      O88702   2.204   2.016   6.638
29487WAT     H188703   2.238   1.931   6.597
29487WAT     H288704   2.244   2.094   6.590
29488WAT      O88705   2.556   5.807   1.200
29488WAT     H188706   2.618   5.783   1.125
29488WAT     H288707   2.589   5.767   1.285
29489WAT      O88708   5.992   8.028   7.562
29489WAT     H188709   5.990   7.931   7.542
29489WAT     H288710   6.068   8.048   7.624
29490WAT      O88711   3.795   7.887   7.491
29490WAT     H188712   3.836   7.796   7.483
29490WAT     H288713   3.696   7.878   7.499
29491WAT      O88714   0.997   6.124   9.383
29491WAT     H188715   1.090   6.097   9.361
29491WAT     H288716   0.994   6.163   9.475
29492WAT      O88717   7.093   9.669   3.631
29492WAT     H188718   7.193   9.664   3.626
29492WAT     H288719   7.053   9.618   3.555
29493WAT      O88720   4.701   6.758   6.883
29493WAT     H188721   4.750   6.833   6.927
29493WAT     H288722   4.768   6.694   6.843
29494WAT      O88723   3.480   8.595   1.158
29494WAT     H188724   3.496   8.574   1.061
29494WAT     H288725   3.481   8.694   1.171
29495WAT      O88726   0.475   1.169   9.119
29495WAT     H188727   0.510   1.211   9.203
29495WAT     H288728   0.385   1.131   9.136
29496WAT      O88729   8.179   6.558   5.874
29496WAT     H188730   8.273   6.526   5.862
29496WAT     H288731   8.178   6.635   5.938
29497WAT      O88732   0.080   6.449   9.678
29497WAT     H188733   0.065   6.356   9.646
29497WAT     H288734   0.053   6.458   9.773
29498WAT      O88735   3.933   0.917   1.384
29498WAT     H188736   3.930   0.848   1.456
29498WAT     H288737   3.974   0.877   1.302
29499WAT      O88738   1.901   1.418   8.256
29499WAT     H188739   1.861   1.344   8.203
29499WAT     H288740   1.869   1.506   8.220
29500WAT      O88741   1.021   0.049   3.029
29500WAT     H188742   1.119   0.059   3.044
29500WAT     H288743   1.004   0.017   2.936
29501WAT      O88744   7.761   3.079   9.427
29501WAT     H188745   7.791   3.052   9.335
29501WAT     H288746   7.841   3.091   9.486
29502WAT      O88747   0.540   2.374   7.616
29502WAT     H188748   0.525   2.375   7.715
29502WAT     H288749   0.494   2.294   7.577
29503WAT      O88750   7.036   6.928   5.837
29503WAT     H188751   7.121   6.979   5.844
29503WAT     H288752   7.005   6.925   5.742
29504WAT      O88753   5.225   5.957   7.334
29504WAT     H188754   5.274   5.986   7.252
29504WAT     H288755   5.256   5.866   7.361
29505WAT      O88756   9.335   9.220   9.484
29505WAT     H188757   9.372   9.130   9.505
29505WAT     H288758   9.282   9.216   9.400
29506WAT      O88759   6.948   4.126   0.916
29506WAT     H188760   6.961   4.028   0.932
29506WAT     H288761   6.861   4.155   0.956
29507WAT      O88762   8.859   1.648   6.001
29507WAT     H188763   8.898   1.709   6.070
29507WAT     H288764   8.862   1.554   6.036
29508WAT      O88765   8.114   4.750   9.113
29508WAT     H188766   8.183   4.682   9.088
29508WAT     H288767   8.127   4.777   9.208
29509WAT      O88768   6.337   1.248   4.886
29509WAT     H188769   6.248   1.203   4.889
29509WAT     H288770   6.328   1.337   4.843
29510WAT      O88771   7.109   6.946   7.690
29510WAT     H188772   7.170   6.869   7.708
29510WAT     H288773   7.163   7.028   7.670
29511WAT      O88774   7.481   7.582   4.904
29511WAT     H188775   7.411   7.580   4.832
29511WAT     H288776   7.571   7.565   4.864
29512WAT      O88777   9.402   3.795   6.588
29512WAT     H188778   9.369   3.860   6.656
29512WAT     H288779   9.456   3.723   6.634
29513WAT      O88780   2.604   5.333   6.195
29513WAT     H188781   2.627   5.386   6.113
29513WAT     H288782   2.508   5.304   6.189
29514WAT      O88783   1.922   8.643   9.769
29514WAT     H188784   1.999   8.659   9.707
29514WAT     H288785   1.837   8.663   9.722
29515WAT      O88786   7.110   2.182   1.791
29515WAT     H188787   7.044   2.114   1.761
29515WAT     H288788   7.133   2.242   1.715
29516WAT      O88789   2.629   0.003   6.203
29516WAT     H188790   2.687   0.079   6.174
29516WAT     H288791   2.654  -0.024   6.296
29517WAT      O88792   2.649   0.011   3.416
29517WAT     H188793   2.590   0.073   3.467
29517WAT     H288794   2.634  -0.083   3.446
29518WAT      O88795   3.429   7.276   6.530
29518WAT     H188796   3.501   7.250   6.594
29518WAT     H288797   3.447   7.235   6.441
29519WAT      O88798   6.776   0.479   6.909
29519WAT     H188799   6.814   0.441   6.993
29519WAT     H288800   6.747   0.405   6.849
29520WAT      O88801   0.060   6.095   5.248
29520WAT     H188802   0.092   6.189   5.260
29520WAT     H288803  -0.039   6.094   5.237
29521WAT      O88804   4.904   8.041   3.595
29521WAT     H188805   4.988   8.089   3.571
29521WAT     H288806   4.898   7.956   3.542
29522WAT      O88807   0.143   3.769   3.003
29522WAT     H188808   0.113   3.687   3.053
29522WAT     H288809   0.226   3.806   3.046
29523WAT      O88810   2.003   5.879   9.752
29523WAT     H188811   1.934   5.951   9.760
29523WAT     H288812   2.080   5.900   9.812
29524WAT      O88813   6.523   0.475   5.954
29524WAT     H188814   6.543   0.440   6.045
29524WAT     H288815   6.532   0.401   5.887
29525WAT      O88816   5.829   5.785   7.537
29525WAT     H188817   5.791   5.748   7.452
29525WAT     H288818   5.795   5.878   7.551
29526WAT      O88819   4.124   2.212   8.566
29526WAT     H188820   4.147   2.179   8.657
29526WAT     H288821   4.097   2.308   8.571
29527WAT      O88822   5.979   2.140   5.046
29527WAT     H188823   6.045   2.205   5.010
29527WAT     H288824   5.964   2.158   5.144
29528WAT      O88825   0.844   5.717   9.306
29528WAT     H188826   0.822   5.629   9.264
29528WAT     H288827   0.935   5.712   9.348
29529WAT      O88828   9.138   5.782   4.156
29529WAT     H188829   9.084   5.765   4.073
29529WAT     H288830   9.085   5.838   4.220
29530WAT      O88831   8.519   4.529   8.295
29530WAT     H188832   8.612   4.562   8.313
29530WAT     H288833   8.517   4.480   8.208
29531WAT      O88834   1.947   3.028   7.377
29531WAT     H188835   1.921   3.038   7.281
29531WAT     H288836   1.931   2.933   7.406
29532WAT      O88837   8.518   0.663   6.007
29532WAT     H188838   8.432   0.709   6.029
29532WAT     H288839   8.527   0.581   6.063
29533WAT      O88840   3.897   1.146   9.040
29533WAT     H188841   3.953   1.094   8.975
29533WAT     H288842   3.955   1.207   9.093
29534WAT      O88843   0.583   3.823   1.534
29534WAT     H188844   0.516   3.895   1.518
29534WAT     H288845   0.651   3.855   1.600
29535WAT      O88846   7.550   5.958   0.390
29535WAT     H188847   7.638   5.949   0.438
29535WAT     H288848   7.476   5.928   0.450
29536WAT      O88849   2.122   4.431   3.737
29536WAT     H188850   2.050   4.481   3.688
29536WAT     H288851   2.080   4.355   3.788
29537WAT      O88852   3.528   5.431   0.641
29537WAT     H188853   3.477   5.370   0.700
29537WAT     H288854   3.566   5.506   0.695
29538WAT      O88855   6.695   3.590   2.782
29538WAT     H188856   6.771   3.530   2.806
29538WAT     H288857   6.686   3.594   2.682
29539WAT      O88858   0.057   1.441   4.546
29539WAT     H188859   0.032   1.434   4.642
29539WAT     H288860   0.074   1.350   4.509
29540WAT      O88861   8.165   1.233   2.829
29540WAT     H188862   8.149   1.246   2.732
29540WAT     H288863   8.199   1.318   2.869
29541WAT      O88864   6.546   7.056   4.860
29541WAT     H188865   6.529   7.013   4.948
29541WAT     H288866   6.609   6.999   4.806
29542WAT      O88867   9.703   1.679   5.947
29542WAT     H188868   9.683   1.583   5.928
29542WAT     H288869   9.800   1.697   5.929
29543WAT      O88870   0.805   3.950   0.129
29543WAT     H188871   0.759   3.861   0.128
29543WAT     H288872   0.902   3.937   0.150
29544WAT      O88873   9.602   3.565   2.830
29544WAT     H188874   9.694   3.531   2.809
29544WAT     H288875   9.549   3.491   2.871
29545WAT      O88876   6.668   1.214   4.260
29545WAT     H188877   6.703   1.120   4.253
29545WAT     H288878   6.732   1.269   4.313
29546WAT      O88879   4.679   3.377   7.355
29546WAT     H188880   4.600   3.419   7.401
29546WAT     H288881   4.729   3.320   7.420
29547WAT      O88882   5.373   6.517   9.156
29547WAT     H188883   5.458   6.499   9.106
29547WAT     H288884   5.394   6.540   9.250
29548WAT      O88885   5.341   3.919   9.148
29548WAT     H188886   5.412   3.927   9.218
29548WAT     H288887   5.377   3.867   9.070
29549WAT      O88888   4.168   1.286   4.778
29549WAT     H188889   4.142   1.350   4.705
29549WAT     H288890   4.170   1.193   4.741
29550WAT      O88891   3.965   3.819   5.468
29550WAT     H188892   3.959   3.720   5.450
29550WAT     H288893   4.054   3.839   5.510
29551WAT      O88894   9.034   2.152   5.280
29551WAT     H188895   8.988   2.237   5.255
29551WAT     H288896   9.103   2.130   5.211
29552WAT      O88897   6.222   4.953   7.774
29552WAT     H188898   6.230   4.900   7.859
29552WAT     H288899   6.276   4.908   7.702
29553WAT      O88900   2.246   6.709   2.499
29553WAT     H188901   2.288   6.779   2.558
29553WAT     H288902   2.316   6.646   2.467
29554WAT      O88903   6.831   9.322   2.083
29554WAT     H188904   6.888   9.365   2.153
29554WAT     H288905   6.870   9.235   2.056
29555WAT      O88906   2.436   3.823   6.091
29555WAT     H188907   2.342   3.844   6.064
29555WAT     H288908   2.483   3.778   6.014
29556WAT      O88909   1.383   7.182   9.311
29556WAT     H188910   1.357   7.091   9.342
29556WAT     H288911   1.403   7.180   9.213
29557WAT      O88912   3.677   1.822   2.295
29557WAT     H188913   3.584   1.814   2.332
29557WAT     H288914   3.687   1.758   2.219
29558WAT      O88915   1.555   2.861   6.706
29558WAT     H188916   1.512   2.939   6.661
29558WAT     H288917   1.610   2.893   6.784
29559WAT      O88918   0.831   9.844   5.781
29559WAT     H188919   0.857   9.840   5.877
29559WAT     H288920   0.856   9.759   5.736
29560WAT      O88921   9.425   7.864   6.489
29560WAT     H188922   9.481   7.942   6.459
29560WAT     H288923   9.466   7.821   6.569
29561WAT      O88924   4.991   7.639   0.584
29561WAT     H188925   5.028   7.723   0.544
29561WAT     H288926   5.066   7.584   0.619
29562WAT      O88927   3.455   8.751   5.340
29562WAT     H188928   3.448   8.689   5.418
29562WAT     H288929   3.441   8.845   5.371
29563WAT      O88930   2.862   0.308   6.354
29563WAT     H188931   2.843   0.278   6.261
29563WAT     H288932   2.783   0.357   6.390
29564WAT      O88933   5.822   3.885   6.105
29564WAT     H188934   5.835   3.802   6.159
29564WAT     H288935   5.745   3.937   6.141
29565WAT      O88936   9.698   4.148   3.206
29565WAT     H188937   9.648   4.133   3.291
29565WAT     H288938   9.633   4.158   3.130
29566WAT      O88939   0.244   0.627   0.291
29566WAT     H188940   0.235   0.547   0.231
29566WAT     H288941   0.299   0.603   0.371
29567WAT      O88942   3.446   9.691   3.862
29567WAT     H188943   3.544   9.696   3.883
29567WAT     H288944   3.399   9.645   3.936
29568WAT      O88945   8.475   9.107   9.487
29568WAT     H188946   8.563   9.127   9.529
29568WAT     H288947   8.406   9.171   9.522
29569WAT      O88948   7.692   0.151   6.864
29569WAT     H188949   7.791   0.166   6.865
29569WAT     H288950   7.671   0.068   6.812
29570WAT      O88951   2.391   3.379   5.739
29570WAT     H188952   2.451   3.311   5.696
29570WAT     H288953   2.357   3.442   5.669
29571WAT      O88954   0.910   2.318   4.024
29571WAT     H188955   0.878   2.322   3.929
29571WAT     H288956   1.003   2.355   4.029
29572WAT      O88957   7.721   9.011   6.932
29572WAT     H188958   7.635   9.060   6.946
29572WAT     H288959   7.705   8.913   6.937
29573WAT      O88960   7.675   0.668   0.169
29573WAT     H188961   7.772   0.691   0.167
29573WAT     H288962   7.642   0.670   0.263
29574WAT      O88963   8.062   8.734   4.414
29574WAT     H188964   8.119   8.722   4.333
29574WAT     H288965   8.077   8.658   4.478
29575WAT      O88966   6.780   4.620   8.459
29575WAT     H188967   6.714   4.693   8.473
29575WAT     H288968   6.786   4.564   8.542
29576WAT      O88969   2.367   2.595   4.363
29576WAT     H188970   2.410   2.558   4.445
29576WAT     H288971   2.270   2.574   4.363
29577WAT      O88972   1.483   3.126   9.097
29577WAT     H188973   1.579   3.122   9.126
29577WAT     H288974   1.475   3.184   9.016
29578WAT      O88975   9.205   5.032   7.188
29578WAT     H188976   9.234   4.994   7.276
29578WAT     H288977   9.200   5.132   7.196
29579WAT      O88978   0.041   6.730   0.828
29579WAT     H188979  -0.056   6.751   0.825
29579WAT     H288980   0.094   6.815   0.821
29580WAT      O88981   3.548   7.636   7.713
29580WAT     H188982   3.622   7.628   7.779
29580WAT     H288983   3.566   7.577   7.634
29581WAT      O88984   6.748   1.703   2.611
29581WAT     H188985   6.786   1.614   2.582
29581WAT     H288986   6.755   1.768   2.535
29582WAT      O88987   6.932   5.656   1.841
29582WAT     H188988   7.029   5.664   1.862
29582WAT     H288989   6.912   5.705   1.756
29583WAT      O88990   4.664   9.466   4.581
29583WAT     H188991   4.659   9.371   4.552
29583WAT     H288992   4.720   9.473   4.664
29584WAT      O88993   6.176   9.083   2.805
29584WAT     H188994   6.134   9.056   2.718
29584WAT     H288995   6.240   9.011   2.834
29585WAT      O88996   5.887   3.785   5.170
29585WAT     H188997   5.830   3.807   5.090
29585WAT     H288998   5.867   3.849   5.243
29586WAT      O88999   1.683   3.849   7.962
29586WAT     H189000   1.715   3.872   8.054
29586WAT     H289001   1.585   3.833   7.963
29587WAT      O89002   1.644   2.241   7.241
29587WAT     H189003   1.548   2.268   7.253
29587WAT     H289004   1.677   2.198   7.325
29588WAT      O89005   3.124   2.342   4.514
29588WAT     H189006   3.120   2.255   4.563
29588WAT     H289007   3.200   2.397   4.549
29589WAT      O89008   8.815   3.524   9.603
29589WAT     H189009   8.902   3.535   9.651
29589WAT     H289010   8.826   3.459   9.528
29590WAT      O89011   4.607   9.218   1.329
29590WAT     H189012   4.585   9.124   1.301
29590WAT     H289013   4.698   9.242   1.294
29591WAT      O89014   6.925   4.190   0.196
29591WAT     H189015   6.995   4.212   0.264
29591WAT     H289016   6.922   4.263   0.127
29592WAT      O89017   5.131   3.048   3.819
29592WAT     H189018   5.211   2.992   3.798
29592WAT     H289019   5.118   3.117   3.747
29593WAT      O89020   0.272   2.967   8.497
29593WAT     H189021   0.328   3.030   8.444
29593WAT     H289022   0.303   2.873   8.480
29594WAT      O89023   9.316   6.092   6.557
29594WAT     H189024   9.287   6.004   6.595
29594WAT     H289025   9.329   6.158   6.631
29595WAT      O89026   6.473   1.732   0.305
29595WAT     H189027   6.445   1.724   0.401
29595WAT     H289028   6.541   1.806   0.297
29596WAT      O89029   0.462   3.309   0.867
29596WAT     H189030   0.500   3.364   0.793
29596WAT     H289031   0.509   3.332   0.953
29597WAT      O89032   9.261   4.656   9.726
29597WAT     H189033   9.225   4.663   9.819
29597WAT     H289034   9.247   4.563   9.692
29598WAT      O89035   6.277   7.004   4.123
29598WAT     H189036   6.311   7.053   4.203
29598WAT     H289037   6.178   6.993   4.130
29599WAT      O89038   6.730   9.649   3.164
29599WAT     H189039   6.810   9.700   3.134
29599WAT     H289040   6.649   9.706   3.157
29600WAT      O89041   5.773   2.528   6.517
29600WAT     H189042   5.686   2.503   6.561
29600WAT     H289043   5.848   2.481   6.563
29601WAT      O89044   4.660   4.338   2.393
29601WAT     H189045   4.611   4.399   2.455
29601WAT     H289046   4.642   4.243   2.418
29602WAT      O89047   5.538   9.816   3.572
29602WAT     H189048   5.600   9.739   3.588
29602WAT     H289049   5.450   9.798   3.616
29603WAT      O89050   6.494   3.941   1.097
29603WAT     H189051   6.458   4.010   1.159
29603WAT     H289052   6.423   3.914   1.031
29604WAT      O89053   5.738   5.929   3.112
29604WAT     H189054   5.810   5.995   3.130
29604WAT     H289055   5.779   5.842   3.085
29605WAT      O89056   5.570   5.978   1.193
29605WAT     H189057   5.577   6.040   1.115
29605WAT     H289058   5.661   5.943   1.216
29606WAT      O89059   3.976   0.878   9.588
29606WAT     H189060   3.916   0.860   9.510
29606WAT     H289061   4.062   0.918   9.554
29607WAT      O89062   0.900   2.303   5.959
29607WAT     H189063   0.932   2.244   5.885
29607WAT     H289064   0.838   2.373   5.922
29608WAT      O89065   1.576   9.767   3.636
29608WAT     H189066   1.593   9.809   3.725
29608WAT     H289067   1.478   9.754   3.623
29609WAT      O89068   0.640   3.605   1.394
29609WAT     H189069   0.601   3.678   1.451
29609WAT     H289070   0.629   3.630   1.298
29610WAT      O89071   1.414   8.480   1.399
29610WAT     H189072   1.430   8.547   1.472
29610WAT     H289073   1.464   8.508   1.317
29611WAT      O89074   5.310   3.241   6.298
29611WAT     H189075   5.306   3.339   6.316
29611WAT     H289076   5.271   3.223   6.207
29612WAT      O89077   1.166   0.295   5.279
29612WAT     H189078   1.225   0.289   5.359
29612WAT     H289079   1.113   0.380   5.282
29613WAT      O89080   2.429   5.982   5.813
29613WAT     H189081   2.453   5.919   5.887
29613WAT     H289082   2.330   5.984   5.802
29614WAT      O89083   7.264   2.263   0.922
29614WAT     H189084   7.268   2.307   0.833
29614WAT     H289085   7.219   2.174   0.913
29615WAT      O89086   7.630   5.920   2.732
29615WAT     H189087   7.649   5.907   2.829
29615WAT     H289088   7.596   5.834   2.692
29616WAT      O89089   1.012   7.122   8.165
29616WAT     H189090   0.913   7.113   8.178
29616WAT     H289091   1.054   7.152   8.250
29617WAT      O89092   2.829   3.428   1.176
29617WAT     H189093   2.925   3.456   1.171
29617WAT     H289094   2.824   3.335   1.212
29618WAT      O89095   6.208   0.606   1.884
29618WAT     H189096   6.291   0.575   1.838
29618WAT     H289097   6.137   0.626   1.816
29619WAT      O89098   8.402   7.143   1.468
29619WAT     H189099   8.327   7.077   1.459
29619WAT     H289100   8.410   7.172   1.564
29620WAT      O89101   8.146   1.268   2.135
29620WAT     H189102   8.167   1.319   2.052
29620WAT     H289103   8.168   1.171   2.121
29621WAT      O89104   7.231   3.334   5.399
29621WAT     H189105   7.313   3.374   5.441
29621WAT     H289106   7.153   3.393   5.418
29622WAT      O89107   6.545   4.347   1.921
29622WAT     H189108   6.588   4.271   1.969
29622WAT     H289109   6.505   4.410   1.988
29623WAT      O89110   1.438   1.559   6.393
29623WAT     H189111   1.464   1.467   6.363
29623WAT     H289112   1.500   1.589   6.465
29624WAT      O89113   6.275   9.478   0.727
29624WAT     H189114   6.356   9.531   0.751
29624WAT     H289115   6.254   9.491   0.630
29625WAT      O89116   2.088   9.492   7.426
29625WAT     H189117   2.048   9.453   7.509
29625WAT     H289118   2.047   9.448   7.346
29626WAT      O89119   3.242   0.102   0.541
29626WAT     H189120   3.152   0.085   0.582
29626WAT     H289121   3.290   0.015   0.531
29627WAT      O89122   3.919   5.454   1.346
29627WAT     H189123   3.946   5.364   1.311
29627WAT     H289124   3.824   5.473   1.321
29628WAT      O89125   3.195   7.269   4.148
29628WAT     H189126   3.131   7.346   4.141
29628WAT     H289127   3.163   7.194   4.090
29629WAT      O89128   7.614   9.818   8.243
29629WAT     H189129   7.692   9.873   8.272
29629WAT     H289130   7.627   9.723   8.272
29630WAT      O89131   4.003   8.910   4.409
29630WAT     H189132   3.976   8.837   4.473
29630WAT     H289133   3.951   8.993   4.430
29631WAT      O89134   4.066   5.041   7.787
29631WAT     H189135   3.969   5.051   7.807
29631WAT     H289136   4.093   4.945   7.798
29632WAT      O89137   2.001   3.943   2.576
29632WAT     H189138   1.982   3.858   2.626
29632WAT     H289139   1.914   3.986   2.550
29633WAT      O89140   4.159   9.793   3.854
29633WAT     H189141   4.087   9.724   3.865
29633WAT     H289142   4.149   9.863   3.924
29634WAT      O89143   4.441   8.306   6.612
29634WAT     H189144   4.432   8.343   6.705
29634WAT     H289145   4.537   8.310   6.585
29635WAT      O89146   1.333   8.631   5.076
29635WAT     H189147   1.422   8.588   5.091
29635WAT     H289148   1.261   8.561   5.081
29636WAT      O89149   4.741   4.679   3.764
29636WAT     H189150   4.652   4.640   3.742
29636WAT     H289151   4.773   4.642   3.851
29637WAT      O89152   1.224   1.826   0.520
29637WAT     H189153   1.146   1.785   0.473
29637WAT     H289154   1.254   1.908   0.472
29638WAT      O89155   9.818   2.029   7.276
29638WAT     H189156   9.857   2.120   7.286
29638WAT     H289157   9.742   2.018   7.340
29639WAT      O89158   7.521   2.471   5.092
29639WAT     H189159   7.468   2.393   5.124
29639WAT     H289160   7.573   2.510   5.168
29640WAT      O89161   9.409   3.059   4.807
29640WAT     H189162   9.316   3.096   4.804
29640WAT     H289163   9.469   3.123   4.855
29641WAT      O89164   7.093   5.487   1.200
29641WAT     H189165   7.071   5.410   1.260
29641WAT     H289166   7.188   5.515   1.216
29642WAT      O89167   3.762   4.501   2.386
29642WAT     H189168   3.738   4.484   2.481
29642WAT     H289169   3.733   4.593   2.359
29643WAT      O89170   1.209   0.441   6.525
29643WAT     H189171   1.175   0.368   6.465
29643WAT     H289172   1.293   0.410   6.570
29644WAT      O89173   2.735   9.059   0.349
29644WAT     H189174   2.716   9.157   0.359
29644WAT     H289175   2.830   9.047   0.321
29645WAT      O89176   9.023   7.966   2.062
29645WAT     H189177   9.000   8.040   2.125
29645WAT     H289178   9.088   8.000   1.993
29646WAT      O89179   4.111   2.422   1.938
29646WAT     H189180   4.034   2.365   1.911
29646WAT     H289181   4.185   2.411   1.873
29647WAT      O89182   8.206   4.401   6.115
29647WAT     H189183   8.161   4.409   6.204
29647WAT     H289184   8.159   4.460   6.049
29648WAT      O89185   7.500   3.875   5.087
29648WAT     H189186   7.490   3.857   5.185
29648WAT     H289187   7.420   3.839   5.038
29649WAT      O89188   9.823   0.859   7.912
29649WAT     H189189   9.831   0.760   7.907
29649WAT     H289190   9.903   0.896   7.960
29650WAT      O89191   0.835   8.376   7.347
29650WAT     H189192   0.860   8.420   7.433
29650WAT     H289193   0.738   8.351   7.349
29651WAT      O89194   2.847   6.288   8.944
29651WAT     H189195   2.752   6.266   8.967
29651WAT     H289196   2.878   6.364   9.001
29652WAT      O89197   6.551   1.213   4.711
29652WAT     H189198   6.586   1.119   4.715
29652WAT     H289199   6.493   1.230   4.791
29653WAT      O89200   5.731   6.422   0.748
29653WAT     H189201   5.730   6.345   0.684
29653WAT     H289202   5.747   6.389   0.841
29654WAT      O89203   9.344   5.960   4.220
29654WAT     H189204   9.283   5.883   4.207
29654WAT     H289205   9.291   6.044   4.230
29655WAT      O89206   4.361   5.093   4.389
29655WAT     H189207   4.454   5.129   4.392
29655WAT     H289208   4.352   5.019   4.456
29656WAT      O89209   5.363   3.535   6.238
29656WAT     H189210   5.450   3.582   6.258
29656WAT     H289211   5.365   3.499   6.145
29657WAT      O89212   5.867   2.704   2.334
29657WAT     H189213   5.941   2.656   2.383
29657WAT     H289214   5.779   2.663   2.359
29658WAT      O89215   9.630   4.519   0.289
29658WAT     H189216   9.595   4.566   0.370
29658WAT     H289217   9.700   4.575   0.245
29659WAT      O89218   9.345   9.654   5.024
29659WAT     H189219   9.276   9.647   4.952
29659WAT     H289220   9.324   9.732   5.083
29660WAT      O89221   3.271   7.156   0.514
29660WAT     H189222   3.254   7.169   0.417
29660WAT     H289223   3.201   7.096   0.553
29661WAT      O89224   0.220   7.948   1.941
29661WAT     H189225   0.225   7.854   1.974
29661WAT     H289226   0.125   7.978   1.940
29662WAT      O89227   1.558   0.081   0.646
29662WAT     H189228   1.539   0.170   0.688
29662WAT     H289229   1.642   0.086   0.593
29663WAT      O89230   2.408   1.892   2.734
29663WAT     H189231   2.403   1.814   2.672
29663WAT     H289232   2.427   1.860   2.826
29664WAT      O89233   9.738   8.238   1.739
29664WAT     H189234   9.738   8.328   1.696
29664WAT     H289235   9.809   8.181   1.697
29665WAT      O89236   3.822   6.267   3.496
29665WAT     H189237   3.850   6.171   3.508
29665WAT     H289238   3.888   6.314   3.438
29666WAT      O89239   9.655   6.442   3.746
29666WAT     H189240   9.607   6.493   3.675
29666WAT     H289241   9.636   6.482   3.835
29667WAT      O89242   2.668   3.074   5.377
29667WAT     H189243   2.741   3.025   5.329
29667WAT     H289244   2.579   3.046   5.340
29668WAT      O89245   6.145   9.373   3.154
29668WAT     H189246   6.082   9.436   3.108
29668WAT     H289247   6.132   9.281   3.118
29669WAT      O89248   5.118   4.444   7.795
29669WAT     H189249   5.169   4.511   7.741
29669WAT     H289250   5.032   4.484   7.826
29670WAT      O89251   1.790   3.000   2.873
29670WAT     H189252   1.814   2.905   2.893
29670WAT     H289253   1.785   3.052   2.958
29671WAT      O89254   4.026   5.379   8.378
29671WAT     H189255   4.067   5.389   8.469
29671WAT     H289256   4.088   5.417   8.309
29672WAT      O89257   5.735   5.880   4.051
29672WAT     H189258   5.812   5.839   4.002
29672WAT     H289259   5.768   5.919   4.137
29673WAT      O89260   5.415   3.628   1.622
29673WAT     H189261   5.391   3.631   1.719
29673WAT     H289262   5.509   3.660   1.610
29674WAT      O89263   0.808   5.579   7.432
29674WAT     H189264   0.817   5.481   7.449
29674WAT     H289265   0.750   5.594   7.352
29675WAT      O89266   1.519   6.431   1.155
29675WAT     H189267   1.513   6.358   1.087
29675WAT     H289268   1.454   6.504   1.131
29676WAT      O89269   5.075   2.312   6.813
29676WAT     H189270   5.030   2.334   6.900
29676WAT     H289271   5.040   2.373   6.742
29677WAT      O89272   2.111   2.395   8.637
29677WAT     H189273   2.207   2.380   8.659
29677WAT     H289274   2.101   2.483   8.591
29678WAT      O89275   9.221   1.777   5.869
29678WAT     H189276   9.130   1.787   5.830
29678WAT     H289277   9.232   1.842   5.945
29679WAT      O89278   8.948   2.703   2.823
29679WAT     H189279   8.935   2.726   2.727
29679WAT     H289280   9.040   2.732   2.851
29680WAT      O89281   2.767   7.668   7.373
29680WAT     H189282   2.792   7.762   7.399
29680WAT     H289283   2.668   7.660   7.368
29681WAT      O89284   0.121   4.231   1.406
29681WAT     H189285   0.101   4.160   1.474
29681WAT     H289286   0.078   4.317   1.433
29682WAT      O89287   0.884   0.613   5.747
29682WAT     H189288   0.936   0.685   5.792
29682WAT     H289289   0.802   0.653   5.706
29683WAT      O89290   6.943   0.156   6.373
29683WAT     H189291   6.979   0.072   6.414
29683WAT     H289292   6.926   0.141   6.276
29684WAT      O89293   3.329   3.156   3.462
29684WAT     H189294   3.292   3.144   3.554
29684WAT     H289295   3.428   3.139   3.464
29685WAT      O89296   5.191   4.006   8.415
29685WAT     H189297   5.194   4.102   8.440
29685WAT     H289298   5.145   3.954   8.486
29686WAT      O89299   9.436   3.621   5.016
29686WAT     H189300   9.437   3.576   5.105
29686WAT     H289301   9.482   3.710   5.023
29687WAT      O89302   3.232   4.129   1.076
29687WAT     H189303   3.231   4.154   0.980
29687WAT     H289304   3.300   4.057   1.091
29688WAT      O89305   2.789   5.884   9.767
29688WAT     H189306   2.763   5.823   9.843
29688WAT     H289307   2.831   5.830   9.694
29689WAT      O89308   9.716   7.835   7.633
29689WAT     H189309   9.651   7.790   7.572
29689WAT     H289310   9.805   7.789   7.627
29690WAT      O89311   2.276   8.575   5.636
29690WAT     H189312   2.265   8.586   5.735
29690WAT     H289313   2.232   8.652   5.589
29691WAT      O89314   7.853   3.946   8.583
29691WAT     H189315   7.858   4.044   8.564
29691WAT     H289316   7.941   3.903   8.562
29692WAT      O89317   4.038   3.408   4.225
29692WAT     H189318   4.013   3.335   4.289
29692WAT     H289319   3.959   3.431   4.168
29693WAT      O89320   8.848   2.137   2.248
29693WAT     H189321   8.782   2.201   2.208
29693WAT     H289322   8.862   2.060   2.185
29694WAT      O89323   4.044   8.431   9.832
29694WAT     H189324   3.985   8.437   9.912
29694WAT     H289325   4.136   8.460   9.857
29695WAT      O89326   2.248   1.761   3.453
29695WAT     H189327   2.212   1.668   3.461
29695WAT     H289328   2.337   1.758   3.407
29696WAT      O89329   4.971   4.264   6.230
29696WAT     H189330   5.037   4.258   6.305
29696WAT     H289331   4.887   4.308   6.263
29697WAT      O89332   0.174   7.947   8.872
29697WAT     H189333   0.237   7.905   8.807
29697WAT     H289334   0.106   7.880   8.900
29698WAT      O89335   7.880   6.082   1.163
29698WAT     H189336   7.961   6.058   1.215
29698WAT     H289337   7.879   6.030   1.077
29699WAT      O89338   8.799   7.864   6.190
29699WAT     H189339   8.706   7.876   6.224
29699WAT     H289340   8.798   7.803   6.111
29700WAT      O89341   0.924   0.550   0.011
29700WAT     H189342   0.952   0.626  -0.047
29700WAT     H289343   0.995   0.479   0.009
29701WAT      O89344   9.327   2.345   4.719
29701WAT     H189345   9.314   2.408   4.643
29701WAT     H289346   9.262   2.270   4.713
29702WAT      O89347   4.528   8.537   0.395
29702WAT     H189348   4.436   8.522   0.431
29702WAT     H289349   4.587   8.460   0.422
29703WAT      O89350   8.059   6.369   1.491
29703WAT     H189351   8.139   6.428   1.477
29703WAT     H289352   8.007   6.362   1.406
29704WAT      O89353   3.922   0.481   0.661
29704WAT     H189354   3.862   0.464   0.583
29704WAT     H289355   3.988   0.553   0.637
29705WAT      O89356   2.829   2.097   3.224
29705WAT     H189357   2.811   2.154   3.305
29705WAT     H289358   2.758   2.113   3.156
29706WAT      O89359   2.232   2.892   3.266
29706WAT     H189360   2.325   2.918   3.242
29706WAT     H289361   2.228   2.865   3.362
29707WAT      O89362   1.433   0.159   6.197
29707WAT     H189363   1.526   0.139   6.227
29707WAT     H289364   1.425   0.257   6.178
29708WAT      O89365   3.673   5.252   5.007
29708WAT     H189366   3.704   5.249   5.102
29708WAT     H289367   3.574   5.264   5.004
29709WAT      O89368   6.369   9.751   8.939
29709WAT     H189369   6.344   9.655   8.948
29709WAT     H289370   6.467   9.761   8.960
29710WAT      O89371   0.077   5.807   7.569
29710WAT     H189372   0.027   5.751   7.503
29710WAT     H289373   0.136   5.748   7.624
29711WAT      O89374   6.441   7.615   2.197
29711WAT     H189375   6.409   7.525   2.166
29711WAT     H289376   6.537   7.608   2.224
29712WAT      O89377   1.735   3.020   9.361
29712WAT     H189378   1.732   3.097   9.297
29712WAT     H289379   1.808   3.035   9.428
29713WAT      O89380   6.964   8.545   5.286
29713WAT     H189381   6.896   8.538   5.213
29713WAT     H289382   6.919   8.530   5.374
29714WAT      O89383   1.878   7.924   7.186
29714WAT     H189384   1.809   7.871   7.137
29714WAT     H289385   1.901   7.878   7.272
29715WAT      O89386   4.453   8.454   5.061
29715WAT     H189387   4.462   8.506   4.976
29715WAT     H289388   4.507   8.497   5.133
29716WAT      O89389   6.906   3.523   5.217
29716WAT     H189390   6.831   3.543   5.154
29716WAT     H289391   6.981   3.480   5.168
29717WAT      O89392   4.802   5.844   9.230
29717WAT     H189393   4.831   5.826   9.325
29717WAT     H289394   4.880   5.879   9.178
29718WAT      O89395   2.895   7.136   0.338
29718WAT     H189396   2.922   7.215   0.394
29718WAT     H289397   2.948   7.136   0.254
29719WAT      O89398   0.212   6.574   8.502
29719WAT     H189399   0.117   6.601   8.485
29719WAT     H289400   0.273   6.622   8.439
29720WAT      O89401   1.776   8.128   2.794
29720WAT     H189402   1.704   8.186   2.758
29720WAT     H289403   1.737   8.039   2.819
29721WAT      O89404   5.411   2.210   8.761
29721WAT     H189405   5.473   2.209   8.683
29721WAT     H289406   5.440   2.281   8.825
29722WAT      O89407   2.557   8.895   7.484
29722WAT     H189408   2.571   8.919   7.580
29722WAT     H289409   2.491   8.820   7.478
29723WAT      O89410   2.634   1.426   9.607
29723WAT     H189411   2.702   1.497   9.629
29723WAT     H289412   2.650   1.392   9.515
29724WAT      O89413   1.129   5.583   2.804
29724WAT     H189414   1.181   5.658   2.846
29724WAT     H289415   1.076   5.619   2.728
29725WAT      O89416   2.683   3.738   3.567
29725WAT     H189417   2.689   3.694   3.656
29725WAT     H289418   2.683   3.837   3.578
29726WAT      O89419   6.810   4.136   9.370
29726WAT     H189420   6.752   4.214   9.393
29726WAT     H289421   6.906   4.161   9.380
29727WAT      O89422   6.380   3.285   1.987
29727WAT     H189423   6.449   3.220   2.019
29727WAT     H289424   6.294   3.268   2.036
29728WAT      O89425   9.241   0.268   5.168
29728WAT     H189426   9.309   0.325   5.214
29728WAT     H289427   9.150   0.308   5.178
29729WAT      O89428   2.857   6.629   4.033
29729WAT     H189429   2.929   6.561   4.021
29729WAT     H289430   2.803   6.636   3.949
29730WAT      O89431   8.939   0.166   9.830
29730WAT     H189432   8.985   0.193   9.745
29730WAT     H289433   8.983   0.210   9.908
29731WAT      O89434   7.692   2.499   0.090
29731WAT     H189435   7.782   2.457   0.077
29731WAT     H289436   7.681   2.523   0.187
29732WAT      O89437   2.685   0.117   7.918
29732WAT     H189438   2.609   0.170   7.956
29732WAT     H289439   2.764   0.176   7.905
29733WAT      O89440   1.895   3.254   6.676
29733WAT     H189441   1.804   3.295   6.676
29733WAT     H289442   1.959   3.316   6.632
29734WAT      O89443   6.310   1.233   1.065
29734WAT     H189444   6.225   1.185   1.091
29734WAT     H289445   6.299   1.331   1.083
29735WAT      O89446   3.370   1.390   3.575
29735WAT     H189447   3.463   1.402   3.609
29735WAT     H289448   3.363   1.426   3.482
29736WAT      O89449   5.911   7.279   1.600
29736WAT     H189450   6.003   7.254   1.627
29736WAT     H289451   5.868   7.334   1.672
29737WAT      O89452   6.641   7.519   1.970
29737WAT     H189453   6.685   7.604   1.943
29737WAT     H289454   6.703   7.465   2.027
29738WAT      O89455   2.287   4.338   4.938
29738WAT     H189456   2.271   4.311   5.033
29738WAT     H289457   2.362   4.283   4.900
29739WAT      O89458   7.624   0.141   3.831
29739WAT     H189459   7.619   0.207   3.756
29739WAT     H289460   7.709   0.088   3.822
29740WAT      O89461   1.550   8.031   7.425
29740WAT     H189462   1.452   8.014   7.426
29740WAT     H289463   1.575   8.085   7.505
29741WAT      O89464   6.814   7.711   5.930
29741WAT     H189465   6.895   7.770   5.935
29741WAT     H289466   6.825   7.635   5.994
29742WAT      O89467   1.299   8.587   9.135
29742WAT     H189468   1.330   8.582   9.230
29742WAT     H289469   1.377   8.604   9.075
29743WAT      O89470   9.427   8.359   2.365
29743WAT     H189471   9.431   8.287   2.295
29743WAT     H289472   9.519   8.388   2.388
29744WAT      O89473   7.964   5.001   0.619
29744WAT     H189474   7.995   5.043   0.533
29744WAT     H289475   8.017   5.041   0.695
29745WAT      O89476   3.035   7.914   9.211
29745WAT     H189477   3.058   8.012   9.212
29745WAT     H289478   2.959   7.898   9.148
29746WAT      O89479   8.068   6.744   2.900
29746WAT     H189480   8.057   6.670   2.834
29746WAT     H289481   7.978   6.770   2.936
29747WAT      O89482   5.651   0.947   5.095
29747WAT     H189483   5.668   0.849   5.091
29747WAT     H289484   5.635   0.982   5.003
29748WAT      O89485   0.118   7.880   2.358
29748WAT     H189486   0.200   7.868   2.302
29748WAT     H289487   0.073   7.792   2.372
29749WAT      O89488   1.186   0.441   0.268
29749WAT     H189489   1.278   0.480   0.271
29749WAT     H289490   1.141   0.452   0.356
29750WAT      O89491   5.068   9.204   8.545
29750WAT     H189492   5.023   9.293   8.544
29750WAT     H289493   5.152   9.209   8.490
29751WAT      O89494   3.461   9.781   6.713
29751WAT     H189495   3.519   9.713   6.668
29751WAT     H289496   3.374   9.739   6.740
29752WAT      O89497   6.690   3.651   9.269
29752WAT     H189498   6.716   3.736   9.316
29752WAT     H289499   6.720   3.572   9.323
29753WAT      O89500   8.913   5.403   6.475
29753WAT     H189501   9.013   5.399   6.469
29753WAT     H289502   8.882   5.492   6.440
29754WAT      O89503   1.322   3.276   2.352
29754WAT     H189504   1.288   3.313   2.265
29754WAT     H289505   1.384   3.199   2.334
29755WAT      O89506   2.057   1.138   0.660
29755WAT     H189507   2.149   1.106   0.682
29755WAT     H289508   2.063   1.231   0.622
29756WAT      O89509   7.086   3.971   6.645
29756WAT     H189510   7.136   4.038   6.700
29756WAT     H289511   6.989   3.974   6.669
29757WAT      O89512   2.435   9.423   9.115
29757WAT     H189513   2.483   9.402   9.200
29757WAT     H289514   2.341   9.451   9.136
29758WAT      O89515   9.572   6.411   6.548
29758WAT     H189516   9.476   6.437   6.549
29758WAT     H289517   9.612   6.435   6.459
29759WAT      O89518   8.445   1.346   9.019
29759WAT     H189519   8.366   1.331   8.960
29759WAT     H289520   8.468   1.261   9.067
29760WAT      O89521   4.915   1.981   4.422
29760WAT     H189522   4.839   1.940   4.370
29760WAT     H289523   4.934   2.072   4.386
29761WAT      O89524   6.542   4.884   2.138
29761WAT     H189525   6.584   4.867   2.049
29761WAT     H289526   6.611   4.871   2.210
29762WAT      O89527   6.894   0.061   0.188
29762WAT     H189528   6.916   0.011   0.104
29762WAT     H289529   6.964   0.041   0.257
29763WAT      O89530   2.040   0.641   8.250
29763WAT     H189531   2.123   0.611   8.297
29763WAT     H289532   2.057   0.645   8.151
29764WAT      O89533   7.760   8.051   6.289
29764WAT     H189534   7.844   7.997   6.290
29764WAT     H289535   7.745   8.091   6.379
29765WAT      O89536   0.512   6.329   2.217
29765WAT     H189537   0.565   6.295   2.140
29765WAT     H289538   0.575   6.358   2.290
29766WAT      O89539   8.842   8.731   1.354
29766WAT     H189540   8.901   8.669   1.300
29766WAT     H289541   8.752   8.689   1.365
29767WAT      O89542   9.507   4.591   1.336
29767WAT     H189543   9.559   4.603   1.252
29767WAT     H289544   9.532   4.661   1.402
29768WAT      O89545   0.262   9.634   8.792
29768WAT     H189546   0.291   9.689   8.870
29768WAT     H289547   0.186   9.679   8.746
29769WAT      O89548   1.405   6.076   6.257
29769WAT     H189549   1.355   5.998   6.296
29769WAT     H289550   1.367   6.161   6.294
29770WAT      O89551   9.868   0.102   9.745
29770WAT     H189552   9.853   0.188   9.696
29770WAT     H289553   9.854   0.116   9.843
29771WAT      O89554   2.440   3.167   1.967
29771WAT     H189555   2.407   3.254   2.005
29771WAT     H289556   2.437   3.096   2.037
29772WAT      O89557   9.104   0.942   3.841
29772WAT     H189558   9.115   0.907   3.748
29772WAT     H289559   9.027   0.895   3.885
29773WAT      O89560   8.250   0.663   7.283
29773WAT     H189561   8.175   0.706   7.233
29773WAT     H289562   8.223   0.647   7.377
29774WAT      O89563   5.930   5.677   8.335
29774WAT     H189564   5.855   5.622   8.298
29774WAT     H289565   6.017   5.630   8.321
29775WAT      O89566   1.566   9.313   7.003
29775WAT     H189567   1.645   9.328   7.062
29775WAT     H289568   1.591   9.334   6.908
29776WAT      O89569   7.489   5.295   9.502
29776WAT     H189570   7.540   5.360   9.446
29776WAT     H289571   7.553   5.232   9.546
29777WAT      O89572   3.223   3.450   2.705
29777WAT     H189573   3.220   3.350   2.709
29777WAT     H289574   3.165   3.488   2.776
29778WAT      O89575   3.605   9.715   7.863
29778WAT     H189576   3.602   9.800   7.811
29778WAT     H289577   3.669   9.725   7.939
29779WAT      O89578   7.893   9.781   7.150
29779WAT     H189579   7.825   9.784   7.223
29779WAT     H289580   7.958   9.857   7.163
29780WAT      O89581   3.928   0.986   7.000
29780WAT     H189582   3.959   0.910   7.057
29780WAT     H289583   3.832   0.974   6.977
29781WAT      O89584   0.244   4.567   4.501
29781WAT     H189585   0.254   4.515   4.416
29781WAT     H289586   0.187   4.648   4.484
29782WAT      O89587   8.457   0.087   9.666
29782WAT     H189588   8.462   0.036   9.752
29782WAT     H289589   8.474   0.184   9.684
29783WAT      O89590   0.504   7.421   2.175
29783WAT     H189591   0.486   7.470   2.260
29783WAT     H289592   0.582   7.463   2.129
29784WAT      O89593   4.096   3.864   1.829
29784WAT     H189594   4.099   3.777   1.878
29784WAT     H289595   4.094   3.847   1.731
29785WAT      O89596   4.604   1.028   2.868
29785WAT     H189597   4.701   1.051   2.859
29785WAT     H289598   4.552   1.076   2.798
29786WAT      O89599   7.352   6.871   5.473
29786WAT     H189600   7.406   6.825   5.543
29786WAT     H289601   7.412   6.900   5.398
29787WAT      O89602   2.451   4.680   2.963
29787WAT     H189603   2.392   4.695   3.043
29787WAT     H289604   2.508   4.599   2.979
29788WAT      O89605   7.743   7.826   9.531
29788WAT     H189606   7.762   7.730   9.553
29788WAT     H289607   7.649   7.833   9.495
29789WAT      O89608   4.371   9.831   1.616
29789WAT     H189609   4.371   9.733   1.596
29789WAT     H289610   4.295   9.875   1.567
29790WAT      O89611   1.006   2.310   0.489
29790WAT     H189612   0.970   2.372   0.559
29790WAT     H289613   1.019   2.360   0.404
29791WAT      O89614   5.873   3.058   4.327
29791WAT     H189615   5.784   3.089   4.293
29791WAT     H289616   5.931   3.033   4.249
29792WAT      O89617   0.624   1.503   1.160
29792WAT     H189618   0.565   1.572   1.203
29792WAT     H289619   0.570   1.423   1.135
29793WAT      O89620   5.245   9.595   4.460
29793WAT     H189621   5.254   9.507   4.507
29793WAT     H289622   5.334   9.625   4.427
29794WAT      O89623   7.169   0.967   2.814
29794WAT     H189624   7.091   0.916   2.779
29794WAT     H289625   7.234   0.984   2.740
29795WAT      O89626   3.152   7.169   0.810
29795WAT     H189627   3.138   7.100   0.739
29795WAT     H289628   3.212   7.132   0.881
29796WAT      O89629   4.503   8.345   6.878
29796WAT     H189630   4.573   8.395   6.929
29796WAT     H289631   4.539   8.255   6.852
29797WAT      O89632   5.129   6.955   9.020
29797WAT     H189633   5.127   7.055   9.015
29797WAT     H289634   5.189   6.919   8.949
29798WAT      O89635   6.924   0.774   9.436
29798WAT     H189636   6.884   0.844   9.377
29798WAT     H289637   6.866   0.762   9.517
29799WAT      O89638   9.734   0.824   8.600
29799WAT     H189639   9.833   0.837   8.592
29799WAT     H289640   9.689   0.854   8.516
29800WAT      O89641   4.813   2.830   4.768
29800WAT     H189642   4.769   2.786   4.846
29800WAT     H289643   4.900   2.784   4.749
29801WAT      O89644   2.647   6.187   2.992
29801WAT     H189645   2.728   6.138   3.023
29801WAT     H289646   2.594   6.129   2.931
29802WAT      O89647   4.341   8.460   2.546
29802WAT     H189648   4.403   8.526   2.504
29802WAT     H289649   4.304   8.498   2.631
29803WAT      O89650   2.893   6.592   6.981
29803WAT     H189651   2.870   6.501   6.944
29803WAT     H289652   2.872   6.594   7.079
29804WAT      O89653   5.921   2.856   2.633
29804WAT     H189654   5.848   2.885   2.695
29804WAT     H289655   5.907   2.897   2.543
29805WAT      O89656   1.262   4.760   8.208
29805WAT     H189657   1.207   4.801   8.281
29805WAT     H289658   1.209   4.689   8.162
29806WAT      O89659   6.120   1.517   5.094
29806WAT     H189660   6.193   1.518   5.162
29806WAT     H289661   6.050   1.583   5.119
29807WAT      O89662   0.026   3.163   0.422
29807WAT     H189663   0.090   3.238   0.405
29807WAT     H289664   0.067   3.076   0.394
29808WAT      O89665   5.482   5.265   7.103
29808WAT     H189666   5.384   5.273   7.084
29808WAT     H289667   5.496   5.261   7.202
29809WAT      O89668   1.310   7.118   6.698
29809WAT     H189669   1.312   7.218   6.691
29809WAT     H289670   1.334   7.091   6.792
29810WAT      O89671   8.441   9.709   8.096
29810WAT     H189672   8.352   9.741   8.127
29810WAT     H289673   8.433   9.671   8.004
29811WAT      O89674   4.581   7.977   1.007
29811WAT     H189675   4.538   7.939   0.925
29811WAT     H289676   4.648   8.046   0.980
29812WAT      O89677   5.368   6.585   4.643
29812WAT     H189678   5.304   6.648   4.600
29812WAT     H289679   5.363   6.595   4.743
29813WAT      O89680   1.967   1.047   2.573
29813WAT     H189681   1.989   1.093   2.658
29813WAT     H289682   1.868   1.032   2.567
29814WAT      O89683   2.579   3.736   2.426
29814WAT     H189684   2.522   3.743   2.344
29814WAT     H289685   2.540   3.793   2.498
29815WAT      O89686   1.274   7.605   8.560
29815WAT     H189687   1.299   7.701   8.550
29815WAT     H289688   1.175   7.597   8.565
29816WAT      O89689   8.001   4.446   4.083
29816WAT     H189690   8.065   4.448   4.160
29816WAT     H289691   7.913   4.410   4.114
29817WAT      O89692   7.438   7.641   8.382
29817WAT     H189693   7.463   7.713   8.446
29817WAT     H289694   7.520   7.589   8.357
29818WAT      O89695   8.443   6.173   1.463
29818WAT     H189696   8.516   6.107   1.478
29818WAT     H289697   8.358   6.125   1.440
29819WAT      O89698   2.800   9.591   5.789
29819WAT     H189699   2.735   9.622   5.720
29819WAT     H289700   2.794   9.650   5.870
29820WAT      O89701   1.145   2.780   4.859
29820WAT     H189702   1.113   2.853   4.799
29820WAT     H289703   1.067   2.741   4.908
29821WAT      O89704   1.209   2.136   4.434
29821WAT     H189705   1.113   2.115   4.412
29821WAT     H289706   1.221   2.235   4.441
29822WAT      O89707   0.381   8.404   3.330
29822WAT     H189708   0.386   8.342   3.252
29822WAT     H289709   0.474   8.429   3.358
29823WAT      O89710   8.953   2.420   2.971
29823WAT     H189711   8.971   2.503   2.917
29823WAT     H289712   8.886   2.363   2.923
29824WAT      O89713   7.365   2.025   1.154
29824WAT     H189714   7.415   2.010   1.239
29824WAT     H289715   7.403   1.965   1.083
29825WAT      O89716   9.290   2.815   4.831
29825WAT     H189717   9.343   2.731   4.825
29825WAT     H289718   9.345   2.892   4.798
29826WAT      O89719   4.504   4.322   1.425
29826WAT     H189720   4.489   4.360   1.516
29826WAT     H289721   4.447   4.371   1.359
29827WAT      O89722   0.230   2.120   9.356
29827WAT     H189723   0.224   2.194   9.423
29827WAT     H289724   0.253   2.158   9.267
29828WAT      O89725   2.843   7.222   0.656
29828WAT     H189726   2.909   7.282   0.608
29828WAT     H289727   2.794   7.276   0.724
29829WAT      O89728   2.094   7.800   8.054
29829WAT     H189729   2.073   7.896   8.071
29829WAT     H289730   2.186   7.792   8.015
29830WAT      O89731   6.757   4.445   8.673
29830WAT     H189732   6.760   4.346   8.688
29830WAT     H289733   6.662   4.475   8.663
29831WAT      O89734   4.592   2.638   8.427
29831WAT     H189735   4.630   2.634   8.334
29831WAT     H289736   4.543   2.724   8.439
29832WAT      O89737   6.362   5.886   0.338
29832WAT     H189738   6.331   5.961   0.396
29832WAT     H289739   6.425   5.828   0.390
29833WAT      O89740   4.478   4.101   8.528
29833WAT     H189741   4.531   4.141   8.602
29833WAT     H289742   4.519   4.014   8.500
29834WAT      O89743   7.815   1.164   6.683
29834WAT     H189744   7.871   1.105   6.742
29834WAT     H289745   7.736   1.111   6.650
29835WAT      O89746   5.944   0.997   6.518
29835WAT     H189747   5.980   0.913   6.559
29835WAT     H289748   5.851   1.012   6.549
29836WAT      O89749   4.659   3.754   5.903
29836WAT     H189750   4.707   3.805   5.832
29836WAT     H289751   4.576   3.714   5.865
29837WAT      O89752   9.425   6.753   0.068
29837WAT     H189753   9.380   6.806  -0.005
29837WAT     H289754   9.501   6.806   0.105
29838WAT      O89755   6.291   8.620   2.674
29838WAT     H189756   6.366   8.669   2.719
29838WAT     H289757   6.326   8.574   2.593
29839WAT      O89758   9.851   8.066   2.218
29839WAT     H189759   9.845   8.067   2.118
29839WAT     H289760   9.936   8.021   2.246
29840WAT      O89761   9.071   7.409   4.641
29840WAT     H189762   9.092   7.458   4.726
29840WAT     H289763   9.102   7.314   4.649
29841WAT      O89764   0.185   5.307   5.931
29841WAT     H189765   0.255   5.373   5.959
29841WAT     H289766   0.125   5.287   6.008
29842WAT      O89767   0.413   2.262   6.699
29842WAT     H189768   0.475   2.311   6.638
29842WAT     H289769   0.344   2.214   6.644
29843WAT      O89770   4.558   0.288   8.940
29843WAT     H189771   4.549   0.271   9.038
29843WAT     H289772   4.618   0.218   8.899
29844WAT      O89773   3.319   5.456   9.009
29844WAT     H189774   3.319   5.540   8.954
29844WAT     H289775   3.242   5.399   8.982
29845WAT      O89776   6.485   6.697   0.670
29845WAT     H189777   6.479   6.600   0.694
29845WAT     H289778   6.499   6.706   0.571
29846WAT      O89779   6.833   6.391   9.150
29846WAT     H189780   6.778   6.343   9.082
29846WAT     H289781   6.851   6.484   9.119
29847WAT      O89782   6.257   4.004   7.576
29847WAT     H189783   6.200   3.929   7.543
29847WAT     H289784   6.198   4.075   7.616
29848WAT      O89785   9.438   8.080   2.558
29848WAT     H189786   9.358   8.139   2.552
29848WAT     H289787   9.520   8.132   2.534
29849WAT      O89788   2.163   8.623   2.489
29849WAT     H189789   2.186   8.594   2.582
29849WAT     H289790   2.244   8.615   2.431
29850WAT      O89791   0.891   6.126   4.416
29850WAT     H189792   0.882   6.205   4.355
29850WAT     H289793   0.910   6.159   4.509
29851WAT      O89794   2.191   5.618   2.025
29851WAT     H189795   2.222   5.708   2.056
29851WAT     H289796   2.124   5.581   2.089
29852WAT      O89797   2.652   9.547   3.900
29852WAT     H189798   2.698   9.528   3.813
29852WAT     H289799   2.668   9.471   3.963
29853WAT      O89800   3.938   6.091   8.124
29853WAT     H189801   3.857   6.112   8.178
29853WAT     H289802   3.951   6.161   8.054
29854WAT      O89803   3.098   0.940   1.054
29854WAT     H189804   3.177   0.954   1.113
29854WAT     H289805   3.089   1.017   0.991
29855WAT      O89806   0.752   2.943   2.410
29855WAT     H189807   0.796   2.948   2.500
29855WAT     H289808   0.686   3.018   2.402
29856WAT      O89809   6.738   8.532   8.413
29856WAT     H189810   6.675   8.469   8.368
29856WAT     H289811   6.813   8.481   8.453
29857WAT      O89812   6.198   5.056   4.010
29857WAT     H189813   6.157   5.093   3.926
29857WAT     H289814   6.249   5.129   4.056
29858WAT      O89815   5.771   1.992   0.856
29858WAT     H189816   5.785   2.089   0.834
29858WAT     H289817   5.841   1.962   0.921
29859WAT      O89818   2.460   7.979   9.589
29859WAT     H189819   2.409   8.066   9.589
29859WAT     H289820   2.522   7.977   9.667
29860WAT      O89821   0.621   2.242   8.238
29860WAT     H189822   0.625   2.221   8.335
29860WAT     H289823   0.530   2.219   8.202
29861WAT      O89824   6.970   0.385   5.658
29861WAT     H189825   7.061   0.359   5.691
29861WAT     H289826   6.972   0.393   5.558
29862WAT      O89827   4.212   0.780   9.103
29862WAT     H189828   4.181   0.873   9.122
29862WAT     H289829   4.196   0.722   9.182
29863WAT      O89830   6.250   0.335   2.617
29863WAT     H189831   6.303   0.331   2.532
29863WAT     H289832   6.245   0.244   2.658
29864WAT      O89833   3.122   8.604   4.483
29864WAT     H189834   3.080   8.563   4.402
29864WAT     H289835   3.051   8.624   4.551
29865WAT      O89836   2.044   3.942   2.097
29865WAT     H189837   2.074   3.942   2.193
29865WAT     H289838   2.029   4.037   2.068
29866WAT      O89839   1.123   8.332   8.346
29866WAT     H189840   1.222   8.343   8.347
29866WAT     H289841   1.081   8.413   8.304
29867WAT      O89842   9.356   4.524   4.504
29867WAT     H189843   9.455   4.537   4.512
29867WAT     H289844   9.322   4.573   4.424
29868WAT      O89845   7.968   0.777   2.252
29868WAT     H189846   7.868   0.772   2.251
29868WAT     H289847   8.005   0.708   2.191
29869WAT      O89848   6.386   5.316   0.109
29869WAT     H189849   6.305   5.332   0.054
29869WAT     H289850   6.389   5.220   0.137
29870WAT      O89851   0.762   3.816   4.115
29870WAT     H189852   0.709   3.824   4.199
29870WAT     H289853   0.774   3.906   4.073
29871WAT      O89854   0.800   3.217   8.850
29871WAT     H189855   0.850   3.301   8.873
29871WAT     H289856   0.703   3.238   8.841
29872WAT      O89857   9.277   5.153   0.378
29872WAT     H189858   9.218   5.231   0.359
29872WAT     H289859   9.345   5.178   0.447
29873WAT      O89860   7.175   6.386   1.152
29873WAT     H189861   7.214   6.477   1.163
29873WAT     H289862   7.165   6.343   1.242
29874WAT      O89863   5.800   6.432   1.492
29874WAT     H189864   5.818   6.341   1.455
29874WAT     H289865   5.837   6.439   1.585
29875WAT      O89866   0.308   6.339   4.768
29875WAT     H189867   0.347   6.249   4.788
29875WAT     H289868   0.228   6.354   4.827
29876WAT      O89869   2.596   2.143   2.391
29876WAT     H189870   2.586   2.142   2.491
29876WAT     H289871   2.605   2.237   2.359
29877WAT      O89872   1.282   0.796   0.245
29877WAT     H189873   1.197   0.758   0.282
29877WAT     H289874   1.349   0.723   0.233
29878WAT      O89875   9.790   4.008   8.295
29878WAT     H189876   9.793   4.032   8.198
29878WAT     H289877   9.695   4.004   8.326
29879WAT      O89878   7.310   3.852   2.481
29879WAT     H189879   7.228   3.892   2.522
29879WAT     H289880   7.337   3.771   2.534
29880WAT      O89881   6.221   8.986   5.054
29880WAT     H189882   6.255   8.893   5.067
29880WAT     H289883   6.122   8.982   5.037
29881WAT      O89884   8.469   6.617   2.247
29881WAT     H189885   8.491   6.520   2.244
29881WAT     H289886   8.515   6.659   2.325
29882WAT      O89887   8.398   7.626   8.024
29882WAT     H189888   8.309   7.669   8.037
29882WAT     H289889   8.414   7.560   8.098
29883WAT      O89890   5.926   5.951   4.982
29883WAT     H189891   5.957   6.045   4.999
29883WAT     H289892   5.913   5.904   5.069
29884WAT      O89893   5.129   0.311   6.259
29884WAT     H189894   5.052   0.307   6.323
29884WAT     H289895   5.110   0.254   6.179
29885WAT      O89896   9.357   7.995   3.007
29885WAT     H189897   9.443   7.976   3.055
29885WAT     H289898   9.314   8.077   3.046
29886WAT      O89899   0.642   6.051   1.677
29886WAT     H189900   0.600   6.036   1.588
29886WAT     H289901   0.701   6.133   1.673
29887WAT      O89902   4.963   6.100   8.452
29887WAT     H189903   5.004   6.085   8.362
29887WAT     H289904   4.865   6.117   8.442
29888WAT      O89905   5.331   8.149   3.912
29888WAT     H189906   5.398   8.076   3.897
29888WAT     H289907   5.239   8.110   3.911
29889WAT      O89908   6.940   9.059   1.980
29889WAT     H189909   6.892   9.000   2.045
29889WAT     H289910   7.038   9.049   1.993
29890WAT      O89911   5.035   1.419   2.212
29890WAT     H189912   5.077   1.426   2.303
29890WAT     H289913   4.959   1.353   2.216
29891WAT      O89914   4.334   4.225   8.324
29891WAT     H189915   4.359   4.187   8.413
29891WAT     H289916   4.416   4.248   8.273
29892WAT      O89917   8.774   5.803   3.704
29892WAT     H189918   8.797   5.898   3.681
29892WAT     H289919   8.676   5.797   3.724
29893WAT      O89920   3.161   7.999   8.112
29893WAT     H189921   3.223   8.063   8.158
29893WAT     H289922   3.070   8.040   8.104
29894WAT      O89923   2.014   4.260   4.539
29894WAT     H189924   1.926   4.279   4.496
29894WAT     H289925   2.018   4.304   4.629
29895WAT      O89926   1.070   3.811   3.099
29895WAT     H189927   1.096   3.906   3.115
29895WAT     H289928   1.137   3.768   3.038
29896WAT      O89929   9.177   9.391   7.594
29896WAT     H189930   9.169   9.303   7.546
29896WAT     H289931   9.273   9.410   7.614
29897WAT      O89932   9.605   8.349   5.457
29897WAT     H189933   9.652   8.402   5.527
29897WAT     H289934   9.590   8.407   5.377
29898WAT      O89935   1.463   6.816   6.151
29898WAT     H189936   1.376   6.816   6.101
29898WAT     H289937   1.446   6.792   6.246
29899WAT      O89938   5.938   6.564   5.469
29899WAT     H189939   5.909   6.640   5.412
29899WAT     H289940   6.021   6.589   5.519
29900WAT      O89941   2.067   8.843   6.332
29900WAT     H189942   2.079   8.859   6.430
29900WAT     H289943   2.049   8.930   6.286
29901WAT      O89944   2.294   8.743   2.072
29901WAT     H189945   2.240   8.682   2.014
29901WAT     H289946   2.233   8.804   2.123
29902WAT      O89947   8.585   6.824   4.675
29902WAT     H189948   8.633   6.879   4.742
29902WAT     H289949   8.584   6.871   4.587
29903WAT      O89950   2.795   9.838   9.098
29903WAT     H189951   2.845   9.813   9.015
29903WAT     H289952   2.804   9.936   9.113
29904WAT      O89953   5.123   7.021   5.224
29904WAT     H189954   5.080   6.931   5.229
29904WAT     H289955   5.183   7.025   5.145
29905WAT      O89956   9.053   5.698   5.959
29905WAT     H189957   9.081   5.709   6.054
29905WAT     H289958   9.005   5.780   5.928
29906WAT      O89959   5.854   6.919   6.572
29906WAT     H189960   5.811   6.862   6.501
29906WAT     H289961   5.804   7.006   6.579
29907WAT      O89962   0.989   3.643   3.768
29907WAT     H189963   0.974   3.555   3.813
29907WAT     H289964   0.910   3.665   3.710
29908WAT      O89965   2.477   9.333   0.477
29908WAT     H189966   2.448   9.251   0.527
29908WAT     H289967   2.449   9.414   0.528
29909WAT      O89968   9.490   9.192   7.763
29909WAT     H189969   9.456   9.280   7.731
29909WAT     H289970   9.590   9.197   7.772
29910WAT      O89971   5.598   3.077   7.359
29910WAT     H189972   5.672   3.103   7.298
29910WAT     H289973   5.536   3.015   7.312
29911WAT      O89974   0.934   7.515   5.334
29911WAT     H189975   0.982   7.526   5.246
29911WAT     H289976   0.923   7.604   5.377
29912WAT      O89977   4.190   5.029   3.906
29912WAT     H189978   4.214   4.943   3.861
29912WAT     H289979   4.222   5.027   4.001
29913WAT      O89980   7.827   8.505   7.279
29913WAT     H189981   7.793   8.446   7.353
29913WAT     H289982   7.806   8.463   7.191
29914WAT      O89983   9.575   0.219   6.633
29914WAT     H189984   9.476   0.208   6.628
29914WAT     H289985   9.617   0.166   6.559
29915WAT      O89986   5.097   0.513   1.587
29915WAT     H189987   5.001   0.489   1.600
29915WAT     H289988   5.122   0.502   1.490
29916WAT      O89989   7.153   0.025   7.223
29916WAT     H189990   7.090   0.016   7.146
29916WAT     H289991   7.103   0.053   7.305
29917WAT      O89992   9.210   0.175   2.637
29917WAT     H189993   9.267   0.226   2.572
29917WAT     H289994   9.123   0.153   2.593
29918WAT      O89995   7.475   4.154   6.342
29918WAT     H189996   7.553   4.212   6.318
29918WAT     H289997   7.451   4.168   6.438
29919WAT      O89998   3.689   6.456   8.274
29919WAT     H189999   3.764   6.483   8.214
29919WAT     H290000   3.602   6.490   8.237
29920WAT      O90001   6.419   8.854   6.691
29920WAT     H190002   6.477   8.908   6.753
29920WAT     H290003   6.455   8.861   6.598
29921WAT      O90004   3.428   6.134   5.467
29921WAT     H190005   3.454   6.166   5.558
29921WAT     H290006   3.430   6.034   5.465
29922WAT      O90007   9.427   0.514   1.989
29922WAT     H190008   9.379   0.427   2.006
29922WAT     H290009   9.441   0.562   2.075
29923WAT      O90010   3.022   5.010   9.349
29923WAT     H190011   2.929   4.998   9.384
29923WAT     H290012   3.031   5.100   9.306
29924WAT      O90013   6.850   6.342   3.441
29924WAT     H190014   6.903   6.399   3.379
29924WAT     H290015   6.754   6.339   3.411
29925WAT      O90016   4.979   9.499   2.438
29925WAT     H190017   4.882   9.519   2.429
29925WAT     H290018   4.999   9.412   2.393
29926WAT      O90019   0.392   1.093   7.859
29926WAT     H190020   0.400   1.174   7.802
29926WAT     H290021   0.476   1.040   7.855
29927WAT      O90022   3.550   2.967   1.630
29927WAT     H190023   3.570   2.919   1.715
29927WAT     H290024   3.452   2.961   1.611
29928WAT      O90025   8.834   3.307   9.093
29928WAT     H190026   8.750   3.265   9.124
29928WAT     H290027   8.841   3.400   9.129
29929WAT      O90028   8.289   8.684   7.380
29929WAT     H190029   8.280   8.601   7.325
29929WAT     H290030   8.376   8.682   7.429
29930WAT      O90031   0.473   8.429   8.738
29930WAT     H190032   0.441   8.365   8.808
29930WAT     H290033   0.404   8.438   8.667
29931WAT      O90034   7.102   5.891   4.482
29931WAT     H190035   7.141   5.889   4.575
29931WAT     H290036   7.011   5.850   4.484
29932WAT      O90037   7.566   4.754   8.778
29932WAT     H190038   7.573   4.692   8.857
29932WAT     H290039   7.506   4.831   8.802
29933WAT      O90040   0.966   5.632   5.762
29933WAT     H190041   0.971   5.716   5.709
29933WAT     H290042   1.004   5.556   5.709
29934WAT      O90043   3.281   7.552   3.882
29934WAT     H190044   3.380   7.563   3.895
29934WAT     H290045   3.232   7.616   3.941
29935WAT      O90046   3.423   7.323   2.057
29935WAT     H190047   3.448   7.419   2.044
29935WAT     H290048   3.426   7.275   1.969
29936WAT      O90049   1.678   8.803   7.232
29936WAT     H190050   1.650   8.881   7.177
29936WAT     H290051   1.778   8.797   7.233
29937WAT      O90052   8.422   6.618   7.323
29937WAT     H190053   8.362   6.636   7.401
29937WAT     H290054   8.517   6.635   7.350
29938WAT      O90055   9.516   4.692   6.042
29938WAT     H190056   9.426   4.667   6.078
29938WAT     H290057   9.512   4.699   5.942
29939WAT      O90058   9.684   7.273   2.957
29939WAT     H190059   9.703   7.356   3.009
29939WAT     H290060   9.592   7.241   2.978
29940WAT      O90061   5.511   5.259   0.368
29940WAT     H190062   5.415   5.278   0.349
29940WAT     H290063   5.563   5.345   0.367
29941WAT      O90064   8.162   8.147   8.340
29941WAT     H190065   8.213   8.233   8.348
29941WAT     H290066   8.177   8.091   8.421
29942WAT      O90067   9.690   6.131   5.171
29942WAT     H190068   9.718   6.184   5.091
29942WAT     H290069   9.611   6.175   5.215
29943WAT      O90070   8.159   3.247   8.127
29943WAT     H190071   8.148   3.345   8.140
29943WAT     H290072   8.119   3.220   8.039
29944WAT      O90073   6.359   8.680   9.271
29944WAT     H190074   6.414   8.629   9.205
29944WAT     H290075   6.420   8.724   9.338
29945WAT      O90076   7.486   6.713   5.141
29945WAT     H190077   7.465   6.811   5.138
29945WAT     H290078   7.523   6.690   5.231
29946WAT      O90079   9.437   9.483   6.035
29946WAT     H190080   9.449   9.419   5.958
29946WAT     H290081   9.521   9.534   6.050
29947WAT      O90082   0.100   8.559   4.673
29947WAT     H190083   0.161   8.550   4.594
29947WAT     H290084   0.051   8.646   4.667
29948WAT      O90085   1.984   3.671   4.382
29948WAT     H190086   1.925   3.752   4.380
29948WAT     H290087   2.056   3.680   4.312
29949WAT      O90088   7.802   4.798   5.237
29949WAT     H190089   7.766   4.774   5.327
29949WAT     H290090   7.887   4.748   5.220
29950WAT      O90091   8.291   4.036   3.196
29950WAT     H190092   8.354   3.991   3.259
29950WAT     H290093   8.325   4.028   3.103
29951WAT      O90094   8.523   1.264   5.639
29951WAT     H190095   8.465   1.279   5.719
29951WAT     H290096   8.577   1.347   5.622
29952WAT      O90097   1.588   4.209   9.271
29952WAT     H190098   1.558   4.252   9.186
29952WAT     H290099   1.518   4.223   9.342
29953WAT      O90100   0.437   5.242   7.393
29953WAT     H190101   0.521   5.254   7.340
29953WAT     H290102   0.391   5.158   7.366
29954WAT      O90103   1.578   1.289   0.191
29954WAT     H190104   1.654   1.243   0.145
29954WAT     H290105   1.612   1.369   0.239
29955WAT      O90106   6.717   1.580   6.269
29955WAT     H190107   6.755   1.569   6.177
29955WAT     H290108   6.628   1.535   6.273
29956WAT      O90109   9.436   5.852   3.120
29956WAT     H190110   9.355   5.801   3.092
29956WAT     H290111   9.410   5.941   3.156
29957WAT      O90112   4.312   6.524   7.056
29957WAT     H190113   4.220   6.537   7.093
29957WAT     H290114   4.309   6.535   6.956
29958WAT      O90115   6.131   5.487   8.219
29958WAT     H190116   6.168   5.398   8.246
29958WAT     H290117   6.203   5.555   8.223
29959WAT      O90118   2.236   2.923   1.483
29959WAT     H190119   2.243   3.019   1.457
29959WAT     H290120   2.321   2.892   1.526
29960WAT      O90121   4.444   3.949   3.049
29960WAT     H190122   4.373   3.999   3.000
29960WAT     H290123   4.403   3.890   3.118
29961WAT      O90124   4.188   3.293   3.687
29961WAT     H190125   4.191   3.348   3.770
29961WAT     H290126   4.176   3.352   3.608
29962WAT      O90127   1.544   3.824   4.076
29962WAT     H190128   1.630   3.774   4.082
29962WAT     H290129   1.547   3.885   3.997
29963WAT      O90130   6.101   7.832   5.504
29963WAT     H190131   6.088   7.878   5.592
29963WAT     H290132   6.185   7.777   5.508
29964WAT      O90133   2.390   5.695   3.045
29964WAT     H190134   2.387   5.738   3.135
29964WAT     H290135   2.365   5.598   3.053
29965WAT      O90136   8.997   2.354   5.542
29965WAT     H190137   8.978   2.394   5.452
29965WAT     H290138   8.912   2.343   5.593
29966WAT      O90139   1.964   3.571   0.941
29966WAT     H190140   1.879   3.623   0.932
29966WAT     H290141   1.997   3.546   0.850
29967WAT      O90142   3.891   1.000   9.823
29967WAT     H190143   3.912   0.945   9.743
29967WAT     H290144   3.880   1.096   9.797
29968WAT      O90145   1.118   5.037   4.365
29968WAT     H190146   1.080   5.130   4.365
29968WAT     H290147   1.177   5.025   4.285
29969WAT      O90148   2.515   0.721   3.961
29969WAT     H190149   2.470   0.802   3.998
29969WAT     H290150   2.482   0.639   4.009
29970WAT      O90151   2.371   5.402   3.080
29970WAT     H190152   2.317   5.413   3.164
29970WAT     H290153   2.468   5.413   3.101
29971WAT      O90154   7.366   0.645   5.007
29971WAT     H190155   7.426   0.610   4.935
29971WAT     H290156   7.353   0.744   4.993
29972WAT      O90157   2.317   1.336   2.458
29972WAT     H190158   2.402   1.285   2.470
29972WAT     H290159   2.253   1.280   2.405
29973WAT      O90160   2.837   2.589   6.439
29973WAT     H190161   2.793   2.500   6.421
29973WAT     H290162   2.773   2.648   6.488
29974WAT      O90163   0.169   4.043   3.437
29974WAT     H190164   0.111   4.030   3.357
29974WAT     H290165   0.222   3.960   3.454
29975WAT      O90166   1.962   0.169   8.711
29975WAT     H190167   1.950   0.268   8.714
29975WAT     H290168   2.053   0.145   8.746
29976WAT      O90169   8.813   2.473   7.286
29976WAT     H190170   8.810   2.401   7.217
29976WAT     H290171   8.776   2.439   7.372
29977WAT      O90172   2.522   0.113   8.984
29977WAT     H190173   2.541   0.015   8.997
29977WAT     H290174   2.430   0.124   8.946
29978WAT      O90175   6.949   9.656   7.854
29978WAT     H190176   6.976   9.600   7.932
29978WAT     H290177   7.032   9.687   7.806
29979WAT      O90178   7.908   3.997   1.765
29979WAT     H190179   7.880   3.902   1.749
29979WAT     H290180   7.927   4.009   1.862
29980WAT      O90181   0.758   7.857   8.883
29980WAT     H190182   0.683   7.911   8.844
29980WAT     H290183   0.723   7.798   8.956
29981WAT      O90184   4.325   2.876   9.375
29981WAT     H190185   4.403   2.900   9.318
29981WAT     H290186   4.345   2.793   9.427
29982WAT      O90187   4.501   3.276   6.223
29982WAT     H190188   4.545   3.336   6.289
29982WAT     H290189   4.428   3.224   6.268
29983WAT      O90190   2.265   2.641   6.074
29983WAT     H190191   2.311   2.715   6.026
29983WAT     H290192   2.169   2.664   6.087
29984WAT      O90193   0.290   7.034   0.280
29984WAT     H190194   0.336   6.979   0.211
29984WAT     H290195   0.338   7.121   0.291
29985WAT      O90196   7.853   4.825   9.542
29985WAT     H190197   7.773   4.790   9.592
29985WAT     H290198   7.869   4.920   9.568
29986WAT      O90199   1.096   1.521   4.514
29986WAT     H190200   1.002   1.524   4.479
29986WAT     H290201   1.124   1.613   4.539
29987WAT      O90202   4.046   1.514   8.663
29987WAT     H190203   4.035   1.550   8.570
29987WAT     H290204   3.957   1.515   8.709
29988WAT      O90205   8.855   2.409   6.260
29988WAT     H190206   8.905   2.379   6.179
29988WAT     H290207   8.776   2.350   6.275
29989WAT      O90208   7.672   2.396   2.845
29989WAT     H190209   7.611   2.329   2.804
29989WAT     H290210   7.677   2.477   2.787
29990WAT      O90211   6.769   7.293   7.681
29990WAT     H190212   6.759   7.393   7.680
29990WAT     H290213   6.853   7.269   7.728
29991WAT      O90214   7.172   6.259   7.009
29991WAT     H190215   7.115   6.234   6.932
29991WAT     H290216   7.139   6.214   7.092
29992WAT      O90217   4.159   1.566   3.951
29992WAT     H190218   4.105   1.573   4.034
29992WAT     H290219   4.109   1.607   3.875
29993WAT      O90220   8.809   8.720   0.443
29993WAT     H190221   8.771   8.640   0.396
29993WAT     H290222   8.842   8.693   0.534
29994WAT      O90223   7.079   3.916   5.525
29994WAT     H190224   7.038   3.842   5.471
29994WAT     H290225   7.089   3.887   5.620
29995WAT      O90226   6.667   0.915   3.100
29995WAT     H190227   6.568   0.919   3.085
29995WAT     H290228   6.709   0.852   3.035
29996WAT      O90229   1.370   5.145   9.124
29996WAT     H190230   1.448   5.130   9.063
29996WAT     H290231   1.292   5.092   9.092
29997WAT      O90232   2.787   9.110   3.569
29997WAT     H190233   2.804   9.076   3.477
29997WAT     H290234   2.787   9.033   3.633
29998WAT      O90235   9.567   0.754   9.530
29998WAT     H190236   9.579   0.668   9.580
29998WAT     H290237   9.471   0.764   9.503
29999WAT      O90238   3.945   8.199   1.314
29999WAT     H190239   3.876   8.232   1.377
29999WAT     H290240   4.023   8.261   1.313
30000WAT      O90241   3.672   3.496   6.879
30000WAT     H190242   3.746   3.527   6.939
30000WAT     H290243   3.584   3.523   6.917
30001WAT      O90244   3.566   6.217   0.143
30001WAT     H190245   3.638   6.217   0.073
30001WAT     H290246   3.593   6.277   0.218
30002WAT      O90247   0.137   5.754   4.162
30002WAT     H190248   0.204   5.710   4.103
30002WAT     H290249   0.085   5.685   4.212
30003WAT      O90250   6.053   6.086   9.300
30003WAT     H190251   5.995   6.023   9.249
30003WAT     H290252   6.034   6.180   9.271
30004WAT      O90253   5.114   9.673   4.071
30004WAT     H190254   5.185   9.622   4.023
30004WAT     H290255   5.049   9.709   4.005
30005WAT      O90256   4.985   0.936   1.017
30005WAT     H190257   5.046   0.903   0.945
30005WAT     H290258   4.977   1.036   1.010
30006WAT      O90259   5.631   6.023   2.875
30006WAT     H190260   5.658   6.002   2.969
30006WAT     H290261   5.568   5.953   2.842
30007WAT      O90262   9.722   2.534   8.181
30007WAT     H190263   9.793   2.559   8.246
30007WAT     H290264   9.643   2.497   8.229
30008WAT      O90265   9.507   7.018   0.701
30008WAT     H190266   9.515   7.019   0.601
30008WAT     H290267   9.591   7.054   0.741
30009WAT      O90268   9.311   5.622   8.120
30009WAT     H190269   9.292   5.721   8.121
30009WAT     H290270   9.384   5.603   8.054
30010WAT      O90271   3.956   8.824   1.643
30010WAT     H190272   4.053   8.808   1.662
30010WAT     H290273   3.909   8.736   1.636
30011WAT      O90274   4.994   1.527   0.603
30011WAT     H190275   4.959   1.438   0.632
30011WAT     H290276   4.985   1.593   0.677
30012WAT      O90277   1.084   2.572   7.378
30012WAT     H190278   1.099   2.506   7.451
30012WAT     H290279   1.140   2.548   7.299
30013WAT      O90280   7.542   2.212   9.474
30013WAT     H190281   7.478   2.261   9.533
30013WAT     H290282   7.535   2.247   9.381
30014WAT      O90283   7.218   0.817   5.628
30014WAT     H190284   7.266   0.766   5.557
30014WAT     H290285   7.163   0.889   5.586
30015WAT      O90286   4.103   9.412   3.343
30015WAT     H190287   4.198   9.417   3.376
30015WAT     H290288   4.103   9.380   3.248
30016WAT      O90289   8.255   7.518   0.015
30016WAT     H190290   8.184   7.487  -0.048
30016WAT     H290291   8.288   7.441   0.069
30017WAT      O90292   7.222   1.603   5.403
30017WAT     H190293   7.256   1.617   5.310
30017WAT     H290294   7.249   1.512   5.435
30018WAT      O90295   3.517   2.372   0.095
30018WAT     H190296   3.499   2.311   0.172
30018WAT     H290297   3.579   2.328   0.030
30019WAT      O90298   7.826   1.409   6.864
30019WAT     H190299   7.923   1.390   6.878
30019WAT     H290300   7.793   1.358   6.785
30020WAT      O90301   3.503   0.442   6.275
30020WAT     H190302   3.568   0.377   6.237
30020WAT     H290303   3.410   0.406   6.264
30021WAT      O90304   6.078   6.289   6.718
30021WAT     H190305   6.032   6.373   6.747
30021WAT     H290306   6.012   6.227   6.676
30022WAT      O90307   0.083   7.773   2.808
30022WAT     H190308   0.115   7.684   2.777
30022WAT     H290309   0.106   7.843   2.741
30023WAT      O90310   3.840   9.670   1.242
30023WAT     H190311   3.940   9.662   1.252
30023WAT     H290312   3.798   9.669   1.333
30024WAT      O90313   9.063   8.601   3.404
30024WAT     H190314   9.054   8.662   3.325
30024WAT     H290315   9.159   8.593   3.429
30025WAT      O90316   1.591   3.785   1.035
30025WAT     H190317   1.646   3.810   1.114
30025WAT     H290318   1.523   3.856   1.017
30026WAT      O90319   0.231   4.250   0.274
30026WAT     H190320   0.284   4.317   0.326
30026WAT     H290321   0.164   4.298   0.217
30027WAT      O90322   4.631   8.818   4.238
30027WAT     H190323   4.668   8.828   4.146
30027WAT     H290324   4.599   8.906   4.271
30028WAT      O90325   3.411   3.647   9.256
30028WAT     H190326   3.314   3.624   9.266
30028WAT     H290327   3.455   3.647   9.347
30029WAT      O90328   0.019   9.102   3.182
30029WAT     H190329   0.095   9.038   3.188
30029WAT     H290330  -0.049   9.079   3.251
30030WAT      O90331   1.588   9.214   8.097
30030WAT     H190332   1.556   9.196   8.190
30030WAT     H290333   1.675   9.167   8.082
30031WAT      O90334   9.514   6.217   3.968
30031WAT     H190335   9.593   6.202   3.909
30031WAT     H290336   9.441   6.260   3.916
30032WAT      O90337   4.204   7.621   3.690
30032WAT     H190338   4.297   7.658   3.695
30032WAT     H290339   4.206   7.533   3.642
30033WAT      O90340   4.463   0.707   1.476
30033WAT     H190341   4.562   0.719   1.477
30033WAT     H290342   4.438   0.626   1.530
30034WAT      O90343   0.203   4.811   7.695
30034WAT     H190344   0.132   4.881   7.701
30034WAT     H290345   0.162   4.721   7.711
30035WAT      O90346   3.620   7.653   5.810
30035WAT     H190347   3.555   7.624   5.740
30035WAT     H290348   3.713   7.638   5.777
30036WAT      O90349   6.841   5.222   2.019
30036WAT     H190350   6.845   5.124   2.004
30036WAT     H290351   6.803   5.267   1.938
30037WAT      O90352   4.322   1.904   4.426
30037WAT     H190353   4.265   1.977   4.388
30037WAT     H290354   4.340   1.922   4.522
30038WAT      O90355   8.219   5.811   2.113
30038WAT     H190356   8.236   5.879   2.041
30038WAT     H290357   8.124   5.817   2.142
30039WAT      O90358   8.717   4.725   9.100
30039WAT     H190359   8.677   4.646   9.146
30039WAT     H290360   8.811   4.705   9.075
30040WAT      O90361   7.823   9.562   7.392
30040WAT     H190362   7.920   9.574   7.412
30040WAT     H290363   7.810   9.480   7.336
30041WAT      O90364   6.434   8.661   1.986
30041WAT     H190365   6.411   8.657   2.083
30041WAT     H290366   6.403   8.747   1.947
30042WAT      O90367   6.637   1.448   0.894
30042WAT     H190368   6.717   1.415   0.846
30042WAT     H290369   6.642   1.548   0.903
30043WAT      O90370   3.972   5.853   5.887
30043WAT     H190371   3.893   5.896   5.930
30043WAT     H290372   4.039   5.923   5.863
30044WAT      O90373   0.108   5.717   1.688
30044WAT     H190374   0.016   5.753   1.671
30044WAT     H290375   0.172   5.753   1.620
30045WAT      O90376   0.187   0.144   8.429
30045WAT     H190377   0.281   0.178   8.437
30045WAT     H290378   0.188   0.051   8.394
30046WAT      O90379   1.569   1.676   4.092
30046WAT     H190380   1.526   1.597   4.136
30046WAT     H290381   1.563   1.667   3.993
30047WAT      O90382   7.999   3.260   2.526
30047WAT     H190383   7.976   3.246   2.430
30047WAT     H290384   7.958   3.346   2.557
30048WAT      O90385   7.886   7.126   4.530
30048WAT     H190386   7.825   7.142   4.452
30048WAT     H290387   7.906   7.028   4.536
30049WAT      O90388   4.693   2.049   1.722
30049WAT     H190389   4.669   2.018   1.814
30049WAT     H290390   4.698   2.149   1.721
30050WAT      O90391   7.428   4.382   0.072
30050WAT     H190392   7.430   4.300   0.130
30050WAT     H290393   7.338   4.425   0.078
30051WAT      O90394   6.813   8.655   2.389
30051WAT     H190395   6.891   8.597   2.411
30051WAT     H290396   6.731   8.623   2.437
30052WAT      O90397   8.280   5.190   0.973
30052WAT     H190398   8.325   5.103   0.955
30052WAT     H290399   8.316   5.260   0.911
30053WAT      O90400   2.348   3.552   7.781
30053WAT     H190401   2.406   3.583   7.857
30053WAT     H290402   2.400   3.489   7.724
30054WAT      O90403   4.571   6.011   7.939
30054WAT     H190404   4.473   6.027   7.923
30054WAT     H290405   4.583   5.933   8.001
30055WAT      O90406   1.411   1.300   9.790
30055WAT     H190407   1.358   1.376   9.751
30055WAT     H290408   1.481   1.336   9.851
30056WAT      O90409   9.800   8.248   6.884
30056WAT     H190410   9.722   8.236   6.946
30056WAT     H290411   9.863   8.172   6.895
30057WAT      O90412   0.185   0.631   6.652
30057WAT     H190413   0.162   0.713   6.598
30057WAT     H290414   0.146   0.551   6.608
30058WAT      O90415   5.849   5.430   3.723
30058WAT     H190416   5.817   5.348   3.770
30058WAT     H290417   5.942   5.452   3.754
30059WAT      O90418   8.218   6.651   1.204
30059WAT     H190419   8.142   6.600   1.163
30059WAT     H290420   8.290   6.664   1.136
30060WAT      O90421   0.937   9.587   3.911
30060WAT     H190422   0.999   9.522   3.956
30060WAT     H290423   0.893   9.542   3.833
30061WAT      O90424   8.383   4.056   1.128
30061WAT     H190425   8.326   4.058   1.210
30061WAT     H290426   8.347   3.988   1.064
30062WAT      O90427   8.859   8.377   5.141
30062WAT     H190428   8.775   8.345   5.098
30062WAT     H290429   8.878   8.471   5.112
30063WAT      O90430   9.022   1.236   9.767
30063WAT     H190431   9.072   1.301   9.711
30063WAT     H290432   8.925   1.257   9.765
30064WAT      O90433   4.468   4.338   9.656
30064WAT     H190434   4.553   4.359   9.706
30064WAT     H290435   4.390   4.353   9.717
30065WAT      O90436   5.098   7.943   8.848
30065WAT     H190437   5.012   7.988   8.874
30065WAT     H290438   5.135   7.893   8.926
30066WAT      O90439   3.811   8.659   7.455
30066WAT     H190440   3.746   8.734   7.454
30066WAT     H290441   3.763   8.574   7.476
30067WAT      O90442   5.980   7.970   1.784
30067WAT     H190443   5.985   8.066   1.811
30067WAT     H290444   6.056   7.920   1.827
30068WAT      O90445   9.695   2.179   0.980
30068WAT     H190446   9.616   2.239   0.973
30068WAT     H290447   9.765   2.208   0.916
30069WAT      O90448   1.445   8.671   8.501
30069WAT     H190449   1.512   8.745   8.505
30069WAT     H290450   1.355   8.706   8.526
30070WAT      O90451   3.947   6.265   7.908
30070WAT     H190452   3.869   6.326   7.892
30070WAT     H290453   4.030   6.306   7.870
30071WAT      O90454   8.360   2.818   9.662
30071WAT     H190455   8.262   2.825   9.675
30071WAT     H290456   8.395   2.737   9.710
30072WAT      O90457   8.611   4.634   0.770
30072WAT     H190458   8.569   4.552   0.732
30072WAT     H290459   8.618   4.704   0.699
30073WAT      O90460   6.292   3.027   0.909
30073WAT     H190461   6.235   2.947   0.889
30073WAT     H290462   6.257   3.073   0.991
30074WAT      O90463   2.766   0.069   8.426
30074WAT     H190464   2.731   0.138   8.363
30074WAT     H290465   2.738  -0.022   8.396
30075WAT      O90466   9.765   2.061   6.623
30075WAT     H190467   9.825   2.141   6.619
30075WAT     H290468   9.819   1.979   6.607
30076WAT      O90469   1.486   6.862   3.341
30076WAT     H190470   1.569   6.887   3.292
30076WAT     H290471   1.472   6.924   3.418
30077WAT      O90472   3.379   1.648   3.779
30077WAT     H190473   3.438   1.594   3.719
30077WAT     H290474   3.429   1.728   3.811
30078WAT      O90475   8.410   2.293   0.471
30078WAT     H190476   8.386   2.223   0.539
30078WAT     H290477   8.430   2.379   0.518
30079WAT      O90478   6.446   1.485   9.043
30079WAT     H190479   6.536   1.456   9.009
30079WAT     H290480   6.450   1.581   9.069
30080WAT      O90481   6.664   5.954   1.602
30080WAT     H190482   6.589   6.005   1.643
30080WAT     H290483   6.685   5.991   1.512
30081WAT      O90484   6.554   3.490   4.530
30081WAT     H190485   6.600   3.416   4.579
30081WAT     H290486   6.455   3.475   4.534
30082WAT      O90487   8.745   1.462   4.420
30082WAT     H190488   8.769   1.458   4.517
30082WAT     H290489   8.822   1.497   4.367
30083WAT      O90490   3.135   9.170   6.251
30083WAT     H190491   3.090   9.252   6.215
30083WAT     H290492   3.078   9.130   6.323
30084WAT      O90493   8.772   5.954   2.814
30084WAT     H190494   8.866   5.970   2.782
30084WAT     H290495   8.719   6.038   2.805
30085WAT      O90496   1.642   2.837   2.008
30085WAT     H190497   1.702   2.851   1.929
30085WAT     H290498   1.685   2.878   2.089
30086WAT      O90499   5.817   9.600   5.933
30086WAT     H190500   5.767   9.585   6.018
30086WAT     H290501   5.906   9.641   5.954
30087WAT      O90502   8.891   0.464   4.465
30087WAT     H190503   8.987   0.451   4.490
30087WAT     H290504   8.866   0.560   4.477
30088WAT      O90505   4.180   5.724   8.225
30088WAT     H190506   4.264   5.777   8.212
30088WAT     H290507   4.198   5.628   8.204
30089WAT      O90508   5.865   2.283   0.812
30089WAT     H190509   5.799   2.357   0.799
30089WAT     H290510   5.929   2.308   0.885
30090WAT      O90511   4.081   1.297   9.173
30090WAT     H190512   4.161   1.298   9.112
30090WAT     H290513   4.044   1.389   9.181
30091WAT      O90514   9.786   3.012   2.915
30091WAT     H190515   9.834   2.924   2.910
30091WAT     H290516   9.852   3.086   2.906
30092WAT      O90517   4.185   9.101   0.038
30092WAT     H190518   4.142   9.116  -0.051
30092WAT     H290519   4.223   9.009   0.041
30093WAT      O90520   0.557   1.057   1.652
30093WAT     H190521   0.570   1.114   1.733
30093WAT     H290522   0.495   0.982   1.673
30094WAT      O90523   3.287   7.588   4.516
30094WAT     H190524   3.190   7.567   4.519
30094WAT     H290525   3.320   7.610   4.608
30095WAT      O90526   4.175   2.297   2.865
30095WAT     H190527   4.194   2.230   2.793
30095WAT     H290528   4.135   2.251   2.944
30096WAT      O90529   3.969   5.601   3.070
30096WAT     H190530   3.978   5.609   2.970
30096WAT     H290531   4.055   5.567   3.108
30097WAT      O90532   8.793   2.346   4.437
30097WAT     H190533   8.695   2.330   4.453
30097WAT     H290534   8.837   2.259   4.412
30098WAT      O90535   6.885   6.864   5.299
30098WAT     H190536   6.879   6.821   5.209
30098WAT     H290537   6.885   6.963   5.287
30099WAT      O90538   1.983   8.783   2.334
30099WAT     H190539   2.057   8.744   2.389
30099WAT     H290540   1.898   8.782   2.387
30100WAT      O90541   3.954   2.987   6.159
30100WAT     H190542   3.968   2.968   6.256
30100WAT     H290543   3.943   2.901   6.109
30101WAT      O90544   5.460   1.604   5.419
30101WAT     H190545   5.434   1.698   5.441
30101WAT     H290546   5.550   1.604   5.374
30102WAT      O90547   8.138   7.604   2.663
30102WAT     H190548   8.082   7.665   2.607
30102WAT     H290549   8.223   7.651   2.689
30103WAT      O90550   4.493   5.713   5.779
30103WAT     H190551   4.514   5.646   5.850
30103WAT     H290552   4.396   5.738   5.785
30104WAT      O90553   7.673   8.073   0.063
30104WAT     H190554   7.653   7.979   0.035
30104WAT     H290555   7.767   8.078   0.096
30105WAT      O90556   3.025   4.545   0.124
30105WAT     H190557   2.976   4.631   0.114
30105WAT     H290558   3.076   4.545   0.210
30106WAT      O90559   3.047   7.056   3.521
30106WAT     H190560   2.984   7.029   3.594
30106WAT     H290561   3.023   7.009   3.436
30107WAT      O90562   1.812   2.275   5.286
30107WAT     H190563   1.836   2.295   5.191
30107WAT     H290564   1.817   2.176   5.301
30108WAT      O90565   3.889   2.725   5.523
30108WAT     H190566   3.864   2.642   5.472
30108WAT     H290567   3.844   2.804   5.481
30109WAT      O90568   8.684   3.367   6.492
30109WAT     H190569   8.629   3.436   6.445
30109WAT     H290570   8.690   3.285   6.436
30110WAT      O90571   2.084   5.810   6.330
30110WAT     H190572   2.036   5.896   6.316
30110WAT     H290573   2.094   5.763   6.242
30111WAT      O90574   1.810   5.236   8.896
30111WAT     H190575   1.851   5.197   8.978
30111WAT     H290576   1.719   5.196   8.882
30112WAT      O90577   6.523   7.091   3.595
30112WAT     H190578   6.538   7.131   3.686
30112WAT     H290579   6.429   7.106   3.567
30113WAT      O90580   2.472   1.310   5.000
30113WAT     H190581   2.519   1.343   4.918
30113WAT     H290582   2.468   1.384   5.068
30114WAT      O90583   0.520   4.056   2.022
30114WAT     H190584   0.515   4.129   1.954
30114WAT     H290585   0.537   4.095   2.112
30115WAT      O90586   3.853   8.373   7.332
30115WAT     H190587   3.770   8.410   7.374
30115WAT     H290588   3.843   8.274   7.321
30116WAT      O90589   4.219   6.486   4.503
30116WAT     H190590   4.249   6.391   4.497
30116WAT     H290591   4.270   6.533   4.575
30117WAT      O90592   4.577   2.349   2.149
30117WAT     H190593   4.663   2.303   2.125
30117WAT     H290594   4.543   2.312   2.235
30118WAT      O90595   7.272   2.288   4.271
30118WAT     H190596   7.280   2.291   4.171
30118WAT     H290597   7.201   2.222   4.297
30119WAT      O90598   8.562   2.362   9.131
30119WAT     H190599   8.477   2.400   9.095
30119WAT     H290600   8.545   2.324   9.222
30120WAT      O90601   9.599   8.052   6.368
30120WAT     H190602   9.623   7.979   6.304
30120WAT     H290603   9.672   8.064   6.434
30121WAT      O90604   4.410   1.034   3.156
30121WAT     H190605   4.499   1.077   3.140
30121WAT     H290606   4.349   1.054   3.080
30122WAT      O90607   1.062   8.286   4.107
30122WAT     H190608   1.111   8.323   4.186
30122WAT     H290609   1.009   8.359   4.064
30123WAT      O90610   3.815   7.129   1.846
30123WAT     H190611   3.892   7.190   1.862
30123WAT     H290612   3.843   7.054   1.787
30124WAT      O90613   4.567   5.866   1.946
30124WAT     H190614   4.495   5.922   1.987
30124WAT     H290615   4.610   5.811   2.017
30125WAT      O90616   0.013   2.128   8.616
30125WAT     H190617   0.088   2.137   8.551
30125WAT     H290618  -0.039   2.213   8.619
30126WAT      O90619   1.647   1.863   9.170
30126WAT     H190620   1.608   1.955   9.161
30126WAT     H290621   1.575   1.798   9.193
30127WAT      O90622   8.447   6.771   9.882
30127WAT     H190623   8.413   6.782   9.975
30127WAT     H290624   8.481   6.858   9.848
30128WAT      O90625   2.381   2.344   8.703
30128WAT     H190626   2.381   2.371   8.799
30128WAT     H290627   2.406   2.247   8.696
30129WAT      O90628   8.141   6.077   8.056
30129WAT     H190629   8.182   6.166   8.038
30129WAT     H290630   8.144   6.058   8.154
30130WAT      O90631   6.405   9.583   0.326
30130WAT     H190632   6.335   9.545   0.386
30130WAT     H290633   6.434   9.672   0.360
30131WAT      O90634   8.611   8.034   3.206
30131WAT     H190635   8.516   8.027   3.236
30131WAT     H290636   8.648   8.123   3.232
30132WAT      O90637   2.142   7.026   7.000
30132WAT     H190638   2.109   7.117   7.027
30132WAT     H290639   2.097   6.956   7.055
30133WAT      O90640   5.840   5.475   4.560
30133WAT     H190641   5.765   5.506   4.618
30133WAT     H290642   5.914   5.440   4.617
30134WAT      O90643   6.620   8.577   9.174
30134WAT     H190644   6.676   8.623   9.105
30134WAT     H290645   6.633   8.623   9.262
30135WAT      O90646   5.354   4.917   4.102
30135WAT     H190647   5.346   5.008   4.061
30135WAT     H290648   5.439   4.874   4.070
30136WAT      O90649   7.412   3.875   9.191
30136WAT     H190650   7.421   3.907   9.286
30136WAT     H290651   7.501   3.880   9.146
30137WAT      O90652   7.137   7.877   6.175
30137WAT     H190653   7.138   7.779   6.156
30137WAT     H290654   7.224   7.905   6.214
30138WAT      O90655   3.022   3.195   7.712
30138WAT     H190656   2.988   3.288   7.722
30138WAT     H290657   3.021   3.149   7.802
30139WAT      O90658   7.204   5.898   5.014
30139WAT     H190659   7.275   5.878   5.081
30139WAT     H290660   7.115   5.870   5.051
30140WAT      O90661   4.547   7.525   4.831
30140WAT     H190662   4.606   7.530   4.912
30140WAT     H290663   4.495   7.440   4.833
30141WAT      O90664   4.210   4.434   1.910
30141WAT     H190665   4.279   4.501   1.878
30141WAT     H290666   4.123   4.481   1.923
30142WAT      O90667   5.857   1.646   0.519
30142WAT     H190668   5.861   1.746   0.518
30142WAT     H290669   5.875   1.613   0.611
30143WAT      O90670   0.450   1.687   2.629
30143WAT     H190671   0.516   1.639   2.570
30143WAT     H290672   0.357   1.661   2.603
30144WAT      O90673   4.414   5.097   9.763
30144WAT     H190674   4.461   5.157   9.699
30144WAT     H290675   4.330   5.141   9.795
30145WAT      O90676   4.367   7.632   6.965
30145WAT     H190677   4.467   7.637   6.968
30145WAT     H290678   4.329   7.720   6.994
30146WAT      O90679   8.642   2.966   2.702
30146WAT     H190680   8.707   2.903   2.660
30146WAT     H290681   8.563   2.978   2.641
30147WAT      O90682   0.659   1.872   5.755
30147WAT     H190683   0.629   1.959   5.717
30147WAT     H290684   0.580   1.821   5.789
30148WAT      O90685   6.602   0.431   7.240
30148WAT     H190686   6.601   0.469   7.333
30148WAT     H290687   6.612   0.331   7.246
30149WAT      O90688   9.270   5.331   9.784
30149WAT     H190689   9.350   5.347   9.726
30149WAT     H290690   9.298   5.283   9.867
30150WAT      O90691   9.786   6.010   1.045
30150WAT     H190692   9.708   6.022   0.984
30150WAT     H290693   9.789   6.085   1.111
30151WAT      O90694   2.619   8.709   9.001
30151WAT     H190695   2.621   8.742   8.907
30151WAT     H290696   2.624   8.787   9.064
30152WAT      O90697   3.418   3.449   3.174
30152WAT     H190698   3.461   3.538   3.159
30152WAT     H290699   3.487   3.377   3.165
30153WAT      O90700   0.189   0.487   9.795
30153WAT     H190701   0.190   0.585   9.778
30153WAT     H290702   0.281   0.450   9.780
30154WAT      O90703   2.188   0.373   6.060
30154WAT     H190704   2.226   0.284   6.036
30154WAT     H290705   2.196   0.387   6.158
30155WAT      O90706   9.578   3.863   7.086
30155WAT     H190707   9.479   3.853   7.079
30155WAT     H290708   9.608   3.939   7.028
30156WAT      O90709   2.987   1.789   2.805
30156WAT     H190710   2.929   1.769   2.726
30156WAT     H290711   2.941   1.761   2.889
30157WAT      O90712   6.099   5.797   8.548
30157WAT     H190713   6.149   5.767   8.466
30157WAT     H290714   6.111   5.896   8.560
30158WAT      O90715   1.925   1.367   2.044
30158WAT     H190716   1.976   1.453   2.039
30158WAT     H290717   1.968   1.306   2.110
30159WAT      O90718   6.622   6.573   1.319
30159WAT     H190719   6.545   6.560   1.257
30159WAT     H290720   6.705   6.539   1.276
30160WAT      O90721   3.569   1.465   7.196
30160WAT     H190722   3.512   1.420   7.264
30160WAT     H290723   3.551   1.426   7.106
30161WAT      O90724   6.876   3.444   8.670
30161WAT     H190725   6.824   3.449   8.585
30161WAT     H290726   6.914   3.353   8.681
30162WAT      O90727   2.189   0.694   1.514
30162WAT     H190728   2.155   0.766   1.574
30162WAT     H290729   2.251   0.733   1.446
30163WAT      O90730   8.457   9.207   8.044
30163WAT     H190731   8.427   9.205   7.949
30163WAT     H290732   8.429   9.294   8.086
30164WAT      O90733   7.459   8.712   5.574
30164WAT     H190734   7.489   8.780   5.507
30164WAT     H290735   7.470   8.748   5.666
30165WAT      O90736   1.189   0.784   6.249
30165WAT     H190737   1.280   0.744   6.236
30165WAT     H290738   1.172   0.797   6.347
30166WAT      O90739   2.288   7.141   5.853
30166WAT     H190740   2.269   7.090   5.769
30166WAT     H290741   2.216   7.124   5.920
30167WAT      O90742   5.037   6.244   3.649
30167WAT     H190743   5.119   6.294   3.674
30167WAT     H290744   5.038   6.223   3.552
30168WAT      O90745   3.704   4.273   7.869
30168WAT     H190746   3.795   4.239   7.845
30168WAT     H290747   3.646   4.274   7.788
30169WAT      O90748   9.002   4.655   1.925
30169WAT     H190749   9.001   4.717   1.846
30169WAT     H290750   9.037   4.566   1.897
30170WAT      O90751   6.651   8.110   7.072
30170WAT     H190752   6.615   8.095   6.980
30170WAT     H290753   6.682   8.023   7.110
30171WAT      O90754   6.977   7.507   7.064
30171WAT     H190755   6.952   7.458   6.981
30171WAT     H290756   6.974   7.444   7.142
30172WAT      O90757   7.743   5.188   2.999
30172WAT     H190758   7.835   5.218   2.975
30172WAT     H290759   7.715   5.234   3.084
30173WAT      O90760   0.572   7.997   0.028
30173WAT     H190761   0.586   7.990   0.127
30173WAT     H290762   0.640   7.942  -0.020
30174WAT      O90763   2.709   6.718   1.831
30174WAT     H190764   2.789   6.730   1.772
30174WAT     H290765   2.626   6.738   1.779
30175WAT      O90766   5.452   7.400   3.762
30175WAT     H190767   5.493   7.310   3.776
30175WAT     H290768   5.355   7.390   3.740
30176WAT      O90769   7.508   3.719   7.485
30176WAT     H190770   7.549   3.795   7.434
30176WAT     H290771   7.560   3.635   7.468
30177WAT      O90772   2.734   6.657   3.361
30177WAT     H190773   2.814   6.713   3.380
30177WAT     H290774   2.729   6.639   3.263
30178WAT      O90775   6.912   2.002   1.712
30178WAT     H190776   6.855   2.072   1.668
30178WAT     H290777   6.869   1.972   1.797
30179WAT      O90778   0.584   3.868   4.289
30179WAT     H190779   0.544   3.863   4.381
30179WAT     H290780   0.553   3.951   4.243
30180WAT      O90781   1.793   5.836   6.480
30180WAT     H190782   1.806   5.782   6.563
30180WAT     H290783   1.883   5.859   6.442
30181WAT      O90784   1.025   8.518   0.533
30181WAT     H190785   1.082   8.437   0.545
30181WAT     H290786   0.949   8.515   0.598
30182WAT      O90787   9.247   1.308   2.127
30182WAT     H190788   9.342   1.339   2.135
30182WAT     H290789   9.213   1.284   2.218
30183WAT      O90790   8.627   3.148   4.720
30183WAT     H190791   8.715   3.114   4.685
30183WAT     H290792   8.590   3.216   4.656
30184WAT      O90793   6.144   9.399   9.667
30184WAT     H190794   6.069   9.463   9.682
30184WAT     H290795   6.217   9.445   9.616
30185WAT      O90796   7.464   0.202   1.177
30185WAT     H190797   7.531   0.195   1.103
30185WAT     H290798   7.400   0.125   1.171
30186WAT      O90799   7.645   0.690   6.810
30186WAT     H190800   7.687   0.639   6.735
30186WAT     H290801   7.717   0.732   6.866
30187WAT      O90802   5.983   1.872   5.831
30187WAT     H190803   6.059   1.807   5.824
30187WAT     H290804   6.021   1.964   5.842
30188WAT      O90805   7.062   4.096   4.331
30188WAT     H190806   7.004   4.102   4.412
30188WAT     H290807   7.005   4.100   4.249
30189WAT      O90808   3.097   1.273   6.905
30189WAT     H190809   3.173   1.214   6.933
30189WAT     H290810   3.132   1.365   6.885
30190WAT      O90811   8.868   0.728   4.526
30190WAT     H190812   8.775   0.764   4.513
30190WAT     H290813   8.927   0.763   4.453
30191WAT      O90814   5.874   4.632   8.341
30191WAT     H190815   5.891   4.557   8.404
30191WAT     H290816   5.776   4.653   8.339
30192WAT      O90817   6.734   3.322   3.074
30192WAT     H190818   6.663   3.380   3.114
30192WAT     H290819   6.691   3.248   3.023
30193WAT      O90820   1.222   9.553   8.544
30193WAT     H190821   1.311   9.597   8.545
30193WAT     H290822   1.175   9.570   8.631
30194WAT      O90823   8.396   1.350   8.563
30194WAT     H190824   8.435   1.363   8.472
30194WAT     H290825   8.334   1.426   8.583
30195WAT      O90826   7.965   4.082   7.276
30195WAT     H190827   8.014   4.017   7.335
30195WAT     H290828   7.896   4.131   7.331
30196WAT      O90829   5.372   4.560   0.561
30196WAT     H190830   5.275   4.538   0.563
30196WAT     H290831   5.385   4.658   0.546
30197WAT      O90832   8.046   2.013   0.128
30197WAT     H190833   7.957   1.978   0.099
30197WAT     H290834   8.093   2.053   0.049
30198WAT      O90835   3.572   3.575   8.798
30198WAT     H190836   3.588   3.534   8.709
30198WAT     H290837   3.660   3.593   8.843
30199WAT      O90838   8.787   1.707   6.830
30199WAT     H190839   8.846   1.787   6.846
30199WAT     H290840   8.789   1.683   6.733
30200WAT      O90841   8.804   8.211   2.373
30200WAT     H190842   8.816   8.147   2.449
30200WAT     H290843   8.736   8.280   2.398
30201WAT      O90844   4.120   0.054   9.281
30201WAT     H190845   4.136   0.145   9.242
30201WAT     H290846   4.118  -0.014   9.207
30202WAT      O90847   1.924   8.503   4.720
30202WAT     H190848   1.832   8.464   4.717
30202WAT     H290849   1.950   8.521   4.815
30203WAT      O90850   4.169   9.711   0.572
30203WAT     H190851   4.106   9.646   0.615
30203WAT     H290852   4.132   9.804   0.579
30204WAT      O90853   5.719   0.312   2.797
30204WAT     H190854   5.671   0.322   2.884
30204WAT     H290855   5.771   0.395   2.778
30205WAT      O90856   9.029   6.869   9.200
30205WAT     H190857   9.092   6.862   9.123
30205WAT     H290858   9.052   6.950   9.255
30206WAT      O90859   6.117   7.557   7.744
30206WAT     H190860   6.041   7.621   7.757
30206WAT     H290861   6.195   7.588   7.799
30207WAT      O90862   3.113   7.847   1.501
30207WAT     H190863   3.169   7.829   1.420
30207WAT     H290864   3.036   7.783   1.503
30208WAT      O90865   0.921   2.981   3.690
30208WAT     H190866   1.003   3.033   3.714
30208WAT     H290867   0.840   3.029   3.724
30209WAT      O90868   4.198   3.985   0.647
30209WAT     H190869   4.235   4.075   0.673
30209WAT     H290870   4.098   3.989   0.649
30210WAT      O90871   3.253   3.810   8.299
30210WAT     H190872   3.333   3.798   8.359
30210WAT     H290873   3.284   3.837   8.208
30211WAT      O90874   7.919   6.314   7.821
30211WAT     H190875   7.892   6.223   7.852
30211WAT     H290876   7.907   6.322   7.723
30212WAT      O90877   3.777   3.967   7.369
30212WAT     H190878   3.701   3.915   7.409
30212WAT     H290879   3.743   4.022   7.292
30213WAT      O90880   1.593   8.817   9.260
30213WAT     H190881   1.689   8.841   9.278
30213WAT     H290882   1.541   8.825   9.345
30214WAT      O90883   4.231   7.952   7.733
30214WAT     H190884   4.231   8.032   7.673
30214WAT     H290885   4.172   7.970   7.812
30215WAT      O90886   8.717   9.240   4.544
30215WAT     H190887   8.701   9.306   4.617
30215WAT     H290888   8.815   9.225   4.534
30216WAT      O90889   9.775   5.752   3.796
30216WAT     H190890   9.824   5.805   3.865
30216WAT     H290891   9.681   5.784   3.789
30217WAT      O90892   0.427   7.300   6.568
30217WAT     H190893   0.508   7.248   6.542
30217WAT     H290894   0.452   7.396   6.583
30218WAT      O90895   3.013   9.160   2.440
30218WAT     H190896   3.010   9.155   2.540
30218WAT     H290897   2.934   9.213   2.408
30219WAT      O90898   2.505   4.078   4.411
30219WAT     H190899   2.603   4.096   4.406
30219WAT     H290900   2.490   3.991   4.458
30220WAT      O90901   8.494   4.012   7.272
30220WAT     H190902   8.428   4.087   7.273
30220WAT     H290903   8.474   3.951   7.195
30221WAT      O90904   5.611   8.624   3.558
30221WAT     H190905   5.642   8.699   3.500
30221WAT     H290906   5.689   8.564   3.578
30222WAT      O90907   1.900   6.149   8.423
30222WAT     H190908   1.817   6.198   8.393
30222WAT     H290909   1.879   6.052   8.433
30223WAT      O90910   1.068   8.444   9.134
30223WAT     H190911   1.160   8.484   9.125
30223WAT     H290912   1.031   8.465   9.224
30224WAT      O90913   8.909   3.929   9.055
30224WAT     H190914   8.839   3.959   9.119
30224WAT     H290915   8.984   3.995   9.053
30225WAT      O90916   6.909   7.157   5.470
30225WAT     H190917   6.931   7.073   5.519
30225WAT     H290918   6.862   7.220   5.531
30226WAT      O90919   0.811   8.554   0.691
30226WAT     H190920   0.779   8.632   0.638
30226WAT     H290921   0.850   8.585   0.778
30227WAT      O90922   3.180   4.359   7.902
30227WAT     H190923   3.172   4.260   7.891
30227WAT     H290924   3.095   4.396   7.938
30228WAT      O90925   9.512   6.760   7.299
30228WAT     H190926   9.482   6.760   7.394
30228WAT     H290927   9.479   6.678   7.253
30229WAT      O90928   7.486   4.105   7.624
30229WAT     H190929   7.440   4.145   7.545
30229WAT     H290930   7.571   4.154   7.641
30230WAT      O90931   9.780   9.709   7.819
30230WAT     H190932   9.748   9.668   7.905
30230WAT     H290933   9.819   9.799   7.838
30231WAT      O90934   4.885   0.090   6.835
30231WAT     H190935   4.861   0.038   6.752
30231WAT     H290936   4.834   0.175   6.836
30232WAT      O90937   8.645   7.360   9.758
30232WAT     H190938   8.619   7.372   9.662
30232WAT     H290939   8.744   7.345   9.764
30233WAT      O90940   7.186   8.526   0.892
30233WAT     H190941   7.198   8.549   0.795
30233WAT     H290942   7.210   8.606   0.948
30234WAT      O90943   0.120   8.216   8.383
30234WAT     H190944   0.048   8.260   8.436
30234WAT     H290945   0.190   8.179   8.445
30235WAT      O90946   8.734   9.255   5.555
30235WAT     H190947   8.722   9.352   5.532
30235WAT     H290948   8.660   9.227   5.616
30236WAT      O90949   3.206   1.169   9.239
30236WAT     H190950   3.231   1.266   9.245
30236WAT     H290951   3.147   1.145   9.316
30237WAT      O90952   6.501   1.485   7.043
30237WAT     H190953   6.520   1.444   7.132
30237WAT     H290954   6.583   1.482   6.986
30238WAT      O90955   5.114   4.514   1.171
30238WAT     H190956   5.208   4.501   1.202
30238WAT     H290957   5.051   4.474   1.238
30239WAT      O90958   9.729   6.063   0.114
30239WAT     H190959   9.691   6.070   0.021
30239WAT     H290960   9.826   6.088   0.112
30240WAT      O90961   2.544   2.604   8.416
30240WAT     H190962   2.571   2.700   8.402
30240WAT     H290963   2.478   2.578   8.346
30241WAT      O90964   7.338   7.684   2.793
30241WAT     H190965   7.244   7.709   2.816
30241WAT     H290966   7.379   7.637   2.871
30242WAT      O90967   0.156   2.923   0.666
30242WAT     H190968   0.172   2.951   0.571
30242WAT     H290969   0.217   2.973   0.727
30243WAT      O90970   2.958   0.754   7.440
30243WAT     H190971   2.872   0.708   7.462
30243WAT     H290972   3.031   0.687   7.429
30244WAT      O90973   8.933   7.979   4.084
30244WAT     H190974   8.981   7.992   4.171
30244WAT     H290975   8.987   7.920   4.025
30245WAT      O90976   4.189   1.038   9.470
30245WAT     H190977   4.217   1.134   9.472
30245WAT     H290978   4.265   0.981   9.500
30246WAT      O90979   9.486   4.356   2.642
30246WAT     H190980   9.448   4.343   2.734
30246WAT     H290981   9.411   4.358   2.576
30247WAT      O90982   6.555   4.069   7.504
30247WAT     H190983   6.581   4.115   7.420
30247WAT     H290984   6.457   4.080   7.519
30248WAT      O90985   9.217   7.706   5.071
30248WAT     H190986   9.317   7.697   5.073
30248WAT     H290987   9.192   7.800   5.047
30249WAT      O90988   6.856   9.227   8.894
30249WAT     H190989   6.764   9.264   8.898
30249WAT     H290990   6.889   9.209   8.987
30250WAT      O90991   3.931   4.241   2.052
30250WAT     H190992   3.996   4.204   1.986
30250WAT     H290993   3.965   4.227   2.145
30251WAT      O90994   4.951   3.452   3.525
30251WAT     H190995   4.905   3.365   3.505
30251WAT     H290996   5.047   3.434   3.548
30252WAT      O90997   3.747   6.741   1.915
30252WAT     H190998   3.701   6.703   1.834
30252WAT     H290999   3.840   6.767   1.891
30253WAT      O91000   3.115   6.192   4.841
30253WAT     H191001   3.019   6.198   4.811
30253WAT     H291002   3.156   6.109   4.805
30254WAT      O91003   5.362   9.647   7.464
30254WAT     H191004   5.354   9.747   7.471
30254WAT     H291005   5.449   9.623   7.422
30255WAT      O91006   7.149   9.469   4.766
30255WAT     H191007   7.056   9.448   4.734
30255WAT     H291008   7.163   9.568   4.764
30256WAT      O91009   0.876   1.870   9.656
30256WAT     H191010   0.898   1.805   9.729
30256WAT     H291011   0.849   1.819   9.574
30257WAT      O91012   6.774   1.947   1.288
30257WAT     H191013   6.737   1.965   1.197
30257WAT     H291014   6.711   1.982   1.357
30258WAT      O91015   2.894   2.642   5.839
30258WAT     H191016   2.817   2.605   5.893
30258WAT     H291017   2.889   2.741   5.839
30259WAT      O91018   3.719   6.654   3.748
30259WAT     H191019   3.687   6.648   3.842
30259WAT     H291020   3.707   6.748   3.715
30260WAT      O91021   7.458   3.462   0.970
30260WAT     H191022   7.452   3.365   0.947
30260WAT     H291023   7.550   3.484   1.002
30261WAT      O91024   1.613   4.645   8.168
30261WAT     H191025   1.684   4.583   8.199
30261WAT     H291026   1.556   4.600   8.099
30262WAT      O91027   3.291   0.286   3.906
30262WAT     H191028   3.210   0.330   3.945
30262WAT     H291029   3.364   0.353   3.896
30263WAT      O91030   7.199   3.319   2.016
30263WAT     H191031   7.103   3.347   2.020
30263WAT     H291032   7.257   3.395   2.044
30264WAT      O91033   4.882   2.875   7.908
30264WAT     H191034   4.826   2.794   7.892
30264WAT     H291035   4.941   2.859   7.988
30265WAT      O91036   2.321   5.713   9.562
30265WAT     H191037   2.356   5.801   9.593
30265WAT     H291038   2.261   5.726   9.483
30266WAT      O91039   8.518   4.876   5.045
30266WAT     H191040   8.581   4.830   4.982
30266WAT     H291041   8.560   4.960   5.079
30267WAT      O91042   2.020   7.915   2.132
30267WAT     H191043   2.052   7.976   2.059
30267WAT     H291044   2.058   7.945   2.219
30268WAT      O91045   6.756   3.869   7.586
30268WAT     H191046   6.727   3.800   7.652
30268WAT     H291047   6.681   3.934   7.569
30269WAT      O91048   0.341   7.656   6.365
30269WAT     H191049   0.378   7.610   6.446
30269WAT     H291050   0.273   7.596   6.321
30270WAT      O91051   9.814   4.438   6.873
30270WAT     H191052   9.906   4.422   6.838
30270WAT     H291053   9.748   4.387   6.818
30271WAT      O91054   2.055   5.500   0.770
30271WAT     H191055   2.033   5.596   0.787
30271WAT     H291056   2.068   5.485   0.672
30272WAT      O91057   7.430   4.539   5.697
30272WAT     H191058   7.441   4.637   5.711
30272WAT     H291059   7.469   4.513   5.608
30273WAT      O91060   8.759   0.879   1.303
30273WAT     H191061   8.661   0.886   1.289
30273WAT     H291062   8.778   0.814   1.376
30274WAT      O91063   1.667   2.973   7.680
30274WAT     H191064   1.653   2.960   7.778
30274WAT     H291065   1.654   2.886   7.632
30275WAT      O91066   4.466   0.355   9.566
30275WAT     H191067   4.490   0.339   9.662
30275WAT     H291068   4.472   0.269   9.516
30276WAT      O91069   7.196   0.697   9.130
30276WAT     H191070   7.107   0.651   9.137
30276WAT     H291071   7.189   0.789   9.168
30277WAT      O91072   4.689   2.666   7.856
30277WAT     H191073   4.677   2.591   7.921
30277WAT     H291074   4.749   2.637   7.782
30278WAT      O91075   0.910   9.095   4.292
30278WAT     H191076   0.840   9.147   4.244
30278WAT     H291077   0.986   9.155   4.315
30279WAT      O91078   9.767   1.885   8.781
30279WAT     H191079   9.676   1.896   8.820
30279WAT     H291080   9.778   1.948   8.705
30280WAT      O91081   1.770   8.105   1.950
30280WAT     H191082   1.864   8.117   1.919
30280WAT     H291083   1.768   8.106   2.050
30281WAT      O91084   3.497   5.009   2.254
30281WAT     H191085   3.500   5.079   2.325
30281WAT     H291086   3.560   5.034   2.180
30282WAT      O91087   2.012   2.612   5.436
30282WAT     H191088   1.940   2.682   5.433
30282WAT     H291089   1.996   2.552   5.514
30283WAT      O91090   6.561   5.842   6.406
30283WAT     H191091   6.638   5.865   6.465
30283WAT     H291092   6.532   5.748   6.424
30284WAT      O91093   2.783   4.935   2.653
30284WAT     H191094   2.834   4.854   2.680
30284WAT     H291095   2.759   4.930   2.556
30285WAT      O91096   1.629   5.407   0.960
30285WAT     H191097   1.720   5.399   0.919
30285WAT     H291098   1.637   5.414   1.059
30286WAT      O91099   7.557   2.125   3.096
30286WAT     H191100   7.540   2.026   3.097
30286WAT     H291101   7.536   2.161   3.005
30287WAT      O91102   9.431   3.352   7.726
30287WAT     H191103   9.446   3.266   7.774
30287WAT     H291104   9.519   3.390   7.697
30288WAT      O91105   4.774   0.227   3.290
30288WAT     H191106   4.743   0.311   3.245
30288WAT     H291107   4.701   0.191   3.347
30289WAT      O91108   7.053   8.122   3.631
30289WAT     H191109   7.111   8.044   3.653
30289WAT     H291110   6.981   8.131   3.699
30290WAT      O91111   4.766   8.271   1.727
30290WAT     H191112   4.751   8.177   1.755
30290WAT     H291113   4.712   8.292   1.646
30291WAT      O91114   8.660   2.295   2.135
30291WAT     H191115   8.591   2.288   2.208
30291WAT     H291116   8.641   2.375   2.078
30292WAT      O91117   7.028   1.949   5.234
30292WAT     H191118   6.962   1.954   5.159
30292WAT     H291119   6.982   1.926   5.319
30293WAT      O91120   5.778   9.308   3.616
30293WAT     H191121   5.736   9.367   3.686
30293WAT     H291122   5.825   9.365   3.549
30294WAT      O91123   6.527   4.905   2.441
30294WAT     H191124   6.456   4.916   2.371
30294WAT     H291125   6.611   4.948   2.411
30295WAT      O91126   0.936   8.167   8.806
30295WAT     H191127   0.975   8.178   8.897
30295WAT     H291128   0.974   8.235   8.744
30296WAT      O91129   5.836   2.419   8.928
30296WAT     H191130   5.778   2.391   9.005
30296WAT     H291131   5.931   2.426   8.958
30297WAT      O91132   4.386   1.826   2.508
30297WAT     H191133   4.441   1.777   2.575
30297WAT     H291134   4.382   1.772   2.423
30298WAT      O91135   9.058   0.539   3.529
30298WAT     H191136   8.999   0.618   3.548
30298WAT     H291137   9.044   0.510   3.434
30299WAT      O91138   7.671   5.758   1.785
30299WAT     H191139   7.676   5.839   1.726
30299WAT     H291140   7.609   5.777   1.862
30300WAT      O91141   4.257   4.570   2.549
30300WAT     H191142   4.281   4.504   2.478
30300WAT     H291143   4.161   4.595   2.540
30301WAT      O91144   8.025   3.968   7.873
30301WAT     H191145   8.104   3.906   7.880
30301WAT     H291146   7.972   3.945   7.792
30302WAT      O91147   2.924   5.429   2.163
30302WAT     H191148   2.872   5.432   2.078
30302WAT     H291149   2.975   5.343   2.168
30303WAT      O91150   7.661   2.508   2.440
30303WAT     H191151   7.690   2.586   2.385
30303WAT     H291152   7.736   2.442   2.445
30304WAT      O91153   9.847   0.000   4.997
30304WAT     H191154   9.915   0.048   4.941
30304WAT     H291155   9.771   0.061   5.015
30305WAT      O91156   4.515   1.697   9.215
30305WAT     H191157   4.437   1.744   9.174
30305WAT     H291158   4.592   1.698   9.152
30306WAT      O91159   8.283   3.298   2.128
30306WAT     H191160   8.378   3.268   2.140
30306WAT     H291161   8.261   3.367   2.197
30307WAT      O91162   8.916   2.241   7.156
30307WAT     H191163   8.931   2.242   7.255
30307WAT     H291164   8.984   2.180   7.114
30308WAT      O91165   4.476   1.129   1.840
30308WAT     H191166   4.551   1.176   1.793
30308WAT     H291167   4.393   1.136   1.786
30309WAT      O91168   5.563   4.756   9.326
30309WAT     H191169   5.479   4.710   9.356
30309WAT     H291170   5.623   4.689   9.282
30310WAT      O91171   0.912   4.028   2.534
30310WAT     H191172   0.897   4.031   2.633
30310WAT     H291173   1.006   4.002   2.515
30311WAT      O91174   2.847   3.242   8.831
30311WAT     H191175   2.865   3.312   8.763
30311WAT     H291176   2.792   3.169   8.791
30312WAT      O91177   5.748   8.981   1.463
30312WAT     H191178   5.792   9.071   1.460
30312WAT     H291179   5.784   8.929   1.540
30313WAT      O91180   5.308   7.322   9.494
30313WAT     H191181   5.352   7.237   9.463
30313WAT     H291182   5.264   7.306   9.583
30314WAT      O91183   7.535   6.782   4.756
30314WAT     H191184   7.437   6.767   4.758
30314WAT     H291185   7.581   6.708   4.805
30315WAT      O91186   9.563   0.549   9.704
30315WAT     H191187   9.595   0.527   9.797
30315WAT     H291188   9.511   0.472   9.668
30316WAT      O91189   7.220   4.864   7.522
30316WAT     H191190   7.167   4.949   7.535
30316WAT     H291191   7.197   4.800   7.595
30317WAT      O91192   5.729   5.172   9.222
30317WAT     H191193   5.678   5.257   9.209
30317WAT     H291194   5.688   5.119   9.296
30318WAT      O91195   9.832   5.022   9.324
30318WAT     H191196   9.743   5.008   9.367
30318WAT     H291197   9.903   4.975   9.377
30319WAT      O91198   7.395   1.052   4.048
30319WAT     H191199   7.328   1.051   3.974
30319WAT     H291200   7.487   1.052   4.009
30320WAT      O91201   9.022   4.397   7.147
30320WAT     H191202   9.030   4.487   7.190
30320WAT     H291203   9.018   4.407   7.048
30321WAT      O91204   4.000   8.047   1.562
30321WAT     H191205   3.912   8.030   1.605
30321WAT     H291206   3.988   8.063   1.464
30322WAT      O91207   0.631   2.015   9.020
30322WAT     H191208   0.718   1.974   9.048
30322WAT     H291209   0.559   1.987   9.083
30323WAT      O91210   9.079   3.103   6.351
30323WAT     H191211   9.139   3.181   6.369
30323WAT     H291212   9.018   3.089   6.429
30324WAT      O91213   9.635   6.443   7.436
30324WAT     H191214   9.658   6.352   7.470
30324WAT     H291215   9.709   6.477   7.379
30325WAT      O91216   1.689   1.371   1.944
30325WAT     H191217   1.673   1.445   1.879
30325WAT     H291218   1.783   1.375   1.977
30326WAT      O91219   4.425   5.301   0.146
30326WAT     H191220   4.403   5.351   0.062
30326WAT     H291221   4.347   5.307   0.209
30327WAT      O91222   1.841   3.679   4.976
30327WAT     H191223   1.834   3.774   5.007
30327WAT     H291224   1.882   3.623   5.048
30328WAT      O91225   5.595   1.468   9.039
30328WAT     H191226   5.684   1.514   9.046
30328WAT     H291227   5.532   1.505   9.107
30329WAT      O91228   9.235   9.637   2.535
30329WAT     H191229   9.224   9.564   2.602
30329WAT     H291230   9.148   9.656   2.490
30330WAT      O91231   6.588   7.849   5.243
30330WAT     H191232   6.609   7.875   5.337
30330WAT     H291233   6.565   7.752   5.240
30331WAT      O91234   7.500   0.421   4.504
30331WAT     H191235   7.574   0.473   4.548
30331WAT     H291236   7.416   0.476   4.506
30332WAT      O91237   4.487   7.201   6.165
30332WAT     H191238   4.389   7.219   6.173
30332WAT     H291239   4.510   7.186   6.068
30333WAT      O91240   2.700   2.778   6.593
30333WAT     H191241   2.777   2.842   6.599
30333WAT     H291242   2.625   2.810   6.650
30334WAT      O91243   8.478   8.938   3.698
30334WAT     H191244   8.510   8.955   3.791
30334WAT     H291245   8.531   8.994   3.634
30335WAT      O91246   7.926   6.856   4.563
30335WAT     H191247   8.010   6.801   4.558
30335WAT     H291248   7.853   6.810   4.512
30336WAT      O91249   6.399   9.200   4.972
30336WAT     H191250   6.365   9.291   4.997
30336WAT     H291251   6.329   9.132   4.993
30337WAT      O91252   6.394   4.206   6.742
30337WAT     H191253   6.395   4.306   6.752
30337WAT     H291254   6.351   4.165   6.823
30338WAT      O91255   3.152   4.314   2.712
30338WAT     H191256   3.120   4.304   2.618
30338WAT     H291257   3.172   4.224   2.750
30339WAT      O91258   5.745   4.293   3.751
30339WAT     H191259   5.754   4.236   3.832
30339WAT     H291260   5.761   4.238   3.669
30340WAT      O91261   8.912   0.999   2.667
30340WAT     H191262   8.985   0.970   2.729
30340WAT     H291263   8.926   1.094   2.642
30341WAT      O91264   7.273   9.784   2.438
30341WAT     H191265   7.331   9.728   2.496
30341WAT     H291266   7.321   9.868   2.414
30342WAT      O91267   4.605   8.126   3.343
30342WAT     H191268   4.561   8.158   3.426
30342WAT     H291269   4.674   8.192   3.313
30343WAT      O91270   2.481   3.418   0.214
30343WAT     H191271   2.397   3.471   0.204
30343WAT     H291272   2.513   3.425   0.308
30344WAT      O91273   9.291   5.816   9.213
30344WAT     H191274   9.310   5.742   9.277
30344WAT     H291275   9.205   5.798   9.164
30345WAT      O91276   4.137   0.845   5.919
30345WAT     H191277   4.186   0.874   5.837
30345WAT     H291278   4.042   0.822   5.895
30346WAT      O91279   0.100   8.314   4.836
30346WAT     H191280   0.081   8.238   4.773
30346WAT     H291281   0.090   8.401   4.787
30347WAT      O91282   5.945   1.114   6.870
30347WAT     H191283   5.851   1.146   6.868
30347WAT     H291284   5.976   1.109   6.965
30348WAT      O91285   2.047   2.896   9.439
30348WAT     H191286   2.113   2.945   9.496
30348WAT     H291287   2.013   2.815   9.487
30349WAT      O91288   9.299   9.237   8.278
30349WAT     H191289   9.271   9.142   8.293
30349WAT     H291290   9.252   9.273   8.197
30350WAT      O91291   0.001   3.044   8.926
30350WAT     H191292   0.010   2.995   9.013
30350WAT     H291293   0.040   2.989   8.853
30351WAT      O91294   8.142   1.197   1.320
30351WAT     H191295   8.044   1.176   1.316
30351WAT     H291296   8.173   1.224   1.228
30352WAT      O91297   1.971   4.947   7.195
30352WAT     H191298   1.913   4.867   7.206
30352WAT     H291299   2.024   4.938   7.110
30353WAT      O91300   1.871   3.958   4.803
30353WAT     H191301   1.885   3.976   4.901
30353WAT     H291302   1.954   3.982   4.753
30354WAT      O91303   0.806   6.135   2.366
30354WAT     H191304   0.894   6.100   2.399
30354WAT     H291305   0.732   6.082   2.406
30355WAT      O91306   1.946   1.672   0.573
30355WAT     H191307   1.919   1.671   0.477
30355WAT     H291308   1.991   1.585   0.595
30356WAT      O91309   5.473   5.992   5.446
30356WAT     H191310   5.402   5.989   5.376
30356WAT     H291311   5.496   6.087   5.467
30357WAT      O91312   9.841   5.482   0.081
30357WAT     H191313   9.832   5.575   0.045
30357WAT     H291314   9.914   5.479   0.149
30358WAT      O91315   5.823   1.511   8.075
30358WAT     H191316   5.740   1.455   8.069
30358WAT     H291317   5.882   1.491   7.998
30359WAT      O91318   8.454   3.692   7.575
30359WAT     H191319   8.506   3.760   7.523
30359WAT     H291320   8.392   3.643   7.514
30360WAT      O91321   0.632   8.566   2.741
30360WAT     H191322   0.611   8.578   2.838
30360WAT     H291323   0.563   8.612   2.686
30361WAT      O91324   7.021   1.002   5.514
30361WAT     H191325   6.936   0.988   5.565
30361WAT     H291326   7.054   1.095   5.528
30362WAT      O91327   7.428   5.743   2.242
30362WAT     H191328   7.334   5.733   2.211
30362WAT     H291329   7.449   5.840   2.256
30363WAT      O91330   0.466   1.711   5.814
30363WAT     H191331   0.454   1.662   5.727
30363WAT     H291332   0.517   1.653   5.877
30364WAT      O91333   1.352   6.901   3.582
30364WAT     H191334   1.358   6.990   3.626
30364WAT     H291335   1.261   6.889   3.542
30365WAT      O91336   2.128   8.949   3.260
30365WAT     H191337   2.159   9.043   3.272
30365WAT     H291338   2.047   8.947   3.203
30366WAT      O91339   7.529   3.069   6.254
30366WAT     H191340   7.520   3.163   6.222
30366WAT     H291341   7.440   3.024   6.252
30367WAT      O91342   0.215   7.324   1.011
30367WAT     H191343   0.152   7.310   1.087
30367WAT     H291344   0.191   7.408   0.962
30368WAT      O91345   6.158   8.036   2.110
30368WAT     H191346   6.154   8.024   2.209
30368WAT     H291347   6.183   7.949   2.067
30369WAT      O91348   8.061   5.297   8.526
30369WAT     H191349   8.023   5.210   8.495
30369WAT     H291350   8.102   5.345   8.448
30370WAT      O91351   0.230   1.672   4.217
30370WAT     H191352   0.211   1.704   4.310
30370WAT     H291353   0.232   1.750   4.154
30371WAT      O91354   2.948   0.470   4.241
30371WAT     H191355   3.015   0.451   4.169
30371WAT     H291356   2.956   0.401   4.313
30372WAT      O91357   5.690   3.998   9.002
30372WAT     H191358   5.622   3.930   8.975
30372WAT     H291359   5.644   4.077   9.044
30373WAT      O91360   6.354   9.721   5.639
30373WAT     H191361   6.268   9.760   5.669
30373WAT     H291362   6.356   9.718   5.539
30374WAT      O91363   7.424   6.370   3.901
30374WAT     H191364   7.392   6.378   3.996
30374WAT     H291365   7.513   6.325   3.900
30375WAT      O91366   4.896   8.882   8.063
30375WAT     H191367   4.868   8.892   7.968
30375WAT     H291368   4.851   8.952   8.119
30376WAT      O91369   7.229   1.998   3.046
30376WAT     H191370   7.162   2.029   3.114
30376WAT     H291371   7.201   1.910   3.009
30377WAT      O91372   8.817   6.008   7.018
30377WAT     H191373   8.853   6.101   7.021
30377WAT     H291374   8.782   5.989   6.926
30378WAT      O91375   4.257   3.121   2.306
30378WAT     H191376   4.286   3.037   2.351
30378WAT     H291377   4.165   3.109   2.269
30379WAT      O91378   9.536   9.066   8.830
30379WAT     H191379   9.573   9.077   8.922
30379WAT     H291380   9.609   9.035   8.769
30380WAT      O91381   6.077   1.256   6.663
30380WAT     H191382   6.048   1.179   6.720
30380WAT     H291383   6.094   1.336   6.721
30381WAT      O91384   4.667   6.865   7.239
30381WAT     H191385   4.628   6.775   7.218
30381WAT     H291386   4.646   6.929   7.165
30382WAT      O91387   0.697   1.888   6.686
30382WAT     H191388   0.729   1.821   6.618
30382WAT     H291389   0.611   1.857   6.725
30383WAT      O91390   9.439   9.335   1.604
30383WAT     H191391   9.477   9.404   1.666
30383WAT     H291392   9.465   9.244   1.636
30384WAT      O91393   1.749   3.366   9.638
30384WAT     H191394   1.673   3.361   9.702
30384WAT     H291395   1.713   3.372   9.545
30385WAT      O91396   7.954   1.100   4.507
30385WAT     H191397   7.979   1.140   4.596
30385WAT     H291398   8.031   1.046   4.472
30386WAT      O91399   6.483   5.181   8.575
30386WAT     H191400   6.508   5.177   8.671
30386WAT     H291401   6.486   5.276   8.543
30387WAT      O91402   4.713   5.914   4.211
30387WAT     H191403   4.656   5.951   4.137
30387WAT     H291404   4.697   5.816   4.220
30388WAT      O91405   2.208   2.877   9.844
30388WAT     H191406   2.132   2.814   9.833
30388WAT     H291407   2.180   2.956   9.898
30389WAT      O91408   7.974   4.185   4.646
30389WAT     H191409   8.013   4.131   4.572
30389WAT     H291410   8.046   4.237   4.692
30390WAT      O91411   7.688   6.369   1.298
30390WAT     H191412   7.630   6.403   1.372
30390WAT     H291413   7.739   6.289   1.329
30391WAT      O91414   6.784   7.157   3.568
30391WAT     H191415   6.689   7.126   3.558
30391WAT     H291416   6.845   7.092   3.523
30392WAT      O91417   5.643   5.043   3.771
30392WAT     H191418   5.671   5.053   3.675
30392WAT     H291419   5.685   4.960   3.809
30393WAT      O91420   5.411   1.158   4.958
30393WAT     H191421   5.338   1.091   4.971
30393WAT     H291422   5.428   1.206   5.045
30394WAT      O91423   4.521   0.008   8.232
30394WAT     H191424   4.499  -0.038   8.319
30394WAT     H291425   4.618   0.030   8.230
30395WAT      O91426   8.240   9.798   7.359
30395WAT     H191427   8.279   9.762   7.273
30395WAT     H291428   8.255   9.731   7.432
30396WAT      O91429   1.854   2.360   2.093
30396WAT     H191430   1.917   2.335   2.020
30396WAT     H291431   1.782   2.418   2.056
30397WAT      O91432   1.660   8.192   9.038
30397WAT     H191433   1.618   8.134   9.108
30397WAT     H291434   1.627   8.165   8.948
30398WAT      O91435   2.205   5.508   3.287
30398WAT     H191436   2.183   5.555   3.372
30398WAT     H291437   2.205   5.409   3.302
30399WAT      O91438   4.593   4.222   8.246
30399WAT     H191439   4.566   4.158   8.175
30399WAT     H291440   4.687   4.203   8.275
30400WAT      O91441   9.852   3.728   5.855
30400WAT     H191442   9.852   3.629   5.871
30400WAT     H291443   9.807   3.747   5.768
30401WAT      O91444   4.809   2.071   5.131
30401WAT     H191445   4.778   2.104   5.042
30401WAT     H291446   4.779   2.135   5.202
30402WAT      O91447   4.841   0.385   7.224
30402WAT     H191448   4.905   0.346   7.158
30402WAT     H291449   4.765   0.321   7.239
30403WAT      O91450   4.955   9.836   3.913
30403WAT     H191451   4.964   9.836   3.814
30403WAT     H291452   4.992   9.922   3.950
30404WAT      O91453   3.366   1.113   1.883
30404WAT     H191454   3.329   1.022   1.864
30404WAT     H291455   3.305   1.162   1.945
30405WAT      O91456   8.853   7.523   7.728
30405WAT     H191457   8.812   7.614   7.727
30405WAT     H291458   8.784   7.456   7.700
30406WAT      O91459   3.309   3.289   1.498
30406WAT     H191460   3.211   3.284   1.516
30406WAT     H291461   3.347   3.370   1.544
30407WAT      O91462   3.639   9.190   6.499
30407WAT     H191463   3.610   9.094   6.502
30407WAT     H291464   3.736   9.195   6.520
30408WAT      O91465   1.685   0.152   6.289
30408WAT     H191466   1.694   0.241   6.332
30408WAT     H291467   1.764   0.134   6.231
30409WAT      O91468   0.934   3.718   0.820
30409WAT     H191469   0.922   3.620   0.808
30409WAT     H291470   0.867   3.752   0.886
30410WAT      O91471   9.815   0.479   1.288
30410WAT     H191472   9.799   0.462   1.191
30410WAT     H291473   9.876   0.409   1.325
30411WAT      O91474   5.950   6.627   0.790
30411WAT     H191475   6.043   6.599   0.768
30411WAT     H291476   5.888   6.549   0.781
30412WAT      O91477   0.566   1.352   7.001
30412WAT     H191478   0.553   1.298   7.084
30412WAT     H291479   0.662   1.350   6.974
30413WAT      O91480   1.232   1.819   6.890
30413WAT     H191481   1.217   1.740   6.949
30413WAT     H291482   1.237   1.902   6.945
30414WAT      O91483   3.302   4.205   0.030
30414WAT     H191484   3.221   4.176   0.081
30414WAT     H291485   3.331   4.130  -0.030
30415WAT      O91486   0.136   6.101   0.682
30415WAT     H191487   0.201   6.125   0.611
30415WAT     H291488   0.183   6.052   0.755
30416WAT      O91489   3.202   9.349   0.916
30416WAT     H191490   3.252   9.415   0.860
30416WAT     H291491   3.103   9.365   0.908
30417WAT      O91492   8.839   6.805   8.402
30417WAT     H191493   8.838   6.889   8.348
30417WAT     H291494   8.826   6.726   8.342
30418WAT      O91495   3.559   7.280   9.580
30418WAT     H191496   3.598   7.353   9.636
30418WAT     H291497   3.474   7.311   9.538
30419WAT      O91498   4.299   2.718   3.180
30419WAT     H191499   4.266   2.804   3.219
30419WAT     H291500   4.262   2.708   3.087
30420WAT      O91501   6.860   4.671   3.756
30420WAT     H191502   6.768   4.684   3.720
30420WAT     H291503   6.860   4.595   3.820
30421WAT      O91504   7.777   1.719   4.088
30421WAT     H191505   7.696   1.664   4.109
30421WAT     H291506   7.847   1.660   4.048
30422WAT      O91507   3.126   2.937   3.907
30422WAT     H191508   3.143   3.029   3.871
30422WAT     H291509   3.085   2.944   3.997
30423WAT      O91510   6.395   9.556   5.077
30423WAT     H191511   6.316   9.495   5.072
30423WAT     H291512   6.373   9.643   5.032
30424WAT      O91513   6.220   8.564   5.634
30424WAT     H191514   6.236   8.522   5.545
30424WAT     H291515   6.276   8.518   5.704
30425WAT      O91516   5.981   4.529   7.588
30425WAT     H191517   5.998   4.556   7.493
30425WAT     H291518   5.999   4.607   7.648
30426WAT      O91519   1.728   5.263   5.193
30426WAT     H191520   1.742   5.176   5.241
30426WAT     H291521   1.642   5.304   5.224
30427WAT      O91522   6.482   2.389   8.909
30427WAT     H191523   6.454   2.442   8.989
30427WAT     H291524   6.487   2.449   8.830
30428WAT      O91525   3.441   0.477   1.560
30428WAT     H191526   3.531   0.516   1.540
30428WAT     H291527   3.393   0.535   1.627
30429WAT      O91528   6.460   6.910   8.117
30429WAT     H191529   6.556   6.905   8.145
30429WAT     H291530   6.422   6.999   8.143
30430WAT      O91531   7.009   8.233   3.381
30430WAT     H191532   7.058   8.316   3.354
30430WAT     H291533   7.041   8.202   3.470
30431WAT      O91534   3.379   5.432   6.079
30431WAT     H191535   3.327   5.514   6.104
30431WAT     H291536   3.387   5.372   6.159
30432WAT      O91537   3.860   2.068   8.686
30432WAT     H191538   3.909   2.108   8.609
30432WAT     H291539   3.881   1.970   8.692
30433WAT      O91540   1.866   8.113   9.334
30433WAT     H191541   1.959   8.102   9.370
30433WAT     H291542   1.845   8.210   9.329
30434WAT      O91543   3.559   8.101   2.361
30434WAT     H191544   3.513   8.034   2.303
30434WAT     H291545   3.595   8.175   2.305
30435WAT      O91546   0.103   4.611   0.620
30435WAT     H191547   0.168   4.544   0.657
30435WAT     H291548   0.103   4.605   0.520
30436WAT      O91549   2.418   0.278   2.112
30436WAT     H191550   2.417   0.225   2.027
30436WAT     H291551   2.335   0.333   2.118
30437WAT      O91552   7.390   9.281   9.373
30437WAT     H191553   7.454   9.247   9.304
30437WAT     H291554   7.327   9.207   9.398
30438WAT      O91555   9.376   6.595   1.035
30438WAT     H191556   9.310   6.586   0.961
30438WAT     H291557   9.397   6.505   1.073
30439WAT      O91558   3.893   2.757   9.314
30439WAT     H191559   3.847   2.718   9.234
30439WAT     H291560   3.975   2.806   9.284
30440WAT      O91561   2.707   6.233   7.728
30440WAT     H191562   2.661   6.272   7.648
30440WAT     H291563   2.774   6.298   7.763
30441WAT      O91564   9.862   1.927   3.279
30441WAT     H191565   9.781   1.968   3.237
30441WAT     H291566   9.922   2.000   3.312
30442WAT      O91567   0.009   7.520   4.546
30442WAT     H191568   0.005   7.594   4.479
30442WAT     H291569  -0.042   7.546   4.628
30443WAT      O91570   8.386   6.003   9.116
30443WAT     H191571   8.334   6.002   9.031
30443WAT     H291572   8.436   6.089   9.124
30444WAT      O91573   0.980   2.688   7.686
30444WAT     H191574   0.888   2.686   7.725
30444WAT     H291575   0.974   2.704   7.587
30445WAT      O91576   1.142   6.654   3.471
30445WAT     H191577   1.197   6.672   3.390
30445WAT     H291578   1.046   6.645   3.444
30446WAT      O91579   9.800   5.529   2.282
30446WAT     H191580   9.849   5.564   2.203
30446WAT     H291581   9.704   5.513   2.257
30447WAT      O91582   9.322   3.386   8.909
30447WAT     H191583   9.414   3.413   8.883
30447WAT     H291584   9.326   3.313   8.977
30448WAT      O91585   3.747   5.753   1.465
30448WAT     H191586   3.826   5.798   1.507
30448WAT     H291587   3.680   5.732   1.536
30449WAT      O91588   7.132   9.335   6.565
30449WAT     H191589   7.112   9.311   6.660
30449WAT     H291590   7.230   9.326   6.548
30450WAT      O91591   8.207   4.607   3.174
30450WAT     H191592   8.224   4.515   3.210
30450WAT     H291593   8.290   4.663   3.185
30451WAT      O91594   2.593   7.190   8.154
30451WAT     H191595   2.535   7.165   8.231
30451WAT     H291596   2.540   7.189   8.070
30452WAT      O91597   5.203   3.629   8.698
30452WAT     H191598   5.301   3.618   8.682
30452WAT     H291599   5.163   3.680   8.622
30453WAT      O91600   1.153   2.931   9.443
30453WAT     H191601   1.098   2.911   9.362
30453WAT     H291602   1.120   3.015   9.485
30454WAT      O91603   2.470   5.196   3.365
30454WAT     H191604   2.514   5.172   3.278
30454WAT     H291605   2.501   5.287   3.393
30455WAT      O91606   1.652   7.957   5.754
30455WAT     H191607   1.598   7.875   5.732
30455WAT     H291608   1.699   7.989   5.671
30456WAT      O91609   6.542   5.381   7.451
30456WAT     H191610   6.595   5.343   7.527
30456WAT     H291611   6.447   5.352   7.459
30457WAT      O91612   2.167   1.795   5.727
30457WAT     H191613   2.258   1.754   5.730
30457WAT     H291614   2.098   1.723   5.733
30458WAT      O91615   7.952   8.778   1.962
30458WAT     H191616   7.901   8.863   1.977
30458WAT     H291617   7.915   8.731   1.881
30459WAT      O91618   8.956   5.658   1.647
30459WAT     H191619   8.864   5.670   1.684
30459WAT     H291620   9.002   5.584   1.695
30460WAT      O91621   8.473   2.021   1.410
30460WAT     H191622   8.467   2.064   1.319
30460WAT     H291623   8.567   2.025   1.442
30461WAT      O91624   1.070   2.270   9.354
30461WAT     H191625   1.004   2.277   9.279
30461WAT     H291626   1.070   2.356   9.406
30462WAT      O91627   1.632   7.431   1.254
30462WAT     H191628   1.663   7.524   1.274
30462WAT     H291629   1.650   7.373   1.333
30463WAT      O91630   0.303   6.112   6.761
30463WAT     H191631   0.383   6.142   6.710
30463WAT     H291632   0.230   6.087   6.698
30464WAT      O91633   3.150   7.757   8.212
30464WAT     H191634   3.059   7.721   8.193
30464WAT     H291635   3.163   7.844   8.164
30465WAT      O91636   0.825   4.842   9.868
30465WAT     H191637   0.920   4.814   9.882
30465WAT     H291638   0.813   4.870   9.773
30466WAT      O91639   9.180   0.461   4.506
30466WAT     H191640   9.138   0.428   4.590
30466WAT     H291641   9.225   0.549   4.524
30467WAT      O91642   7.627   5.521   3.102
30467WAT     H191643   7.678   5.536   3.018
30467WAT     H291644   7.540   5.571   3.098
30468WAT      O91645   3.075   8.374   7.082
30468WAT     H191646   3.021   8.299   7.118
30468WAT     H291647   3.164   8.340   7.052
30469WAT      O91648   6.549   2.778   5.116
30469WAT     H191649   6.484   2.852   5.104
30469WAT     H291650   6.635   2.814   5.153
30470WAT      O91651   2.208   5.042   5.193
30470WAT     H191652   2.122   4.994   5.175
30470WAT     H291653   2.257   5.056   5.107
30471WAT      O91654   9.240   0.709   4.622
30471WAT     H191655   9.237   0.788   4.560
30471WAT     H291656   9.183   0.727   4.702
30472WAT      O91657   7.722   5.152   1.788
30472WAT     H191658   7.626   5.179   1.796
30472WAT     H291659   7.774   5.226   1.743
30473WAT      O91660   7.547   8.591   7.657
30473WAT     H191661   7.621   8.562   7.717
30473WAT     H291662   7.586   8.625   7.571
30474WAT      O91663   1.161   0.755   7.093
30474WAT     H191664   1.125   0.844   7.119
30474WAT     H291665   1.209   0.714   7.170
30475WAT      O91666   2.432   1.932   9.740
30475WAT     H191667   2.480   2.019   9.754
30475WAT     H291668   2.334   1.947   9.743
30476WAT      O91669   0.953   1.289   7.194
30476WAT     H191670   1.044   1.253   7.212
30476WAT     H291671   0.953   1.388   7.206
30477WAT      O91672   6.635   1.228   9.042
30477WAT     H191673   6.728   1.206   9.073
30477WAT     H291674   6.637   1.306   8.980
30478WAT      O91675   1.470   2.454   3.970
30478WAT     H191676   1.379   2.413   3.975
30478WAT     H291677   1.535   2.389   3.931
30479WAT      O91678   9.301   4.187   9.525
30479WAT     H191679   9.385   4.133   9.530
30479WAT     H291680   9.324   4.284   9.542
30480WAT      O91681   5.384   2.368   8.299
30480WAT     H191682   5.344   2.449   8.256
30480WAT     H291683   5.479   2.387   8.323
30481WAT      O91684   6.091   7.463   0.949
30481WAT     H191685   6.003   7.489   0.989
30481WAT     H291686   6.077   7.438   0.853
30482WAT      O91687   1.974   5.608   7.844
30482WAT     H191688   2.053   5.668   7.836
30482WAT     H291689   1.898   5.645   7.790
30483WAT      O91690   7.744   6.802   1.419
30483WAT     H191691   7.669   6.736   1.417
30483WAT     H291692   7.729   6.869   1.492
30484WAT      O91693   8.962   4.672   6.623
30484WAT     H191694   8.986   4.670   6.526
30484WAT     H291695   8.879   4.618   6.638
30485WAT      O91696   5.821   0.058   2.826
30485WAT     H191697   5.806   0.152   2.795
30485WAT     H291698   5.789   0.049   2.921
30486WAT      O91699   9.214   8.735   7.341
30486WAT     H191700   9.142   8.683   7.294
30486WAT     H291701   9.278   8.672   7.384
30487WAT      O91702   2.952   2.838   0.762
30487WAT     H191703   3.043   2.879   0.757
30487WAT     H291704   2.884   2.904   0.731
30488WAT      O91705   6.426   1.496   3.892
30488WAT     H191706   6.387   1.517   3.982
30488WAT     H291707   6.505   1.435   3.904
30489WAT      O91708   8.119   6.053   3.373
30489WAT     H191709   8.058   5.981   3.340
30489WAT     H291710   8.199   6.058   3.315
30490WAT      O91711   6.897   0.805   4.389
30490WAT     H191712   6.973   0.834   4.330
30490WAT     H291713   6.916   0.714   4.425
30491WAT      O91714   1.176   9.351   0.536
30491WAT     H191715   1.201   9.438   0.494
30491WAT     H291716   1.259   9.305   0.569
30492WAT      O91717   7.077   3.735   0.837
30492WAT     H191718   7.066   3.780   0.748
30492WAT     H291719   7.016   3.777   0.904
30493WAT      O91720   4.742   3.657   3.855
30493WAT     H191721   4.736   3.679   3.757
30493WAT     H291722   4.768   3.562   3.866
30494WAT      O91723   5.930   6.050   6.955
30494WAT     H191724   5.937   6.069   6.857
30494WAT     H291725   6.004   6.096   7.004
30495WAT      O91726   1.667   6.486   4.199
30495WAT     H191727   1.621   6.452   4.281
30495WAT     H291728   1.623   6.447   4.118
30496WAT      O91729   7.524   0.085   2.995
30496WAT     H191730   7.592   0.133   2.940
30496WAT     H291731   7.568   0.010   3.044
30497WAT      O91732   2.547   0.327   5.057
30497WAT     H191733   2.643   0.331   5.087
30497WAT     H291734   2.522   0.413   5.012
30498WAT      O91735   4.275   1.285   9.525
30498WAT     H191736   4.375   1.275   9.520
30498WAT     H291737   4.252   1.373   9.566
30499WAT      O91738   6.062   5.580   6.430
30499WAT     H191739   6.028   5.489   6.455
30499WAT     H291740   6.080   5.582   6.332
30500WAT      O91741   5.396   6.441   1.729
30500WAT     H191742   5.402   6.391   1.643
30500WAT     H291743   5.352   6.530   1.713
30501WAT      O91744   0.068   4.939   1.888
30501WAT     H191745   0.100   4.880   1.962
30501WAT     H291746   0.145   4.989   1.849
30502WAT      O91747   8.585   1.538   2.357
30502WAT     H191748   8.561   1.603   2.285
30502WAT     H291749   8.604   1.588   2.442
30503WAT      O91750   7.558   8.615   8.286
30503WAT     H191751   7.564   8.661   8.374
30503WAT     H291752   7.630   8.649   8.225
30504WAT      O91753   0.308   0.634   9.434
30504WAT     H191754   0.404   0.662   9.421
30504WAT     H291755   0.258   0.707   9.481
30505WAT      O91756   0.734   3.816   0.970
30505WAT     H191757   0.675   3.858   0.901
30505WAT     H291758   0.720   3.860   1.058
30506WAT      O91759   0.919   3.368   4.757
30506WAT     H191760   1.016   3.382   4.739
30506WAT     H291761   0.908   3.293   4.822
30507WAT      O91762   7.596   4.531   3.870
30507WAT     H191763   7.670   4.465   3.868
30507WAT     H291764   7.509   4.484   3.855
30508WAT      O91765   3.393   5.682   1.804
30508WAT     H191766   3.336   5.648   1.728
30508WAT     H291767   3.349   5.658   1.890
30509WAT      O91768   0.306   3.773   4.055
30509WAT     H191769   0.324   3.860   4.101
30509WAT     H291770   0.309   3.787   3.956
30510WAT      O91771   6.719   0.857   7.075
30510WAT     H191772   6.671   0.941   7.051
30510WAT     H291773   6.653   0.782   7.082
30511WAT      O91774   0.723   9.617   5.074
30511WAT     H191775   0.782   9.696   5.062
30511WAT     H291776   0.641   9.644   5.125
30512WAT      O91777   8.261   7.294   8.844
30512WAT     H191778   8.333   7.359   8.820
30512WAT     H291779   8.223   7.318   8.933
30513WAT      O91780   8.712   2.351   9.663
30513WAT     H191781   8.725   2.441   9.621
30513WAT     H291782   8.775   2.340   9.739
30514WAT      O91783   0.396   4.166   6.793
30514WAT     H191784   0.330   4.115   6.738
30514WAT     H291785   0.423   4.111   6.872
30515WAT      O91786   8.502   8.164   2.591
30515WAT     H191787   8.508   8.086   2.529
30515WAT     H291788   8.555   8.240   2.555
30516WAT      O91789   4.848   5.174   0.880
30516WAT     H191790   4.901   5.127   0.951
30516WAT     H291791   4.811   5.107   0.816
30517WAT      O91792   9.555   8.222   3.241
30517WAT     H191793   9.586   8.297   3.183
30517WAT     H291794   9.471   8.248   3.289
30518WAT      O91795   6.589   5.457   9.788
30518WAT     H191796   6.513   5.452   9.852
30518WAT     H291797   6.650   5.380   9.802
30519WAT      O91798   9.004   7.033   9.451
30519WAT     H191799   8.949   6.951   9.465
30519WAT     H291800   9.052   7.057   9.535
30520WAT      O91801   8.972   9.134   6.467
30520WAT     H191802   9.068   9.116   6.449
30520WAT     H291803   8.938   9.069   6.534
30521WAT      O91804   7.654   6.904   3.659
30521WAT     H191805   7.608   6.870   3.577
30521WAT     H291806   7.753   6.909   3.643
30522WAT      O91807   8.586   5.426   9.644
30522WAT     H191808   8.618   5.485   9.717
30522WAT     H291809   8.503   5.378   9.673
30523WAT      O91810   6.976   4.633   5.155
30523WAT     H191811   6.935   4.717   5.120
30523WAT     H291812   6.996   4.643   5.252
30524WAT      O91813   1.235   1.033   4.655
30524WAT     H191814   1.321   1.075   4.683
30524WAT     H291815   1.253   0.939   4.624
30525WAT      O91816   7.298   7.296   5.181
30525WAT     H191817   7.212   7.247   5.200
30525WAT     H291818   7.283   7.362   5.108
30526WAT      O91819   3.604   4.090   5.869
30526WAT     H191820   3.527   4.044   5.825
30526WAT     H291821   3.624   4.045   5.957
30527WAT      O91822   9.765   6.252   6.624
30527WAT     H191823   9.694   6.318   6.601
30527WAT     H291824   9.732   6.160   6.603
30528WAT      O91825   1.249   9.305   6.318
30528WAT     H191826   1.267   9.306   6.220
30528WAT     H291827   1.230   9.211   6.348
30529WAT      O91828   7.791   2.048   7.596
30529WAT     H191829   7.850   2.068   7.674
30529WAT     H291830   7.838   1.985   7.534
30530WAT      O91831   7.755   0.105   5.557
30530WAT     H191832   7.665   0.123   5.518
30530WAT     H291833   7.802   0.191   5.574
30531WAT      O91834   7.602   1.593   1.244
30531WAT     H191835   7.593   1.625   1.150
30531WAT     H291836   7.696   1.562   1.260
30532WAT      O91837   5.516   6.096   6.704
30532WAT     H191838   5.575   6.120   6.780
30532WAT     H291839   5.556   6.020   6.653
30533WAT      O91840   6.271   4.043   7.248
30533WAT     H191841   6.238   4.129   7.288
30533WAT     H291842   6.262   3.970   7.315
30534WAT      O91843   9.174   2.504   9.619
30534WAT     H191844   9.207   2.547   9.535
30534WAT     H291845   9.252   2.478   9.676
30535WAT      O91846   4.608   9.003   3.251
30535WAT     H191847   4.670   9.081   3.245
30535WAT     H291848   4.643   8.937   3.317
30536WAT      O91849   3.533   9.783   4.564
30536WAT     H191850   3.610   9.775   4.501
30536WAT     H291851   3.449   9.754   4.518
30537WAT      O91852   7.019   9.783   1.187
30537WAT     H191853   7.020   9.811   1.283
30537WAT     H291854   6.928   9.803   1.149
30538WAT      O91855   3.419   8.363   7.752
30538WAT     H191856   3.369   8.442   7.787
30538WAT     H291857   3.456   8.310   7.829
30539WAT      O91858   1.751   3.257   2.088
30539WAT     H191859   1.828   3.283   2.030
30539WAT     H291860   1.766   3.166   2.125
30540WAT      O91861   8.519   2.782   3.672
30540WAT     H191862   8.606   2.830   3.679
30540WAT     H291863   8.498   2.738   3.759
30541WAT      O91864   3.269   1.162   7.947
30541WAT     H191865   3.352   1.111   7.968
30541WAT     H291866   3.208   1.161   8.026
30542WAT      O91867   7.700   7.487   4.803
30542WAT     H191868   7.678   7.411   4.743
30542WAT     H291869   7.776   7.463   4.863
30543WAT      O91870   4.350   5.166   6.619
30543WAT     H191871   4.277   5.163   6.550
30543WAT     H291872   4.427   5.110   6.588
30544WAT      O91873   2.503   4.829   1.703
30544WAT     H191874   2.538   4.917   1.735
30544WAT     H291875   2.535   4.756   1.765
30545WAT      O91876   3.233   8.827   1.038
30545WAT     H191877   3.310   8.887   1.019
30545WAT     H291878   3.199   8.788   0.952
30546WAT      O91879   8.089   7.006   8.538
30546WAT     H191880   8.018   7.073   8.516
30546WAT     H291881   8.087   6.933   8.469
30547WAT      O91882   1.044   5.432   2.391
30547WAT     H191883   1.043   5.500   2.465
30547WAT     H291884   1.125   5.447   2.334
30548WAT      O91885   8.915   4.989   2.043
30548WAT     H191886   8.966   4.986   1.956
30548WAT     H291887   8.821   4.959   2.027
30549WAT      O91888   6.276   7.802   5.093
30549WAT     H191889   6.326   7.746   5.158
30549WAT     H291890   6.295   7.899   5.111
30550WAT      O91891   1.782   5.397   1.554
30550WAT     H191892   1.832   5.461   1.495
30550WAT     H291893   1.802   5.303   1.525
30551WAT      O91894   7.287   6.320   4.135
30551WAT     H191895   7.198   6.355   4.106
30551WAT     H291896   7.275   6.262   4.215
30552WAT      O91897   6.720   0.388   9.182
30552WAT     H191898   6.635   0.356   9.225
30552WAT     H291899   6.697   0.455   9.111
30553WAT      O91900   2.796   3.640   9.521
30553WAT     H191901   2.893   3.616   9.514
30553WAT     H291902   2.742   3.558   9.542
30554WAT      O91903   4.438   5.016   1.934
30554WAT     H191904   4.449   5.107   1.974
30554WAT     H291905   4.414   5.024   1.837
30555WAT      O91906   2.201   6.904   0.075
30555WAT     H191907   2.120   6.939   0.122
30555WAT     H291908   2.213   6.953  -0.012
30556WAT      O91909   3.714   5.985   3.609
30556WAT     H191910   3.690   5.931   3.528
30556WAT     H291911   3.637   6.044   3.633
30557WAT      O91912   6.972   9.537   4.432
30557WAT     H191913   6.970   9.637   4.426
30557WAT     H291914   7.066   9.505   4.420
30558WAT      O91915   4.267   4.858   9.624
30558WAT     H191916   4.316   4.778   9.588
30558WAT     H291917   4.334   4.925   9.658
30559WAT      O91918   3.045   8.693   0.858
30559WAT     H191919   2.964   8.658   0.907
30559WAT     H291920   3.023   8.703   0.761
30560WAT      O91921   6.347   8.292   2.052
30560WAT     H191922   6.315   8.207   2.094
30560WAT     H291923   6.443   8.308   2.076
30561WAT      O91924   1.202   7.812   2.566
30561WAT     H191925   1.171   7.884   2.504
30561WAT     H291926   1.295   7.831   2.596
30562WAT      O91927   6.404   4.077   7.983
30562WAT     H191928   6.487   4.025   7.966
30562WAT     H291929   6.327   4.014   7.994
30563WAT      O91930   7.368   0.102   6.724
30563WAT     H191931   7.277   0.131   6.693
30563WAT     H291932   7.437   0.135   6.660
30564WAT      O91933   4.313   2.179   0.083
30564WAT     H191934   4.394   2.121   0.090
30564WAT     H291935   4.341   2.275   0.078
30565WAT      O91936   8.527   1.735   7.395
30565WAT     H191937   8.623   1.707   7.391
30565WAT     H291938   8.471   1.656   7.419
30566WAT      O91939   9.491   3.081   7.812
30566WAT     H191940   9.488   3.107   7.909
30566WAT     H291941   9.409   3.029   7.789
30567WAT      O91942   6.930   6.093   9.532
30567WAT     H191943   6.973   6.009   9.500
30567WAT     H291944   6.859   6.071   9.599
30568WAT      O91945   6.359   8.744   7.902
30568WAT     H191946   6.296   8.674   7.867
30568WAT     H291947   6.387   8.804   7.827
30569WAT      O91948   7.113   1.571   8.399
30569WAT     H191949   7.155   1.641   8.341
30569WAT     H291950   7.176   1.494   8.409
30570WAT      O91951   1.857   5.725   1.001
30570WAT     H191952   1.785   5.791   1.021
30570WAT     H291953   1.911   5.756   0.923
30571WAT      O91954   7.205   4.732   5.026
30571WAT     H191955   7.253   4.707   5.110
30571WAT     H291956   7.146   4.657   4.997
30572WAT      O91957   0.596   5.877   0.890
30572WAT     H191958   0.650   5.917   0.816
30572WAT     H291959   0.522   5.822   0.853
30573WAT      O91960   6.658   8.010   5.036
30573WAT     H191961   6.733   8.064   5.075
30573WAT     H291962   6.629   7.941   5.102
30574WAT      O91963   6.504   7.542   8.107
30574WAT     H191964   6.573   7.471   8.092
30574WAT     H291965   6.549   7.628   8.131
30575WAT      O91966   1.884   6.050   9.447
30575WAT     H191967   1.924   6.130   9.402
30575WAT     H291968   1.855   6.075   9.540
30576WAT      O91969   1.646   9.704   1.991
30576WAT     H191970   1.744   9.715   2.010
30576WAT     H291971   1.605   9.795   1.981
30577WAT      O91972   5.305   7.047   3.702
30577WAT     H191973   5.220   7.098   3.690
30577WAT     H291974   5.362   7.093   3.771
30578WAT      O91975   5.155   4.943   7.188
30578WAT     H191976   5.062   4.954   7.152
30578WAT     H291977   5.170   5.011   7.261
30579WAT      O91978   5.859   0.430   6.520
30579WAT     H191979   5.954   0.441   6.489
30579WAT     H291980   5.811   0.368   6.458
30580WAT      O91981   5.243   6.547   1.370
30580WAT     H191982   5.310   6.587   1.433
30580WAT     H291983   5.177   6.617   1.342
30581WAT      O91984   5.711   6.010   9.767
30581WAT     H191985   5.619   6.049   9.780
30581WAT     H291986   5.720   5.974   9.675
30582WAT      O91987   9.074   5.419   9.111
30582WAT     H191988   9.038   5.373   9.192
30582WAT     H291989   8.999   5.468   9.065
30583WAT      O91990   0.096   1.488   0.047
30583WAT     H191991   0.169   1.539   0.003
30583WAT     H291992   0.121   1.468   0.141
30584WAT      O91993   7.913   0.469   7.429
30584WAT     H191994   7.845   0.452   7.358
30584WAT     H291995   8.002   0.484   7.386
30585WAT      O91996   4.278   8.188   6.415
30585WAT     H191997   4.341   8.159   6.342
30585WAT     H291998   4.330   8.219   6.494
30586WAT      O91999   4.256   4.969   5.497
30586WAT     H192000   4.323   4.982   5.569
30586WAT     H292001   4.213   4.879   5.507
30587WAT      O92002   5.173   8.730   3.528
30587WAT     H192003   5.180   8.714   3.430
30587WAT     H292004   5.256   8.777   3.560
30588WAT      O92005   0.062   7.646   7.592
30588WAT     H192006   0.041   7.622   7.497
30588WAT     H292007   0.127   7.722   7.594
30589WAT      O92008   1.887   4.853   5.979
30589WAT     H192009   1.915   4.883   5.888
30589WAT     H292010   1.826   4.774   5.972
30590WAT      O92011   1.979   1.051   1.924
30590WAT     H192012   1.908   1.081   1.860
30590WAT     H292013   1.949   0.971   1.975
30591WAT      O92014   1.208   3.740   9.181
30591WAT     H192015   1.148   3.667   9.147
30591WAT     H292016   1.165   3.785   9.259
30592WAT      O92017   9.777   6.763   1.224
30592WAT     H192018   9.711   6.778   1.151
30592WAT     H292019   9.868   6.751   1.184
30593WAT      O92020   3.111   3.548   3.638
30593WAT     H192021   3.055   3.533   3.557
30593WAT     H292022   3.207   3.528   3.618
30594WAT      O92023   6.472   1.916   4.058
30594WAT     H192024   6.558   1.884   4.017
30594WAT     H292025   6.463   2.015   4.044
30595WAT      O92026   6.705   9.527   1.268
30595WAT     H192027   6.747   9.589   1.335
30595WAT     H292028   6.630   9.574   1.222
30596WAT      O92029   3.146   6.856   5.376
30596WAT     H192030   3.079   6.918   5.417
30596WAT     H292031   3.239   6.889   5.393
30597WAT      O92032   0.826   7.076   0.537
30597WAT     H192033   0.915   7.064   0.581
30597WAT     H292034   0.769   6.996   0.554
30598WAT      O92035   8.864   4.356   5.468
30598WAT     H192036   8.812   4.288   5.519
30598WAT     H292037   8.817   4.444   5.471
30599WAT      O92038   3.299   2.100   6.211
30599WAT     H192039   3.345   2.078   6.125
30599WAT     H292040   3.200   2.103   6.195
30600WAT      O92041   5.465   3.602   8.631
30600WAT     H192042   5.510   3.654   8.704
30600WAT     H292043   5.494   3.637   8.542
30601WAT      O92044   5.761   7.428   9.268
30601WAT     H192045   5.740   7.478   9.184
30601WAT     H292046   5.720   7.476   9.346
30602WAT      O92047   4.841   8.063   8.915
30602WAT     H192048   4.775   8.123   8.868
30602WAT     H292049   4.911   8.119   8.958
30603WAT      O92050   0.360   2.671   9.292
30603WAT     H192051   0.453   2.668   9.328
30603WAT     H292052   0.296   2.682   9.367
30604WAT      O92053   5.749   7.764   9.501
30604WAT     H192054   5.791   7.781   9.591
30604WAT     H292055   5.725   7.668   9.493
30605WAT      O92056   5.090   3.595   3.804
30605WAT     H192057   5.020   3.523   3.803
30605WAT     H292058   5.166   3.566   3.862
30606WAT      O92059   9.704   9.566   5.328
30606WAT     H192060   9.677   9.502   5.400
30606WAT     H292061   9.703   9.659   5.364
30607WAT      O92062   0.076   1.401   8.941
30607WAT     H192063   0.060   1.365   8.849
30607WAT     H292064   0.059   1.330   9.009
30608WAT      O92065   3.552   2.415   3.225
30608WAT     H192066   3.608   2.422   3.308
30608WAT     H292067   3.580   2.334   3.173
30609WAT      O92068   4.367   5.071   0.628
30609WAT     H192069   4.342   5.141   0.695
30609WAT     H292070   4.287   5.048   0.573
30610WAT      O92071   0.294   2.449   2.144
30610WAT     H192072   0.342   2.427   2.060
30610WAT     H292073   0.273   2.365   2.194
30611WAT      O92074   0.494   1.432   3.594
30611WAT     H192075   0.417   1.496   3.596
30611WAT     H292076   0.545   1.439   3.681
30612WAT      O92077   8.340   7.785   4.544
30612WAT     H192078   8.367   7.701   4.591
30612WAT     H292079   8.414   7.852   4.551
30613WAT      O92080   4.068   2.083   7.982
30613WAT     H192081   4.004   2.158   7.972
30613WAT     H292082   4.162   2.118   7.978
30614WAT      O92083   9.429   1.464   6.151
30614WAT     H192084   9.418   1.441   6.054
30614WAT     H292085   9.384   1.395   6.207
30615WAT      O92086   4.456   2.666   9.745
30615WAT     H192087   4.374   2.631   9.789
30615WAT     H292088   4.480   2.755   9.785
30616WAT      O92089   0.453   3.801   1.946
30616WAT     H192090   0.471   3.891   1.984
30616WAT     H292091   0.533   3.770   1.894
30617WAT      O92092   8.920   1.967   7.386
30617WAT     H192093   8.863   1.950   7.306
30617WAT     H292094   8.912   2.062   7.414
30618WAT      O92095   4.388   8.792   1.919
30618WAT     H192096   4.483   8.762   1.916
30618WAT     H292097   4.332   8.731   1.863
30619WAT      O92098   3.789   2.498   6.552
30619WAT     H192099   3.839   2.584   6.563
30619WAT     H292100   3.752   2.469   6.640
30620WAT      O92101   8.588   6.632   1.909
30620WAT     H192102   8.631   6.642   1.999
30620WAT     H292103   8.647   6.674   1.840
30621WAT      O92104   6.934   4.000   1.218
30621WAT     H192105   6.842   4.028   1.246
30621WAT     H292106   7.000   4.033   1.285
30622WAT      O92107   0.877   4.250   5.406
30622WAT     H192108   0.964   4.284   5.370
30622WAT     H292109   0.802   4.307   5.373
30623WAT      O92110   7.971   7.761   8.604
30623WAT     H192111   7.878   7.785   8.632
30623WAT     H292112   7.996   7.674   8.647
30624WAT      O92113   1.794   6.117   1.151
30624WAT     H192114   1.863   6.177   1.191
30624WAT     H292115   1.744   6.168   1.080
30625WAT      O92116   6.573   0.505   9.440
30625WAT     H192117   6.549   0.575   9.373
30625WAT     H292118   6.580   0.416   9.395
30626WAT      O92119   9.462   9.518   8.929
30626WAT     H192120   9.408   9.592   8.889
30626WAT     H292121   9.437   9.432   8.884
30627WAT      O92122   7.152   9.242   4.379
30627WAT     H192123   7.213   9.315   4.407
30627WAT     H292124   7.091   9.218   4.454
30628WAT      O92125   0.474   4.660   9.341
30628WAT     H192126   0.551   4.717   9.311
30628WAT     H292127   0.402   4.663   9.271
30629WAT      O92128   8.668   8.635   6.825
30629WAT     H192129   8.593   8.586   6.779
30629WAT     H292130   8.748   8.638   6.765
30630WAT      O92131   6.952   3.161   1.429
30630WAT     H192132   6.983   3.070   1.400
30630WAT     H292133   6.977   3.176   1.525
30631WAT      O92134   8.469   4.138   0.232
30631WAT     H192135   8.539   4.071   0.210
30631WAT     H292136   8.441   4.187   0.150
30632WAT      O92137   6.911   4.176   3.852
30632WAT     H192138   6.913   4.183   3.752
30632WAT     H292139   7.000   4.204   3.889
30633WAT      O92140   0.929   8.863   9.378
30633WAT     H192141   0.887   8.791   9.433
30633WAT     H292142   0.858   8.907   9.322
30634WAT      O92143   7.458   5.309   3.448
30634WAT     H192144   7.472   5.379   3.518
30634WAT     H292145   7.373   5.329   3.398
30635WAT      O92146   3.150   9.611   0.533
30635WAT     H192147   3.166   9.601   0.435
30635WAT     H292148   3.052   9.609   0.551
30636WAT      O92149   7.327   8.961   5.810
30636WAT     H192150   7.372   9.043   5.775
30636WAT     H292151   7.393   8.887   5.816
30637WAT      O92152   8.643   2.764   8.881
30637WAT     H192153   8.661   2.759   8.980
30637WAT     H292154   8.545   2.759   8.865
30638WAT      O92155   3.132   6.392   4.574
30638WAT     H192156   3.171   6.463   4.632
30638WAT     H292157   3.049   6.356   4.617
30639WAT      O92158   9.436   3.295   2.365
30639WAT     H192159   9.370   3.220   2.357
30639WAT     H292160   9.387   3.380   2.384
30640WAT      O92161   5.241   2.882   5.014
30640WAT     H192162   5.159   2.876   4.956
30640WAT     H292163   5.291   2.965   4.991
30641WAT      O92164   8.050   7.900   6.900
30641WAT     H192165   8.038   7.939   6.808
30641WAT     H292166   8.097   7.966   6.958
30642WAT      O92167   5.871   7.756   5.402
30642WAT     H192168   5.961   7.774   5.442
30642WAT     H292169   5.800   7.799   5.458
30643WAT      O92170   0.719   8.725   3.445
30643WAT     H192171   0.795   8.742   3.382
30643WAT     H292172   0.638   8.699   3.393
30644WAT      O92173   3.887   1.851   0.726
30644WAT     H192174   3.975   1.808   0.704
30644WAT     H292175   3.902   1.947   0.749
30645WAT      O92176   1.893   0.926   7.108
30645WAT     H192177   1.916   0.879   7.023
30645WAT     H292178   1.867   0.859   7.178
30646WAT      O92179   1.253   2.510   0.970
30646WAT     H192180   1.345   2.548   0.980
30646WAT     H292181   1.209   2.507   1.060
30647WAT      O92182   7.328   1.669   3.614
30647WAT     H192183   7.315   1.588   3.556
30647WAT     H292184   7.421   1.703   3.604
30648WAT      O92185   2.218   6.096   5.189
30648WAT     H192186   2.125   6.074   5.218
30648WAT     H292187   2.283   6.067   5.260
30649WAT      O92188   6.201   3.277   1.376
30649WAT     H192189   6.199   3.354   1.312
30649WAT     H292190   6.289   3.276   1.423
30650WAT      O92191   9.058   6.514   7.630
30650WAT     H192192   9.143   6.460   7.628
30650WAT     H292193   9.054   6.573   7.549
30651WAT      O92194   3.835   3.589   7.087
30651WAT     H192195   3.812   3.543   7.173
30651WAT     H292196   3.867   3.681   7.105
30652WAT      O92197   9.379   5.054   4.185
30652WAT     H192198   9.472   5.035   4.153
30652WAT     H292199   9.364   5.009   4.273
30653WAT      O92200   5.952   9.231   5.069
30653WAT     H192201   5.883   9.289   5.024
30653WAT     H292202   5.965   9.148   5.015
30654WAT      O92203   8.701   7.809   3.445
30654WAT     H192204   8.747   7.724   3.473
30654WAT     H292205   8.767   7.885   3.449
30655WAT      O92206   0.838   3.291   6.663
30655WAT     H192207   0.746   3.311   6.695
30655WAT     H292208   0.833   3.251   6.571
30656WAT      O92209   3.343   6.034   0.401
30656WAT     H192210   3.379   5.950   0.441
30656WAT     H292211   3.358   6.034   0.302
30657WAT      O92212   0.939   9.735   8.175
30657WAT     H192213   0.984   9.647   8.163
30657WAT     H292214   0.843   9.720   8.198
30658WAT      O92215   4.084   4.509   7.201
30658WAT     H192216   4.176   4.485   7.171
30658WAT     H292217   4.047   4.435   7.257
30659WAT      O92218   3.685   0.678   5.763
30659WAT     H192219   3.622   0.748   5.729
30659WAT     H292220   3.730   0.633   5.686
30660WAT      O92221   3.442   7.714   3.262
30660WAT     H192222   3.434   7.764   3.348
30660WAT     H292223   3.361   7.656   3.249
30661WAT      O92224   3.135   6.639   1.305
30661WAT     H192225   3.150   6.736   1.324
30661WAT     H292226   3.037   6.622   1.293
30662WAT      O92227   5.335   1.237   6.414
30662WAT     H192228   5.311   1.163   6.351
30662WAT     H292229   5.425   1.273   6.390
30663WAT      O92230   3.573   8.929   2.424
30663WAT     H192231   3.537   8.991   2.354
30663WAT     H292232   3.502   8.913   2.493
30664WAT      O92233   9.099   4.872   2.591
30664WAT     H192234   9.041   4.797   2.624
30664WAT     H292235   9.045   4.932   2.533
30665WAT      O92236   6.495   4.591   4.245
30665WAT     H192237   6.407   4.559   4.211
30665WAT     H292238   6.526   4.532   4.319
30666WAT      O92239   0.646   6.432   9.697
30666WAT     H192240   0.638   6.400   9.602
30666WAT     H292241   0.716   6.380   9.744
30667WAT      O92242   1.318   8.289   2.271
30667WAT     H192243   1.370   8.269   2.188
30667WAT     H292244   1.221   8.273   2.254
30668WAT      O92245   1.144   9.838   5.809
30668WAT     H192246   1.075   9.895   5.853
30668WAT     H292247   1.235   9.872   5.833
30669WAT      O92248   8.363   8.545   4.696
30669WAT     H192249   8.354   8.600   4.780
30669WAT     H292250   8.277   8.547   4.646
30670WAT      O92251   9.522   4.793   6.381
30670WAT     H192252   9.495   4.702   6.350
30670WAT     H292253   9.444   4.837   6.425
30671WAT      O92254   2.112   8.868   6.608
30671WAT     H192255   2.077   8.938   6.671
30671WAT     H292256   2.208   8.849   6.629
30672WAT      O92257   5.151   5.910   4.537
30672WAT     H192258   5.121   5.834   4.594
30672WAT     H292259   5.219   5.878   4.471
30673WAT      O92260   8.505   0.265   4.893
30673WAT     H192261   8.433   0.255   4.825
30673WAT     H292262   8.587   0.302   4.849
30674WAT      O92263   8.002   6.897   9.845
30674WAT     H192264   7.970   6.870   9.754
30674WAT     H292265   8.089   6.945   9.837
30675WAT      O92266   5.588   1.047   9.389
30675WAT     H192267   5.530   0.965   9.390
30675WAT     H292268   5.606   1.074   9.295
30676WAT      O92269   1.883   9.142   1.238
30676WAT     H192270   1.874   9.237   1.266
30676WAT     H292271   1.882   9.083   1.319
30677WAT      O92272   7.104   6.302   9.550
30677WAT     H192273   7.062   6.391   9.534
30677WAT     H292274   7.038   6.230   9.533
30678WAT      O92275   4.977   2.452   8.274
30678WAT     H192276   5.004   2.359   8.251
30678WAT     H292277   5.018   2.478   8.362
30679WAT      O92278   4.767   9.336   8.261
30679WAT     H192279   4.744   9.425   8.221
30679WAT     H292280   4.822   9.350   8.343
30680WAT      O92281   4.293   4.289   3.177
30680WAT     H192282   4.288   4.315   3.273
30680WAT     H292283   4.388   4.271   3.152
30681WAT      O92284   1.753   9.489   0.745
30681WAT     H192285   1.698   9.564   0.782
30681WAT     H292286   1.719   9.402   0.781
30682WAT      O92287   7.906   8.890   1.352
30682WAT     H192288   7.999   8.922   1.332
30682WAT     H292289   7.853   8.966   1.391
30683WAT      O92290   9.005   4.834   3.980
30683WAT     H192291   8.922   4.886   4.000
30683WAT     H292292   9.084   4.895   3.982
30684WAT      O92293   2.533   4.643   9.535
30684WAT     H192294   2.590   4.671   9.458
30684WAT     H292295   2.446   4.692   9.532
30685WAT      O92296   3.579   0.025   8.567
30685WAT     H192297   3.515  -0.052   8.561
30685WAT     H292298   3.649   0.005   8.635
30686WAT      O92299   3.407   4.015   5.091
30686WAT     H192300   3.312   3.989   5.112
30686WAT     H292301   3.407   4.095   5.031
30687WAT      O92302   8.300   7.510   3.621
30687WAT     H192303   8.256   7.516   3.532
30687WAT     H292304   8.248   7.448   3.680
30688WAT      O92305   8.172   5.372   4.991
30688WAT     H192306   8.217   5.311   5.057
30688WAT     H292307   8.238   5.398   4.920
30689WAT      O92308   3.316   5.892   4.449
30689WAT     H192309   3.289   5.937   4.534
30689WAT     H292310   3.266   5.806   4.439
30690WAT      O92311   1.977   8.815   8.984
30690WAT     H192312   1.911   8.890   8.998
30690WAT     H292313   1.929   8.727   8.990
30691WAT      O92314   2.289   5.143   3.911
30691WAT     H192315   2.373   5.099   3.878
30691WAT     H292316   2.309   5.191   3.997
30692WAT      O92317   7.314   2.477   6.035
30692WAT     H192318   7.354   2.404   5.979
30692WAT     H292319   7.360   2.564   6.016
30693WAT      O92320   2.113   0.607   6.770
30693WAT     H192321   2.132   0.533   6.705
30693WAT     H292322   2.193   0.621   6.828
30694WAT      O92323   5.347   7.214   1.749
30694WAT     H192324   5.293   7.266   1.814
30694WAT     H292325   5.345   7.117   1.773
30695WAT      O92326   0.716   6.683   8.431
30695WAT     H192327   0.807   6.642   8.427
30695WAT     H292328   0.662   6.636   8.501
30696WAT      O92329   2.096   6.084   8.103
30696WAT     H192330   2.068   6.103   8.009
30696WAT     H292331   2.017   6.053   8.156
30697WAT      O92332   0.766   2.530   3.733
30697WAT     H192333   0.702   2.586   3.785
30697WAT     H292334   0.716   2.463   3.679
30698WAT      O92335   5.551   8.054   4.725
30698WAT     H192336   5.608   8.014   4.797
30698WAT     H292337   5.607   8.109   4.664
30699WAT      O92338   7.768   4.624   4.441
30699WAT     H192339   7.690   4.589   4.389
30699WAT     H292340   7.748   4.619   4.538
30700WAT      O92341   9.234   8.178   4.362
30700WAT     H192342   9.308   8.118   4.332
30700WAT     H292343   9.152   8.124   4.377
30701WAT      O92344   0.830   8.746   4.621
30701WAT     H192345   0.890   8.667   4.632
30701WAT     H292346   0.776   8.736   4.538
30702WAT      O92347   9.284   1.819   1.090
30702WAT     H192348   9.277   1.899   1.149
30702WAT     H292349   9.277   1.736   1.145
30703WAT      O92350   2.559   6.866   8.520
30703WAT     H192351   2.506   6.950   8.507
30703WAT     H292352   2.570   6.848   8.617
30704WAT      O92353   6.767   3.435   9.774
30704WAT     H192354   6.847   3.470   9.724
30704WAT     H292355   6.785   3.439   9.872
30705WAT      O92356   7.932   7.947   0.822
30705WAT     H192357   7.910   7.935   0.919
30705WAT     H292358   8.028   7.970   0.811
30706WAT      O92359   2.380   2.221   3.389
30706WAT     H192360   2.321   2.295   3.420
30706WAT     H292361   2.476   2.246   3.404
30707WAT      O92362   0.437   0.186   8.140
30707WAT     H192363   0.530   0.222   8.131
30707WAT     H292364   0.373   0.253   8.103
30708WAT      O92365   3.841   2.114   4.189
30708WAT     H192366   3.877   2.030   4.149
30708WAT     H292367   3.848   2.109   4.289
30709WAT      O92368   7.911   8.807   2.245
30709WAT     H192369   7.948   8.794   2.153
30709WAT     H292370   7.825   8.756   2.253
30710WAT      O92371   0.263   1.569   1.889
30710WAT     H192372   0.296   1.496   1.829
30710WAT     H292373   0.214   1.528   1.967
30711WAT      O92374   9.707   5.898   9.289
30711WAT     H192375   9.750   5.932   9.205
30711WAT     H292376   9.662   5.973   9.337
30712WAT      O92377   7.180   2.066   8.521
30712WAT     H192378   7.175   2.135   8.593
30712WAT     H292379   7.275   2.056   8.490
30713WAT      O92380   1.682   5.255   2.420
30713WAT     H192381   1.620   5.319   2.376
30713WAT     H292382   1.775   5.267   2.384
30714WAT      O92383   0.635   0.537   0.959
30714WAT     H192384   0.700   0.557   0.885
30714WAT     H292385   0.598   0.445   0.947
30715WAT      O92386   7.621   2.539   7.193
30715WAT     H192387   7.526   2.508   7.203
30715WAT     H292388   7.666   2.490   7.119
30716WAT      O92389   5.174   3.094   1.630
30716WAT     H192390   5.088   3.145   1.620
30716WAT     H292391   5.204   3.061   1.541
30717WAT      O92392   3.367   0.711   7.469
30717WAT     H192393   3.382   0.651   7.547
30717WAT     H292394   3.373   0.807   7.498
30718WAT      O92395   4.037   3.691   3.356
30718WAT     H192396   4.022   3.773   3.411
30718WAT     H292397   3.968   3.622   3.380
30719WAT      O92398   0.952   6.390   5.881
30719WAT     H192399   0.893   6.470   5.895
30719WAT     H292400   1.048   6.417   5.886
30720WAT      O92401   8.063   0.903   7.347
30720WAT     H192402   8.111   0.972   7.401
30720WAT     H292403   8.009   0.844   7.409
30721WAT      O92404   2.096   4.155   3.969
30721WAT     H192405   2.114   4.144   4.066
30721WAT     H292406   2.036   4.234   3.955
30722WAT      O92407   7.696   4.169   8.262
30722WAT     H192408   7.621   4.226   8.229
30722WAT     H292409   7.760   4.152   8.187
30723WAT      O92410   2.620   9.113   8.885
30723WAT     H192411   2.568   9.196   8.861
30723WAT     H292412   2.614   9.048   8.809
30724WAT      O92413   1.280   9.661   2.082
30724WAT     H192414   1.308   9.683   1.988
30724WAT     H292415   1.352   9.607   2.125
30725WAT      O92416   3.350   8.717   9.113
30725WAT     H192417   3.427   8.735   9.052
30725WAT     H292418   3.330   8.799   9.166
30726WAT      O92419   4.930   5.496   3.319
30726WAT     H192420   4.913   5.437   3.397
30726WAT     H292421   4.860   5.568   3.315
30727WAT      O92422   3.964   3.099   0.529
30727WAT     H192423   3.864   3.107   0.521
30727WAT     H292424   3.991   3.003   0.522
30728WAT      O92425   3.606   5.668   6.527
30728WAT     H192426   3.683   5.616   6.564
30728WAT     H292427   3.553   5.609   6.465
30729WAT      O92428   5.739   1.801   4.672
30729WAT     H192429   5.666   1.824   4.737
30729WAT     H292430   5.707   1.818   4.579
30730WAT      O92431   4.771   7.152   7.566
30730WAT     H192432   4.671   7.154   7.565
30730WAT     H292433   4.802   7.089   7.637
30731WAT      O92434   7.743   3.001   2.181
30731WAT     H192435   7.666   3.040   2.129
30731WAT     H292436   7.710   2.967   2.269
30732WAT      O92437   1.412   7.109   4.007
30732WAT     H192438   1.317   7.082   3.998
30732WAT     H292439   1.461   7.040   4.061
30733WAT      O92440   5.284   8.905   4.569
30733WAT     H192441   5.214   8.833   4.575
30733WAT     H292442   5.327   8.916   4.658
30734WAT      O92443   3.839   7.267   7.322
30734WAT     H192444   3.852   7.361   7.354
30734WAT     H292445   3.785   7.268   7.238
30735WAT      O92446   1.105   3.411   2.731
30735WAT     H192447   1.090   3.476   2.805
30735WAT     H292448   1.202   3.407   2.709
30736WAT      O92449   7.840   6.738   8.092
30736WAT     H192450   7.883   6.664   8.041
30736WAT     H292451   7.866   6.826   8.052
30737WAT      O92452   7.609   4.958   2.489
30737WAT     H192453   7.602   4.889   2.560
30737WAT     H292454   7.580   5.047   2.526
30738WAT      O92455   5.704   3.211   0.846
30738WAT     H192456   5.795   3.181   0.817
30738WAT     H292457   5.658   3.257   0.769
30739WAT      O92458   4.381   4.425   1.194
30739WAT     H192459   4.425   4.509   1.161
30739WAT     H292460   4.381   4.357   1.120
30740WAT      O92461   1.225   1.732   4.833
30740WAT     H192462   1.298   1.681   4.788
30740WAT     H292463   1.196   1.808   4.775
30741WAT      O92464   7.055   9.603   6.191
30741WAT     H192465   7.132   9.542   6.173
30741WAT     H292466   6.987   9.594   6.118
30742WAT      O92467   1.327   7.706   6.032
30742WAT     H192468   1.236   7.696   5.990
30742WAT     H292469   1.319   7.704   6.131
30743WAT      O92470   5.125   2.613   5.609
30743WAT     H192471   5.088   2.627   5.517
30743WAT     H292472   5.161   2.700   5.644
30744WAT      O92473   3.885   4.922   6.291
30744WAT     H192474   3.857   5.005   6.242
30744WAT     H292475   3.984   4.910   6.282
30745WAT      O92476   4.579   5.802   8.104
30745WAT     H192477   4.506   5.836   8.162
30745WAT     H292478   4.580   5.702   8.105
30746WAT      O92479   5.918   8.568   6.467
30746WAT     H192480   5.972   8.516   6.532
30746WAT     H292481   5.964   8.654   6.445
30747WAT      O92482   4.586   8.558   3.697
30747WAT     H192483   4.546   8.643   3.731
30747WAT     H292484   4.588   8.559   3.597
30748WAT      O92485   8.283   2.321   9.066
30748WAT     H192486   8.325   2.284   8.983
30748WAT     H292487   8.226   2.400   9.043
30749WAT      O92488   2.338   6.919   3.206
30749WAT     H192489   2.331   7.007   3.252
30749WAT     H292490   2.277   6.853   3.249
30750WAT      O92491   6.809   2.558   8.668
30750WAT     H192492   6.793   2.657   8.663
30750WAT     H292493   6.871   2.538   8.744
30751WAT      O92494   1.356   9.454   5.510
30751WAT     H192495   1.362   9.554   5.507
30751WAT     H292496   1.446   9.414   5.490
30752WAT      O92497   4.683   8.796   3.415
30752WAT     H192498   4.719   8.798   3.508
30752WAT     H292499   4.644   8.706   3.395
30753WAT      O92500   6.469   5.155   2.076
30753WAT     H192501   6.527   5.224   2.119
30753WAT     H292502   6.498   5.063   2.106
30754WAT      O92503   2.200   9.183   0.857
30754WAT     H192504   2.160   9.100   0.894
30754WAT     H292505   2.130   9.255   0.852
30755WAT      O92506   3.213   3.374   7.224
30755WAT     H192507   3.151   3.303   7.257
30755WAT     H292508   3.161   3.456   7.201
30756WAT      O92509   5.667   3.737   5.550
30756WAT     H192510   5.717   3.659   5.586
30756WAT     H292511   5.644   3.721   5.454
30757WAT      O92512   0.723   8.328   5.933
30757WAT     H192513   0.793   8.330   6.005
30757WAT     H292514   0.767   8.339   5.844
30758WAT      O92515   9.751   8.363   4.258
30758WAT     H192516   9.695   8.444   4.276
30758WAT     H292517   9.777   8.321   4.345
30759WAT      O92518   8.053   9.264   6.290
30759WAT     H192519   7.989   9.226   6.357
30759WAT     H292520   8.142   9.218   6.298
30760WAT      O92521   8.219   5.060   9.676
30760WAT     H192522   8.248   5.024   9.587
30760WAT     H292523   8.260   5.149   9.692
30761WAT      O92524   4.006   0.379   1.571
30761WAT     H192525   4.039   0.322   1.647
30761WAT     H292526   3.909   0.398   1.584
30762WAT      O92527   8.717   9.583   6.466
30762WAT     H192528   8.773   9.654   6.424
30762WAT     H292529   8.770   9.498   6.472
30763WAT      O92530   4.105   7.269   4.125
30763WAT     H192531   4.068   7.280   4.217
30763WAT     H292532   4.095   7.355   4.075
30764WAT      O92533   4.730   1.558   1.294
30764WAT     H192534   4.791   1.500   1.349
30764WAT     H292535   4.765   1.651   1.293
30765WAT      O92536   3.817   1.069   5.150
30765WAT     H192537   3.884   1.032   5.086
30765WAT     H292538   3.803   1.004   5.225
30766WAT      O92539   1.673   7.278   1.495
30766WAT     H192540   1.705   7.229   1.576
30766WAT     H292541   1.597   7.339   1.521
30767WAT      O92542   2.718   5.608   5.611
30767WAT     H192543   2.763   5.620   5.700
30767WAT     H292544   2.636   5.666   5.608
30768WAT      O92545   0.940   4.080   4.320
30768WAT     H192546   0.911   4.106   4.228
30768WAT     H292547   0.860   4.055   4.375
30769WAT      O92548   0.603   1.332   5.437
30769WAT     H192549   0.626   1.265   5.508
30769WAT     H292550   0.545   1.288   5.367
30770WAT      O92551   6.846   1.338   1.686
30770WAT     H192552   6.826   1.436   1.684
30770WAT     H292553   6.904   1.317   1.764
30771WAT      O92554   3.701   7.727   2.185
30771WAT     H192555   3.738   7.652   2.130
30771WAT     H292556   3.764   7.805   2.181
30772WAT      O92557   8.302   7.706   5.871
30772WAT     H192558   8.384   7.708   5.928
30772WAT     H292559   8.266   7.613   5.869
30773WAT      O92560   0.871   3.894   2.018
30773WAT     H192561   0.819   3.825   1.967
30773WAT     H292562   0.817   3.925   2.096
30774WAT      O92563   6.972   5.100   3.796
30774WAT     H192564   7.054   5.158   3.796
30774WAT     H292565   6.997   5.008   3.766
30775WAT      O92566   5.572   5.587   2.921
30775WAT     H192567   5.524   5.502   2.900
30775WAT     H292568   5.575   5.600   3.020
30776WAT      O92569   7.606   6.466   6.157
30776WAT     H192570   7.562   6.542   6.109
30776WAT     H292571   7.670   6.420   6.095
30777WAT      O92572   6.557   1.576   7.317
30777WAT     H192573   6.602   1.654   7.274
30777WAT     H292574   6.523   1.603   7.407
30778WAT      O92575   6.330   3.861   7.023
30778WAT     H192576   6.412   3.895   6.976
30778WAT     H292577   6.351   3.847   7.120
30779WAT      O92578   8.713   1.578   1.301
30779WAT     H192579   8.740   1.501   1.360
30779WAT     H292580   8.671   1.650   1.357
30780WAT      O92581   2.471   3.738   8.002
30780WAT     H192582   2.464   3.702   8.096
30780WAT     H292583   2.402   3.809   7.988
30781WAT      O92584   9.071   8.471   9.828
30781WAT     H192585   9.140   8.528   9.873
30781WAT     H292586   9.035   8.519   9.749
30782WAT      O92587   3.315   9.520   3.196
30782WAT     H192588   3.342   9.429   3.228
30782WAT     H292589   3.395   9.567   3.159
30783WAT      O92590   6.639   2.963   3.136
30783WAT     H192591   6.649   2.911   3.051
30783WAT     H292592   6.583   3.044   3.119
30784WAT      O92593   1.127   0.607   9.584
30784WAT     H192594   1.209   0.643   9.540
30784WAT     H292595   1.103   0.666   9.661
30785WAT      O92596   9.708   0.993   7.002
30785WAT     H192597   9.615   1.010   7.036
30785WAT     H292598   9.743   0.909   7.042
30786WAT      O92599   2.819   2.929   5.180
30786WAT     H192600   2.860   2.947   5.091
30786WAT     H292601   2.780   2.837   5.181
30787WAT      O92602   5.242   9.603   3.069
30787WAT     H192603   5.293   9.564   2.993
30787WAT     H292604   5.146   9.576   3.063
30788WAT      O92605   1.813   3.066   8.512
30788WAT     H192606   1.759   3.001   8.459
30788WAT     H292607   1.911   3.044   8.503
30789WAT      O92608   7.137   4.090   8.828
30789WAT     H192609   7.155   4.114   8.733
30789WAT     H292610   7.214   4.118   8.885
30790WAT      O92611   7.080   8.945   7.904
30790WAT     H192612   7.070   8.851   7.870
30790WAT     H292613   7.055   9.009   7.831
30791WAT      O92614   3.541   0.458   3.271
30791WAT     H192615   3.482   0.452   3.351
30791WAT     H292616   3.485   0.469   3.189
30792WAT      O92617   6.015   7.601   8.713
30792WAT     H192618   5.946   7.595   8.641
30792WAT     H292619   5.991   7.539   8.788
30793WAT      O92620   4.459   0.449   2.966
30793WAT     H192621   4.368   0.435   2.927
30793WAT     H292622   4.492   0.541   2.941
30794WAT      O92623   3.753   5.435   7.178
30794WAT     H192624   3.838   5.415   7.226
30794WAT     H292625   3.770   5.434   7.079
30795WAT      O92626   5.525   4.866   3.282
30795WAT     H192627   5.551   4.838   3.374
30795WAT     H292628   5.431   4.902   3.284
30796WAT      O92629   7.658   8.814   0.043
30796WAT     H192630   7.654   8.717   0.020
30796WAT     H292631   7.724   8.829   0.117
30797WAT      O92632   2.677   3.129   9.378
30797WAT     H192633   2.593   3.178   9.355
30797WAT     H292634   2.725   3.103   9.294
30798WAT      O92635   9.433   5.617   3.678
30798WAT     H192636   9.459   5.635   3.584
30798WAT     H292637   9.333   5.609   3.685
30799WAT      O92638   5.075   7.881   7.411
30799WAT     H192639   5.082   7.969   7.458
30799WAT     H292640   5.080   7.807   7.478
30800WAT      O92641   6.120   2.870   8.436
30800WAT     H192642   6.068   2.794   8.474
30800WAT     H292643   6.177   2.838   8.361
30801WAT      O92644   3.904   2.448   0.957
30801WAT     H192645   3.902   2.399   1.045
30801WAT     H292646   3.813   2.445   0.915
30802WAT      O92647   0.201   2.191   8.405
30802WAT     H192648   0.178   2.134   8.326
30802WAT     H292649   0.288   2.160   8.443
30803WAT      O92650   2.512   7.715   3.254
30803WAT     H192651   2.447   7.786   3.284
30803WAT     H292652   2.580   7.757   3.194
30804WAT      O92653   3.692   6.412   6.061
30804WAT     H192654   3.712   6.367   6.148
30804WAT     H292655   3.760   6.384   5.993
30805WAT      O92656   3.074   3.508   1.160
30805WAT     H192657   3.137   3.542   1.230
30805WAT     H292658   3.099   3.546   1.071
30806WAT      O92659   4.999   6.837   7.255
30806WAT     H192660   5.018   6.758   7.314
30806WAT     H292661   4.963   6.912   7.310
30807WAT      O92662   4.346   7.512   7.766
30807WAT     H192663   4.320   7.573   7.692
30807WAT     H292664   4.394   7.564   7.837
30808WAT      O92665   3.357   3.977   9.442
30808WAT     H192666   3.454   3.999   9.454
30808WAT     H292667   3.330   3.998   9.349
30809WAT      O92668   1.741   1.116   3.222
30809WAT     H192669   1.744   1.037   3.283
30809WAT     H292670   1.756   1.087   3.128
30810WAT      O92671   6.886   7.554   8.213
30810WAT     H192672   6.866   7.609   8.294
30810WAT     H292673   6.966   7.590   8.166
30811WAT      O92674   0.452   5.362   6.996
30811WAT     H192675   0.511   5.358   7.076
30811WAT     H292676   0.374   5.423   7.014
30812WAT      O92677   7.901   8.040   9.619
30812WAT     H192678   7.851   7.955   9.606
30812WAT     H292679   7.854   8.115   9.572
30813WAT      O92680   3.722   2.267   0.424
30813WAT     H192681   3.641   2.264   0.365
30813WAT     H292682   3.717   2.346   0.485
30814WAT      O92683   9.020   3.090   0.968
30814WAT     H192684   9.042   3.009   0.914
30814WAT     H292685   8.950   3.067   1.036
30815WAT      O92686   8.222   4.490   1.511
30815WAT     H192687   8.244   4.452   1.422
30815WAT     H292688   8.127   4.522   1.511
30816WAT      O92689   7.398   5.667   7.948
30816WAT     H192690   7.396   5.737   7.876
30816WAT     H292691   7.394   5.576   7.906
30817WAT      O92692   1.446   5.668   4.345
30817WAT     H192693   1.349   5.669   4.321
30817WAT     H292694   1.483   5.576   4.330
30818WAT      O92695   5.579   8.337   3.934
30818WAT     H192696   5.528   8.369   4.014
30818WAT     H292697   5.628   8.253   3.957
30819WAT      O92698   2.664   6.674   3.074
30819WAT     H192699   2.718   6.677   2.990
30819WAT     H292700   2.603   6.754   3.078
30820WAT      O92701   0.974   5.136   2.700
30820WAT     H192702   1.042   5.210   2.704
30820WAT     H292703   0.917   5.138   2.783
30821WAT      O92704   2.543   7.051   1.213
30821WAT     H192705   2.461   6.996   1.197
30821WAT     H292706   2.577   7.086   1.126
30822WAT      O92707   1.259   5.912   9.713
30822WAT     H192708   1.165   5.878   9.709
30822WAT     H292709   1.259   6.009   9.737
30823WAT      O92710   9.506   0.878   6.533
30823WAT     H192711   9.549   0.788   6.524
30823WAT     H292712   9.550   0.928   6.607
30824WAT      O92713   6.568   5.114   7.064
30824WAT     H192714   6.637   5.146   7.129
30824WAT     H292715   6.528   5.028   7.098
30825WAT      O92716   5.162   4.966   1.603
30825WAT     H192717   5.234   5.015   1.554
30825WAT     H292718   5.200   4.925   1.687
30826WAT      O92719   2.783   8.595   5.164
30826WAT     H192720   2.830   8.587   5.076
30826WAT     H292721   2.826   8.534   5.230
30827WAT      O92722   3.286   9.479   3.651
30827WAT     H192723   3.312   9.576   3.652
30827WAT     H292724   3.298   9.441   3.743
30828WAT      O92725   5.279   3.418   2.854
30828WAT     H192726   5.286   3.388   2.949
30828WAT     H292727   5.371   3.434   2.817
30829WAT      O92728   6.571   9.709   1.973
30829WAT     H192729   6.606   9.666   2.057
30829WAT     H292730   6.579   9.808   1.980
30830WAT      O92731   1.989   5.915   7.495
30830WAT     H192732   1.992   6.015   7.498
30830WAT     H292733   1.908   5.886   7.445
30831WAT      O92734   9.496   7.960   5.137
30831WAT     H192735   9.441   7.942   5.219
30831WAT     H292736   9.444   8.018   5.074
30832WAT      O92737   1.675   8.435   3.018
30832WAT     H192738   1.715   8.507   2.961
30832WAT     H292739   1.603   8.387   2.967
30833WAT      O92740   5.283   1.592   0.805
30833WAT     H192741   5.258   1.690   0.806
30833WAT     H292742   5.358   1.578   0.742
30834WAT      O92743   4.613   2.445   4.101
30834WAT     H192744   4.534   2.503   4.079
30834WAT     H292745   4.604   2.357   4.054
30835WAT      O92746   4.643   5.759   5.573
30835WAT     H192747   4.723   5.798   5.619
30835WAT     H292748   4.577   5.728   5.641
30836WAT      O92749   3.543   5.266   7.174
30836WAT     H192750   3.476   5.303   7.239
30836WAT     H292751   3.619   5.331   7.164
30837WAT      O92752   7.418   4.034   7.155
30837WAT     H192753   7.340   3.995   7.206
30837WAT     H292754   7.420   3.995   7.063
30838WAT      O92755   8.731   4.300   7.445
30838WAT     H192756   8.667   4.225   7.460
30838WAT     H292757   8.684   4.375   7.398
30839WAT      O92758   0.833   7.951   7.278
30839WAT     H192759   0.847   8.026   7.214
30839WAT     H292760   0.880   7.869   7.245
30840WAT      O92761   1.668   5.780   5.160
30840WAT     H192762   1.578   5.794   5.120
30840WAT     H292763   1.737   5.777   5.087
30841WAT      O92764   2.249   0.740   3.393
30841WAT     H192765   2.348   0.751   3.403
30841WAT     H292766   2.215   0.801   3.322
30842WAT      O92767   5.696   0.641   8.335
30842WAT     H192768   5.629   0.714   8.321
30842WAT     H292769   5.788   0.677   8.317
30843WAT      O92770   7.383   5.064   9.383
30843WAT     H192771   7.382   5.158   9.417
30843WAT     H292772   7.378   5.001   9.461
30844WAT      O92773   8.886   3.635   0.599
30844WAT     H192774   8.873   3.629   0.500
30844WAT     H292775   8.802   3.669   0.641
30845WAT      O92776   7.373   0.907   8.400
30845WAT     H192777   7.431   0.868   8.472
30845WAT     H292778   7.339   0.833   8.342
30846WAT      O92779   4.269   4.974   0.126
30846WAT     H192780   4.279   5.045   0.056
30846WAT     H292781   4.357   4.958   0.170
30847WAT      O92782   1.595   6.836   5.255
30847WAT     H192783   1.602   6.790   5.344
30847WAT     H292784   1.652   6.788   5.188
30848WAT      O92785   9.094   4.193   1.272
30848WAT     H192786   9.097   4.131   1.349
30848WAT     H292787   8.999   4.204   1.241
30849WAT      O92788   0.503   7.032   5.746
30849WAT     H192789   0.438   7.098   5.784
30849WAT     H292790   0.593   7.048   5.787
30850WAT      O92791   0.379   4.684   3.151
30850WAT     H192792   0.358   4.782   3.141
30850WAT     H292793   0.340   4.651   3.237
30851WAT      O92794   0.259   3.162   7.921
30851WAT     H192795   0.194   3.237   7.920
30851WAT     H292796   0.299   3.153   8.012
30852WAT      O92797   3.218   2.985   2.893
30852WAT     H192798   3.261   2.921   2.956
30852WAT     H292799   3.148   2.938   2.839
30853WAT      O92800   0.751   6.389   7.434
30853WAT     H192801   0.768   6.293   7.457
30853WAT     H292802   0.657   6.399   7.402
30854WAT      O92803   6.041   7.465   9.237
30854WAT     H192804   6.068   7.505   9.149
30854WAT     H292805   5.942   7.475   9.249
30855WAT      O92806   8.990   5.748   9.559
30855WAT     H192807   9.083   5.750   9.597
30855WAT     H292808   8.982   5.819   9.488
30856WAT      O92809   4.701   8.236   8.743
30856WAT     H192810   4.656   8.265   8.659
30856WAT     H292811   4.799   8.255   8.736
30857WAT      O92812   6.005   5.836   9.545
30857WAT     H192813   6.029   5.749   9.504
30857WAT     H292814   6.088   5.886   9.569
30858WAT      O92815   9.288   0.586   5.847
30858WAT     H192816   9.337   0.605   5.932
30858WAT     H292817   9.305   0.492   5.819
30859WAT      O92818   6.371   5.225   0.477
30859WAT     H192819   6.418   5.266   0.555
30859WAT     H292820   6.315   5.295   0.431
30860WAT      O92821   2.738   4.797   9.709
30860WAT     H192822   2.768   4.769   9.800
30860WAT     H292823   2.675   4.727   9.673
30861WAT      O92824   6.391   0.824   5.161
30861WAT     H192825   6.301   0.853   5.127
30861WAT     H292826   6.379   0.766   5.241
30862WAT      O92827   3.816   6.910   9.605
30862WAT     H192828   3.809   6.854   9.687
30862WAT     H292829   3.828   6.851   9.525
30863WAT      O92830   3.766   8.221   9.317
30863WAT     H192831   3.695   8.184   9.377
30863WAT     H292832   3.854   8.218   9.364
30864WAT      O92833   1.864   7.228   7.777
30864WAT     H192834   1.808   7.208   7.857
30864WAT     H292835   1.936   7.159   7.767
30865WAT      O92836   1.558   9.408   9.146
30865WAT     H192837   1.540   9.314   9.174
30865WAT     H292838   1.508   9.429   9.062
30866WAT      O92839   3.107   5.885   7.390
30866WAT     H192840   3.022   5.920   7.428
30866WAT     H292841   3.178   5.886   7.460
30867WAT      O92842   7.032   8.424   6.147
30867WAT     H192843   7.054   8.367   6.227
30867WAT     H292844   7.047   8.371   6.063
30868WAT      O92845   6.911   0.777   4.808
30868WAT     H192846   6.948   0.847   4.747
30868WAT     H292847   6.836   0.729   4.763
30869WAT      O92848   9.525   4.288   6.822
30869WAT     H192849   9.524   4.362   6.754
30869WAT     H292850   9.446   4.298   6.882
30870WAT      O92851   3.242   2.986   1.314
30870WAT     H192852   3.280   3.066   1.269
30870WAT     H292853   3.159   2.957   1.265
30871WAT      O92854   1.807   6.138   6.660
30871WAT     H192855   1.729   6.130   6.598
30871WAT     H292856   1.873   6.203   6.622
30872WAT      O92857   1.596   1.527   5.178
30872WAT     H192858   1.555   1.460   5.116
30872WAT     H292859   1.686   1.494   5.208
30873WAT      O92860   7.494   4.368   2.399
30873WAT     H192861   7.581   4.399   2.361
30873WAT     H292862   7.421   4.384   2.332
30874WAT      O92863   1.750   7.305   5.272
30874WAT     H192864   1.849   7.289   5.276
30874WAT     H292865   1.707   7.236   5.212
30875WAT      O92866   1.796   9.552   6.756
30875WAT     H192867   1.769   9.643   6.787
30875WAT     H292868   1.817   9.555   6.659
30876WAT      O92869   8.929   4.111   0.915
30876WAT     H192870   8.957   4.197   0.960
30876WAT     H292871   8.922   4.126   0.816
30877WAT      O92872   8.278   5.938   3.747
30877WAT     H192873   8.213   5.962   3.819
30877WAT     H292874   8.229   5.895   3.671
30878WAT      O92875   2.357   4.214   8.973
30878WAT     H192876   2.383   4.118   8.986
30878WAT     H292877   2.401   4.271   9.042
30879WAT      O92878   4.917   5.173   9.458
30879WAT     H192879   4.952   5.141   9.546
30879WAT     H292880   4.987   5.228   9.412
30880WAT      O92881   2.337   0.522   7.444
30880WAT     H192882   2.420   0.469   7.458
30880WAT     H292883   2.360   0.618   7.427
30881WAT      O92884   8.339   2.879   6.864
30881WAT     H192885   8.278   2.813   6.822
30881WAT     H292886   8.354   2.854   6.960
30882WAT      O92887   7.661   0.576   1.900
30882WAT     H192888   7.721   0.555   1.978
30882WAT     H292889   7.661   0.498   1.837
30883WAT      O92890   6.299   4.240   9.757
30883WAT     H192891   6.298   4.281   9.848
30883WAT     H292892   6.210   4.254   9.713
30884WAT      O92893   0.922   6.469   2.657
30884WAT     H192894   0.823   6.475   2.645
30884WAT     H292895   0.959   6.558   2.681
30885WAT      O92896   2.431   9.422   6.302
30885WAT     H192897   2.490   9.431   6.221
30885WAT     H292898   2.423   9.326   6.328
30886WAT      O92899   8.087   9.281   4.614
30886WAT     H192900   8.103   9.183   4.628
30886WAT     H292901   8.171   9.332   4.633
30887WAT      O92902   5.424   4.655   8.970
30887WAT     H192903   5.461   4.682   8.881
30887WAT     H292904   5.444   4.726   9.037
30888WAT      O92905   2.166   5.182   9.836
30888WAT     H192906   2.097   5.166   9.906
30888WAT     H292907   2.198   5.095   9.800
30889WAT      O92908   7.524   1.909   4.144
30889WAT     H192909   7.545   2.001   4.111
30889WAT     H292910   7.584   1.886   4.220
30890WAT      O92911   3.123   8.064   1.223
30890WAT     H192912   3.080   8.103   1.304
30890WAT     H292913   3.062   7.994   1.183
30891WAT      O92914   6.012   3.175   1.079
30891WAT     H192915   6.089   3.197   1.139
30891WAT     H292916   5.986   3.079   1.092
30892WAT      O92917   8.649   9.307   8.381
30892WAT     H192918   8.641   9.209   8.362
30892WAT     H292919   8.580   9.334   8.448
30893WAT      O92920   9.046   5.067   6.201
30893WAT     H192921   8.956   5.043   6.236
30893WAT     H292922   9.049   5.165   6.179
30894WAT      O92923   5.179   1.805   7.290
30894WAT     H192924   5.164   1.864   7.369
30894WAT     H292925   5.124   1.837   7.213
30895WAT      O92926   5.514   6.854   8.736
30895WAT     H192927   5.569   6.784   8.782
30895WAT     H292928   5.420   6.850   8.769
30896WAT      O92929   4.763   8.956   1.298
30896WAT     H192930   4.799   9.037   1.252
30896WAT     H292931   4.765   8.879   1.234
30897WAT      O92932   9.300   3.837   7.104
30897WAT     H192933   9.264   3.750   7.138
30897WAT     H292934   9.273   3.848   7.008
30898WAT      O92935   7.210   2.852   4.032
30898WAT     H192936   7.121   2.816   4.005
30898WAT     H292937   7.234   2.928   3.971
30899WAT      O92938   3.377   1.739   6.609
30899WAT     H192939   3.396   1.804   6.535
30899WAT     H292940   3.366   1.790   6.695
30900WAT      O92941   2.401   2.596   8.654
30900WAT     H192942   2.387   2.497   8.648
30900WAT     H292943   2.418   2.632   8.563
30901WAT      O92944   2.247   6.849   8.261
30901WAT     H192945   2.228   6.886   8.352
30901WAT     H292946   2.294   6.761   8.271
30902WAT      O92947   6.850   7.656   7.665
30902WAT     H192948   6.752   7.643   7.650
30902WAT     H292949   6.876   7.616   7.752
30903WAT      O92950   3.721   0.035   2.814
30903WAT     H192951   3.706  -0.063   2.819
30903WAT     H292952   3.644   0.078   2.767
30904WAT      O92953   0.424   2.587   6.391
30904WAT     H192954   0.445   2.553   6.300
30904WAT     H292955   0.468   2.528   6.459
30905WAT      O92956   5.883   7.274   3.832
30905WAT     H192957   5.898   7.198   3.768
30905WAT     H292958   5.871   7.359   3.781
30906WAT      O92959   6.786   0.725   6.469
30906WAT     H192960   6.721   0.654   6.498
30906WAT     H292961   6.788   0.730   6.370
30907WAT      O92962   7.273   7.699   1.493
30907WAT     H192963   7.203   7.767   1.515
30907WAT     H292964   7.361   7.745   1.480
30908WAT      O92965   3.881   0.766   8.688
30908WAT     H192966   3.960   0.704   8.680
30908WAT     H292967   3.901   0.837   8.755
30909WAT      O92968   9.643   9.436   0.994
30909WAT     H192969   9.558   9.488   0.986
30909WAT     H292970   9.713   9.476   0.935
30910WAT      O92971   6.052   2.217   6.150
30910WAT     H192972   6.134   2.273   6.161
30910WAT     H292973   5.972   2.276   6.141
30911WAT      O92974   7.701   9.032   6.637
30911WAT     H192975   7.713   9.048   6.735
30911WAT     H292976   7.615   9.073   6.607
30912WAT      O92977   0.628   7.313   4.680
30912WAT     H192978   0.591   7.327   4.588
30912WAT     H292979   0.707   7.372   4.694
30913WAT      O92980   7.301   6.899   7.974
30913WAT     H192981   7.215   6.888   8.025
30913WAT     H292982   7.323   6.996   7.967
30914WAT      O92983   8.398   0.437   8.693
30914WAT     H192984   8.347   0.519   8.665
30914WAT     H292985   8.406   0.435   8.793
30915WAT      O92986   3.968   4.988   4.661
30915WAT     H192987   3.906   4.961   4.588
30915WAT     H292988   3.988   5.086   4.654
30916WAT      O92989   1.351   6.078   2.053
30916WAT     H192990   1.255   6.088   2.026
30916WAT     H292991   1.404   6.042   1.977
30917WAT      O92992   7.719   5.190   4.477
30917WAT     H192993   7.696   5.201   4.574
30917WAT     H292994   7.732   5.092   4.458
30918WAT      O92995   0.216   3.234   6.258
30918WAT     H192996   0.222   3.268   6.351
30918WAT     H292997   0.307   3.212   6.223
30919WAT      O92998   3.643   5.447   1.361
30919WAT     H192999   3.652   5.433   1.459
30919WAT     H293000   3.561   5.503   1.342
30920WAT      O93001   7.692   4.511   8.074
30920WAT     H193002   7.772   4.458   8.048
30920WAT     H293003   7.630   4.455   8.129
30921WAT      O93004   0.397   0.419   5.338
30921WAT     H193005   0.354   0.442   5.251
30921WAT     H293006   0.331   0.432   5.413
30922WAT      O93007   6.883   4.905   5.388
30922WAT     H193008   6.795   4.865   5.414
30922WAT     H293009   6.899   4.988   5.442
30923WAT      O93010   5.122   2.703   2.608
30923WAT     H193011   5.039   2.659   2.573
30923WAT     H293012   5.188   2.632   2.633
30924WAT      O93013   0.747   8.007   1.162
30924WAT     H193014   0.648   8.013   1.160
30924WAT     H293015   0.777   7.974   1.252
30925WAT      O93016   6.607   2.651   6.981
30925WAT     H193017   6.692   2.604   7.002
30925WAT     H293018   6.530   2.590   6.996
30926WAT      O93019   4.082   6.109   4.721
30926WAT     H193020   4.149   6.074   4.655
30926WAT     H293021   3.991   6.107   4.681
30927WAT      O93022   7.292   9.185   0.789
30927WAT     H193023   7.245   9.151   0.708
30927WAT     H293024   7.344   9.111   0.831
30928WAT      O93025   4.668   0.056   0.064
30928WAT     H193026   4.755   0.086   0.103
30928WAT     H293027   4.663  -0.044   0.067
30929WAT      O93028   3.901   4.071   1.612
30929WAT     H193029   3.872   4.091   1.518
30929WAT     H293030   3.995   4.036   1.610
30930WAT      O93031   2.224   6.775   0.779
30930WAT     H193032   2.218   6.875   0.773
30930WAT     H293033   2.138   6.739   0.815
30931WAT      O93034   5.790   6.731   8.764
30931WAT     H193035   5.801   6.645   8.714
30931WAT     H293036   5.811   6.716   8.860
30932WAT      O93037   2.296   7.583   3.169
30932WAT     H193038   2.374   7.634   3.208
30932WAT     H293039   2.306   7.486   3.190
30933WAT      O93040   4.582   6.239   0.211
30933WAT     H193041   4.490   6.210   0.237
30933WAT     H293042   4.635   6.259   0.293
30934WAT      O93043   0.540   7.804   1.015
30934WAT     H193044   0.478   7.863   1.065
30934WAT     H293045   0.624   7.791   1.068
30935WAT      O93046   2.797   2.480   8.250
30935WAT     H193047   2.778   2.422   8.171
30935WAT     H293048   2.713   2.528   8.277
30936WAT      O93049   3.268   2.212   0.975
30936WAT     H193050   3.199   2.195   1.045
30936WAT     H293051   3.311   2.301   0.991
30937WAT      O93052   8.953   2.588   8.520
30937WAT     H193053   8.869   2.622   8.477
30937WAT     H293054   8.941   2.491   8.543
30938WAT      O93055   3.023   0.260   0.039
30938WAT     H193056   3.023   0.202   0.121
30938WAT     H293057   3.105   0.243  -0.015
30939WAT      O93058   7.607   4.643   9.017
30939WAT     H193059   7.593   4.563   9.075
30939WAT     H293060   7.697   4.683   9.036
30940WAT      O93061   3.454   1.468   1.326
30940WAT     H193062   3.387   1.536   1.356
30940WAT     H293063   3.530   1.514   1.281
30941WAT      O93064   5.200   0.894   6.531
30941WAT     H193065   5.132   0.827   6.503
30941WAT     H293066   5.253   0.923   6.452
30942WAT      O93067   7.160   6.308   8.667
30942WAT     H193068   7.133   6.352   8.752
30942WAT     H293069   7.103   6.342   8.592
30943WAT      O93070   4.274   6.986   1.411
30943WAT     H193071   4.330   7.014   1.333
30943WAT     H293072   4.283   7.052   1.485
30944WAT      O93073   6.615   2.650   4.883
30944WAT     H193074   6.569   2.699   4.957
30944WAT     H293075   6.547   2.598   4.831
30945WAT      O93076   8.787   4.635   6.200
30945WAT     H193077   8.728   4.713   6.220
30945WAT     H293078   8.835   4.651   6.114
30946WAT      O93079   7.709   6.204   3.084
30946WAT     H193080   7.806   6.188   3.099
30946WAT     H293081   7.662   6.214   3.172
30947WAT      O93082   2.193   1.080   0.235
30947WAT     H193083   2.190   1.044   0.328
30947WAT     H293084   2.263   1.152   0.229
30948WAT      O93085   7.377   2.687   8.669
30948WAT     H193086   7.444   2.736   8.612
30948WAT     H293087   7.426   2.630   8.735
30949WAT      O93088   8.556   7.020   4.063
30949WAT     H193089   8.652   6.993   4.050
30949WAT     H293090   8.551   7.117   4.085
30950WAT      O93091   2.603   0.372   1.699
30950WAT     H193092   2.631   0.452   1.753
30950WAT     H293093   2.522   0.395   1.645
30951WAT      O93094   2.410   4.334   9.228
30951WAT     H193095   2.346   4.263   9.257
30951WAT     H293096   2.383   4.421   9.268
30952WAT      O93097   9.811   1.436   9.730
30952WAT     H193098   9.732   1.380   9.752
30952WAT     H293099   9.872   1.440   9.810
30953WAT      O93100   8.256   8.164   0.555
30953WAT     H193101   8.178   8.142   0.495
30953WAT     H293102   8.270   8.263   0.556
30954WAT      O93103   9.797   4.167   9.883
30954WAT     H193104   9.795   4.225   9.802
30954WAT     H293105   9.891   4.144   9.906
30955WAT      O93106   8.716   2.346   7.507
30955WAT     H193107   8.653   2.348   7.585
30955WAT     H293108   8.679   2.284   7.437
30956WAT      O93109   4.232   5.760   2.830
30956WAT     H193110   4.322   5.784   2.867
30956WAT     H293111   4.166   5.830   2.858
30957WAT      O93112   8.810   1.201   8.553
30957WAT     H193113   8.892   1.156   8.519
30957WAT     H293114   8.828   1.240   8.644
30958WAT      O93115   0.635   2.014   7.645
30958WAT     H193116   0.660   1.954   7.721
30958WAT     H293117   0.545   2.053   7.662
30959WAT      O93118   4.374   6.248   7.646
30959WAT     H193119   4.400   6.155   7.674
30959WAT     H293120   4.394   6.261   7.549
30960WAT      O93121   8.040   8.567   9.297
30960WAT     H193122   8.086   8.649   9.263
30960WAT     H293123   8.072   8.546   9.389
30961WAT      O93124   3.495   6.388   2.682
30961WAT     H193125   3.519   6.485   2.675
30961WAT     H293126   3.537   6.338   2.607
30962WAT      O93127   4.279   3.459   5.103
30962WAT     H193128   4.339   3.533   5.073
30962WAT     H293129   4.334   3.379   5.129
30963WAT      O93130   3.013   5.346   2.840
30963WAT     H193131   3.082   5.396   2.893
30963WAT     H293132   2.996   5.394   2.754
30964WAT      O93133   0.604   2.792   3.394
30964WAT     H193134   0.566   2.803   3.486
30964WAT     H293135   0.699   2.820   3.392
30965WAT      O93136   4.764   9.519   4.319
30965WAT     H193137   4.864   9.514   4.316
30965WAT     H293138   4.732   9.513   4.413
30966WAT      O93139   4.433   7.052   6.411
30966WAT     H193140   4.449   7.077   6.315
30966WAT     H293141   4.520   7.047   6.459
30967WAT      O93142   8.682   7.566   2.838
30967WAT     H193143   8.636   7.632   2.897
30967WAT     H293144   8.703   7.483   2.891
30968WAT      O93145   7.914   8.022   5.162
30968WAT     H193146   7.942   8.035   5.067
30968WAT     H293147   7.816   8.004   5.165
30969WAT      O93148   3.404   1.907   3.147
30969WAT     H193149   3.312   1.871   3.132
30969WAT     H293150   3.417   1.924   3.244
30970WAT      O93151   3.132   3.399   6.409
30970WAT     H193152   3.180   3.323   6.366
30970WAT     H293153   3.197   3.473   6.429
30971WAT      O93154   2.980   1.446   3.258
30971WAT     H193155   2.921   1.370   3.232
30971WAT     H293156   3.005   1.498   3.176
30972WAT      O93157   0.038   6.548   9.226
30972WAT     H193158  -0.014   6.550   9.311
30972WAT     H293159   0.025   6.635   9.177
30973WAT      O93160   3.607   2.870   7.583
30973WAT     H193161   3.512   2.898   7.598
30973WAT     H293162   3.665   2.911   7.654
30974WAT      O93163   3.365   3.112   7.806
30974WAT     H193164   3.359   3.050   7.728
30974WAT     H293165   3.298   3.084   7.875
30975WAT      O93166   0.950   5.280   8.859
30975WAT     H193167   0.890   5.352   8.823
30975WAT     H293168   1.045   5.301   8.836
30976WAT      O93169   7.308   4.749   1.647
30976WAT     H193170   7.329   4.665   1.698
30976WAT     H293171   7.211   4.771   1.659
30977WAT      O93172   1.846   8.788   3.342
30977WAT     H193173   1.802   8.701   3.317
30977WAT     H293174   1.874   8.836   3.258
30978WAT      O93175   5.164   5.061   7.458
30978WAT     H193176   5.248   5.083   7.507
30978WAT     H293177   5.101   5.138   7.462
30979WAT      O93178   7.297   6.214   6.433
30979WAT     H193179   7.270   6.156   6.356
30979WAT     H293180   7.358   6.286   6.400
30980WAT      O93181   1.071   8.945   0.386
30980WAT     H193182   0.992   8.910   0.335
30980WAT     H293183   1.080   8.894   0.472
30981WAT      O93184   7.720   4.117   5.833
30981WAT     H193185   7.761   4.040   5.783
30981WAT     H293186   7.668   4.081   5.911
30982WAT      O93187   9.315   0.322   1.109
30982WAT     H193188   9.294   0.325   1.011
30982WAT     H293189   9.283   0.407   1.152
30983WAT      O93190   7.989   0.451   8.951
30983WAT     H193191   8.043   0.524   8.994
30983WAT     H293192   7.934   0.405   9.021
30984WAT      O93193   2.619   7.049   2.173
30984WAT     H193194   2.624   7.063   2.272
30984WAT     H293195   2.611   6.952   2.153
30985WAT      O93196   8.821   8.579   2.309
30985WAT     H193197   8.907   8.623   2.334
30985WAT     H293198   8.792   8.518   2.383
30986WAT      O93199   7.226   0.910   3.517
30986WAT     H193200   7.284   0.849   3.571
30986WAT     H293201   7.279   0.949   3.441
30987WAT      O93202   8.931   1.935   6.757
30987WAT     H193203   8.989   2.003   6.802
30987WAT     H293204   8.906   1.968   6.666
30988WAT      O93205   1.596   0.726   3.745
30988WAT     H193206   1.651   0.706   3.664
30988WAT     H293207   1.500   0.704   3.727
30989WAT      O93208   0.795   2.347   9.662
30989WAT     H193209   0.809   2.255   9.698
30989WAT     H293210   0.837   2.414   9.723
30990WAT      O93211   5.349   3.072   0.775
30990WAT     H193212   5.288   3.053   0.853
30990WAT     H293213   5.397   2.989   0.749
30991WAT      O93214   9.192   3.375   6.141
30991WAT     H193215   9.194   3.336   6.233
30991WAT     H293216   9.107   3.350   6.096
30992WAT      O93217   8.942   8.895   9.065
30992WAT     H193218   8.892   8.957   9.004
30992WAT     H293219   8.911   8.907   9.159
30993WAT      O93220   7.744   8.651   8.088
30993WAT     H193221   7.719   8.590   8.012
30993WAT     H293222   7.843   8.668   8.085
30994WAT      O93223   9.664   7.527   5.897
30994WAT     H193224   9.718   7.607   5.872
30994WAT     H293225   9.725   7.452   5.923
30995WAT      O93226   3.652   6.150   9.205
30995WAT     H193227   3.553   6.151   9.216
30995WAT     H293228   3.681   6.057   9.181
30996WAT      O93229   5.654   6.049   1.786
30996WAT     H193230   5.740   6.042   1.836
30996WAT     H293231   5.614   6.140   1.798
30997WAT      O93232   5.551   6.412   6.500
30997WAT     H193233   5.534   6.480   6.572
30997WAT     H293234   5.485   6.427   6.426
30998WAT      O93235   5.699   4.197   1.617
30998WAT     H193236   5.733   4.194   1.523
30998WAT     H293237   5.672   4.104   1.644
30999WAT      O93238   9.582   4.090   2.682
30999WAT     H193239   9.568   4.185   2.654
30999WAT     H293240   9.577   4.083   2.782
31000WAT      O93241   4.901   9.459   9.858
31000WAT     H193242   4.895   9.416   9.768
31000WAT     H293243   4.867   9.396   9.928
31001WAT      O93244   5.672   0.091   3.053
31001WAT     H193245   5.599   0.140   3.101
31001WAT     H293246   5.687   0.002   3.097
31002WAT      O93247   6.641   3.520   7.581
31002WAT     H193248   6.584   3.560   7.653
31002WAT     H293249   6.736   3.519   7.611
31003WAT      O93250   5.630   0.173   9.156
31003WAT     H193251   5.608   0.116   9.235
31003WAT     H293252   5.590   0.264   9.168
31004WAT      O93253   1.489   9.168   9.241
31004WAT     H193254   1.520   9.103   9.172
31004WAT     H293255   1.539   9.153   9.326
31005WAT      O93256   4.602   4.086   5.228
31005WAT     H193257   4.601   4.143   5.310
31005WAT     H293258   4.593   4.144   5.147
31006WAT      O93259   7.575   2.489   3.953
31006WAT     H193260   7.664   2.446   3.938
31006WAT     H293261   7.587   2.588   3.967
31007WAT      O93262   2.752   4.239   0.749
31007WAT     H193263   2.834   4.265   0.801
31007WAT     H293264   2.756   4.281   0.658
31008WAT      O93265   2.033   9.577   3.717
31008WAT     H193266   1.936   9.572   3.692
31008WAT     H293267   2.043   9.556   3.815
31009WAT      O93268   2.771   2.296   5.480
31009WAT     H193269   2.757   2.345   5.394
31009WAT     H293270   2.826   2.353   5.542
31010WAT      O93271   6.887   6.090   0.301
31010WAT     H193272   6.811   6.123   0.245
31010WAT     H293273   6.877   6.124   0.394
31011WAT      O93274   7.242   2.010   6.191
31011WAT     H193275   7.335   1.974   6.204
31011WAT     H293276   7.228   2.031   6.094
31012WAT      O93277   0.543   9.768   0.615
31012WAT     H193278   0.532   9.807   0.523
31012WAT     H293279   0.502   9.677   0.618
31013WAT      O93280   6.381   7.866   0.009
31013WAT     H193281   6.440   7.939  -0.025
31013WAT     H293282   6.392   7.858   0.109
31014WAT      O93283   2.206   8.644   6.980
31014WAT     H193284   2.210   8.698   7.063
31014WAT     H293285   2.131   8.676   6.922
31015WAT      O93286   3.282   8.093   6.572
31015WAT     H193287   3.205   8.062   6.516
31015WAT     H293288   3.249   8.157   6.642
31016WAT      O93289   3.534   4.958   9.107
31016WAT     H193290   3.509   4.874   9.060
31016WAT     H293291   3.555   4.938   9.203
31017WAT      O93292   6.669   3.722   3.264
31017WAT     H193293   6.768   3.714   3.276
31017WAT     H293294   6.623   3.662   3.329
31018WAT      O93295   6.700   0.579   7.443
31018WAT     H193296   6.798   0.564   7.433
31018WAT     H293297   6.673   0.564   7.538
31019WAT      O93298   5.722   6.743   3.201
31019WAT     H193299   5.673   6.778   3.281
31019WAT     H293300   5.765   6.656   3.224
31020WAT      O93301   8.303   1.042   3.611
31020WAT     H193302   8.333   0.959   3.565
31020WAT     H293303   8.278   1.111   3.544
31021WAT      O93304   5.287   5.693   7.756
31021WAT     H193305   5.206   5.692   7.697
31021WAT     H293306   5.259   5.692   7.852
31022WAT      O93307   2.272   9.488   6.061
31022WAT     H193308   2.333   9.459   5.987
31022WAT     H293309   2.314   9.465   6.149
31023WAT      O93310   1.092   8.605   0.287
31023WAT     H193311   1.010   8.600   0.229
31023WAT     H293312   1.074   8.558   0.374
31024WAT      O93313   2.443   7.717   8.273
31024WAT     H193314   2.469   7.772   8.194
31024WAT     H293315   2.481   7.758   8.356
31025WAT      O93316   0.563   9.176   0.421
31025WAT     H193317   0.595   9.250   0.363
31025WAT     H293318   0.592   9.088   0.383
31026WAT      O93319   4.871   1.338   3.367
31026WAT     H193320   4.883   1.323   3.268
31026WAT     H293321   4.924   1.419   3.394
31027WAT      O93322   5.343   7.924   5.919
31027WAT     H193323   5.286   7.866   5.977
31027WAT     H293324   5.310   7.920   5.825
31028WAT      O93325   1.866   7.216   7.160
31028WAT     H193326   1.822   7.304   7.140
31028WAT     H293327   1.962   7.231   7.185
31029WAT      O93328   5.232   1.310   1.495
31029WAT     H193329   5.203   1.393   1.446
31029WAT     H293330   5.158   1.280   1.555
31030WAT      O93331   3.644   9.429   5.136
31030WAT     H193332   3.663   9.391   5.227
31030WAT     H293333   3.617   9.355   5.075
31031WAT      O93334   2.533   4.531   4.799
31031WAT     H193335   2.617   4.478   4.786
31031WAT     H293336   2.557   4.626   4.819
31032WAT      O93337   5.789   6.087   0.433
31032WAT     H193338   5.850   6.010   0.450
31032WAT     H293339   5.822   6.138   0.354
31033WAT      O93340   4.735   7.648   8.628
31033WAT     H193341   4.701   7.736   8.660
31033WAT     H293342   4.729   7.644   8.529
31034WAT      O93343   7.048   2.764   3.045
31034WAT     H193344   7.012   2.761   2.952
31034WAT     H293345   7.022   2.680   3.093
31035WAT      O93346   0.596   5.695   6.955
31035WAT     H193347   0.508   5.733   6.925
31035WAT     H293348   0.659   5.770   6.975
31036WAT      O93349   9.019   5.075   5.229
31036WAT     H193350   9.055   5.103   5.318
31036WAT     H293351   9.095   5.063   5.165
31037WAT      O93352   5.360   3.288   9.388
31037WAT     H193353   5.294   3.359   9.362
31037WAT     H293354   5.453   3.320   9.369
31038WAT      O93355   7.109   3.893   9.348
31038WAT     H193356   7.074   3.829   9.279
31038WAT     H293357   7.073   3.869   9.438
31039WAT      O93358   3.595   8.668   6.411
31039WAT     H193359   3.622   8.602   6.341
31039WAT     H293360   3.569   8.754   6.367
31040WAT      O93361   3.217   8.777   0.428
31040WAT     H193362   3.201   8.678   0.420
31040WAT     H293363   3.149   8.826   0.373
31041WAT      O93364   6.971   0.060   7.460
31041WAT     H193365   7.003   0.039   7.553
31041WAT     H293366   6.922   0.147   7.461
31042WAT      O93367   7.747   3.791   0.691
31042WAT     H193368   7.843   3.817   0.674
31042WAT     H293369   7.689   3.872   0.681
31043WAT      O93370   8.896   4.438   9.314
31043WAT     H193371   8.940   4.460   9.227
31043WAT     H293372   8.880   4.339   9.319
31044WAT      O93373   0.906   6.724   8.003
31044WAT     H193374   0.864   6.662   8.069
31044WAT     H293375   0.891   6.690   7.911
31045WAT      O93376   9.587   5.881   5.078
31045WAT     H193377   9.568   5.784   5.067
31045WAT     H293378   9.503   5.930   5.101
31046WAT      O93379   5.516   2.025   9.220
31046WAT     H193380   5.436   1.979   9.181
31046WAT     H293381   5.590   1.959   9.230
31047WAT      O93382   0.801   2.955   8.752
31047WAT     H193383   0.770   2.888   8.819
31047WAT     H293384   0.798   3.046   8.793
31048WAT      O93385   9.122   9.797   5.522
31048WAT     H193386   9.119   9.698   5.506
31048WAT     H293387   9.128   9.845   5.435
31049WAT      O93388   9.257   8.779   7.695
31049WAT     H193389   9.327   8.843   7.662
31049WAT     H293390   9.277   8.754   7.790
31050WAT      O93391   1.490   5.862   7.695
31050WAT     H193392   1.578   5.831   7.661
31050WAT     H293393   1.469   5.952   7.656
31051WAT      O93394   1.460   6.969   4.833
31051WAT     H193395   1.551   6.929   4.848
31051WAT     H293396   1.435   7.025   4.912
31052WAT      O93397   4.213   9.428   6.073
31052WAT     H193398   4.135   9.375   6.040
31052WAT     H293399   4.298   9.384   6.045
31053WAT      O93400   1.975   1.980   6.803
31053WAT     H193401   2.052   1.986   6.739
31053WAT     H293402   2.004   1.930   6.885
31054WAT      O93403   4.387   8.015   4.824
31054WAT     H193404   4.485   8.012   4.806
31054WAT     H293405   4.370   8.069   4.906
31055WAT      O93406   1.899   6.999   9.244
31055WAT     H193407   1.905   6.908   9.285
31055WAT     H293408   1.990   7.038   9.234
31056WAT      O93409   6.145   2.306   3.960
31056WAT     H193410   6.235   2.291   3.921
31056WAT     H293411   6.076   2.259   3.905
31057WAT      O93412   4.552   7.791   1.990
31057WAT     H193413   4.508   7.768   2.077
31057WAT     H293414   4.652   7.786   2.001
31058WAT      O93415   6.656   9.078   3.561
31058WAT     H193416   6.560   9.066   3.536
31058WAT     H293417   6.669   9.052   3.657
31059WAT      O93418   6.700   4.153   7.747
31059WAT     H193419   6.640   4.135   7.669
31059WAT     H293420   6.709   4.252   7.760
31060WAT      O93421   2.615   7.059   9.330
31060WAT     H193422   2.518   7.054   9.355
31060WAT     H293423   2.666   6.992   9.384
31061WAT      O93424   0.428   8.464   5.013
31061WAT     H193425   0.476   8.385   5.050
31061WAT     H293426   0.332   8.460   5.041
31062WAT      O93427   3.084   8.693   9.561
31062WAT     H193428   3.086   8.783   9.605
31062WAT     H293429   3.055   8.703   9.466
31063WAT      O93430   3.330   5.311   7.333
31063WAT     H193431   3.329   5.219   7.372
31063WAT     H293432   3.246   5.359   7.359
31064WAT      O93433   4.186   7.622   1.369
31064WAT     H193434   4.222   7.713   1.351
31064WAT     H293435   4.171   7.573   1.283
31065WAT      O93436   3.779   2.033   2.415
31065WAT     H193437   3.763   1.947   2.367
31065WAT     H293438   3.770   2.017   2.514
31066WAT      O93439   8.998   8.297   7.782
31066WAT     H193440   8.985   8.275   7.879
31066WAT     H293441   8.942   8.236   7.726
31067WAT      O93442   1.868   7.357   5.535
31067WAT     H193443   1.853   7.456   5.529
31067WAT     H293444   1.784   7.309   5.510
31068WAT      O93445   5.026   9.833   7.186
31068WAT     H193446   5.013   9.931   7.170
31068WAT     H293447   5.074   9.792   7.109
31069WAT      O93448   4.521   7.258   2.761
31069WAT     H193449   4.563   7.262   2.851
31069WAT     H293450   4.455   7.182   2.758
31070WAT      O93451   9.166   9.333   1.679
31070WAT     H193452   9.261   9.328   1.648
31070WAT     H293453   9.115   9.255   1.643
31071WAT      O93454   0.557   4.116   4.124
31071WAT     H193455   0.615   4.182   4.171
31071WAT     H293456   0.549   4.141   4.028
31072WAT      O93457   4.507   9.110   4.322
31072WAT     H193458   4.423   9.066   4.352
31072WAT     H293459   4.485   9.181   4.255
31073WAT      O93460   9.511   7.007   1.144
31073WAT     H193461   9.556   6.936   1.089
31073WAT     H293462   9.557   7.095   1.128
31074WAT      O93463   0.936   2.945   1.256
31074WAT     H193464   0.902   2.873   1.316
31074WAT     H293465   0.859   2.990   1.211
31075WAT      O93466   7.656   9.131   8.958
31075WAT     H193467   7.684   9.217   8.914
31075WAT     H293468   7.584   9.088   8.904
31076WAT      O93469   8.984   4.109   7.525
31076WAT     H193470   8.956   4.019   7.492
31076WAT     H293471   8.927   4.135   7.603
31077WAT      O93472   5.706   5.412   8.897
31077WAT     H193473   5.749   5.454   8.817
31077WAT     H293474   5.607   5.412   8.887
31078WAT      O93475   1.091   6.678   0.685
31078WAT     H193476   0.992   6.691   0.679
31078WAT     H293477   1.111   6.610   0.755
31079WAT      O93478   9.837   4.772   4.779
31079WAT     H193479   9.853   4.673   4.770
31079WAT     H293480   9.896   4.808   4.852
31080WAT      O93481   2.346   4.592   8.600
31080WAT     H193482   2.272   4.583   8.667
31080WAT     H293483   2.363   4.689   8.582
31081WAT      O93484   3.060   6.861   5.036
31081WAT     H193485   3.154   6.826   5.042
31081WAT     H293486   2.996   6.785   5.037
31082WAT      O93487   2.688   9.816   1.552
31082WAT     H193488   2.746   9.747   1.509
31082WAT     H293489   2.598   9.816   1.509
31083WAT      O93490   6.923   5.980   6.375
31083WAT     H193491   6.886   5.933   6.295
31083WAT     H293492   6.968   6.065   6.347
31084WAT      O93493   8.008   7.830   4.165
31084WAT     H193494   8.033   7.759   4.099
31084WAT     H293495   7.928   7.800   4.217
31085WAT      O93496   9.671   8.199   2.966
31085WAT     H193497   9.664   8.105   3.000
31085WAT     H293498   9.767   8.224   2.957
31086WAT      O93499   1.844   0.715   6.046
31086WAT     H193500   1.935   0.753   6.030
31086WAT     H293501   1.852   0.620   6.076
31087WAT      O93502   6.440   5.541   3.335
31087WAT     H193503   6.441   5.459   3.278
31087WAT     H293504   6.533   5.575   3.347
31088WAT      O93505   3.190   7.305   3.813
31088WAT     H193506   3.229   7.285   3.724
31088WAT     H293507   3.213   7.399   3.839
31089WAT      O93508   0.204   9.729   5.372
31089WAT     H193509   0.284   9.709   5.315
31089WAT     H293510   0.145   9.649   5.375
31090WAT      O93511   6.766   7.762   1.532
31090WAT     H193512   6.850   7.720   1.498
31090WAT     H293513   6.690   7.698   1.521
31091WAT      O93514   3.453   1.181   8.548
31091WAT     H193515   3.467   1.082   8.550
31091WAT     H293516   3.397   1.208   8.626
31092WAT      O93517   3.802   4.546   7.088
31092WAT     H193518   3.757   4.539   6.999
31092WAT     H293519   3.896   4.577   7.076
31093WAT      O93520   5.080   3.014   4.793
31093WAT     H193521   5.137   2.973   4.721
31093WAT     H293522   4.983   3.007   4.767
31094WAT      O93523   2.703   5.680   2.010
31094WAT     H193524   2.656   5.591   2.010
31094WAT     H293525   2.773   5.680   1.938
31095WAT      O93526   4.211   5.218   5.624
31095WAT     H193527   4.293   5.270   5.646
31095WAT     H293528   4.232   5.148   5.556
31096WAT      O93529   7.531   6.077   3.707
31096WAT     H193530   7.488   5.993   3.742
31096WAT     H293531   7.466   6.125   3.648
31097WAT      O93532   1.097   2.410   0.237
31097WAT     H193533   1.166   2.342   0.215
31097WAT     H293534   1.008   2.381   0.203
31098WAT      O93535   7.521   7.971   2.156
31098WAT     H193536   7.466   8.046   2.119
31098WAT     H293537   7.461   7.894   2.179
31099WAT      O93538   7.670   8.003   0.459
31099WAT     H193539   7.606   7.958   0.397
31099WAT     H293540   7.755   7.951   0.464
31100WAT      O93541   2.270   8.826   8.134
31100WAT     H193542   2.221   8.789   8.055
31100WAT     H293543   2.261   8.926   8.135
31101WAT      O93544   3.925   0.451   7.376
31101WAT     H193545   3.895   0.403   7.458
31101WAT     H293546   4.006   0.505   7.396
31102WAT      O93547   5.035   2.688   4.721
31102WAT     H193548   5.028   2.665   4.624
31102WAT     H293549   5.128   2.668   4.753
31103WAT      O93550   4.481   0.699   3.292
31103WAT     H193551   4.443   0.787   3.323
31103WAT     H293552   4.407   0.638   3.265
31104WAT      O93553   2.928   2.455   5.633
31104WAT     H193554   3.016   2.409   5.650
31104WAT     H293555   2.917   2.529   5.699
31105WAT      O93556   7.034   0.785   1.394
31105WAT     H193557   6.950   0.805   1.444
31105WAT     H293558   7.016   0.782   1.296
31106WAT      O93559   9.143   5.436   8.212
31106WAT     H193560   9.181   5.405   8.299
31106WAT     H293561   9.209   5.496   8.167
31107WAT      O93562   7.674   9.324   7.677
31107WAT     H193563   7.738   9.401   7.678
31107WAT     H293564   7.585   9.355   7.713
31108WAT      O93565   7.317   7.738   5.880
31108WAT     H193566   7.359   7.822   5.914
31108WAT     H293567   7.224   7.757   5.848
31109WAT      O93568   2.581   6.177   4.334
31109WAT     H193569   2.543   6.148   4.422
31109WAT     H293570   2.591   6.277   4.334
31110WAT      O93571   6.856   2.527   2.431
31110WAT     H193572   6.913   2.553   2.509
31110WAT     H293573   6.765   2.501   2.463
31111WAT      O93574   7.680   6.036   8.876
31111WAT     H193575   7.752   6.002   8.816
31111WAT     H293576   7.699   6.130   8.902
31112WAT      O93577   9.469   2.169   3.632
31112WAT     H193578   9.376   2.180   3.667
31112WAT     H293579   9.497   2.073   3.641
31113WAT      O93580   3.301   7.752   7.059
31113WAT     H193581   3.315   7.846   7.027
31113WAT     H293582   3.222   7.750   7.120
31114WAT      O93583   8.477   3.409   8.704
31114WAT     H193584   8.387   3.392   8.745
31114WAT     H293585   8.547   3.363   8.759
31115WAT      O93586   0.282   8.330   3.553
31115WAT     H193587   0.302   8.365   3.461
31115WAT     H293588   0.205   8.266   3.549
31116WAT      O93589   4.079   1.928   3.563
31116WAT     H193590   4.118   1.965   3.647
31116WAT     H293591   3.986   1.963   3.551
31117WAT      O93592   6.523   7.554   3.861
31117WAT     H193593   6.609   7.507   3.842
31117WAT     H293594   6.450   7.487   3.871
31118WAT      O93595   6.554   4.479   5.056
31118WAT     H193596   6.575   4.386   5.086
31118WAT     H293597   6.457   4.498   5.075
31119WAT      O93598   7.760   1.154   4.327
31119WAT     H193599   7.768   1.251   4.305
31119WAT     H293600   7.845   1.123   4.371
31120WAT      O93601   9.196   0.816   1.178
31120WAT     H193602   9.177   0.753   1.103
31120WAT     H293603   9.290   0.850   1.170
31121WAT      O93604   7.976   0.921   9.031
31121WAT     H193605   7.939   0.865   8.958
31121WAT     H293606   7.911   0.923   9.107
31122WAT      O93607   6.732   9.514   8.268
31122WAT     H193608   6.797   9.466   8.327
31122WAT     H293609   6.670   9.569   8.324
31123WAT      O93610   2.096   3.881   1.220
31123WAT     H193611   2.140   3.864   1.132
31123WAT     H293612   1.998   3.893   1.207
31124WAT      O93613   4.205   9.535   6.323
31124WAT     H193614   4.137   9.489   6.381
31124WAT     H293615   4.216   9.483   6.238
31125WAT      O93616   0.387   3.040   6.418
31125WAT     H193617   0.397   3.139   6.426
31125WAT     H293618   0.300   3.012   6.459
31126WAT      O93619   4.334   1.130   8.610
31126WAT     H193620   4.324   1.169   8.518
31126WAT     H293621   4.245   1.102   8.644
31127WAT      O93622   3.047   3.499   5.941
31127WAT     H193623   2.987   3.553   6.000
31127WAT     H293624   3.004   3.411   5.921
31128WAT      O93625   7.811   6.795   2.958
31128WAT     H193626   7.759   6.719   2.918
31128WAT     H293627   7.751   6.847   3.019
31129WAT      O93628   9.620   7.132   6.290
31129WAT     H193629   9.665   7.048   6.260
31129WAT     H293630   9.552   7.111   6.360
31130WAT      O93631   0.270   5.934   3.551
31130WAT     H193632   0.233   6.023   3.577
31130WAT     H293633   0.308   5.888   3.631
31131WAT      O93634   0.963   1.778   1.439
31131WAT     H193635   0.977   1.681   1.459
31131WAT     H293636   1.040   1.830   1.476
31132WAT      O93637   0.349   3.700   4.873
31132WAT     H193638   0.380   3.765   4.803
31132WAT     H293639   0.363   3.606   4.840
31133WAT      O93640   0.008   4.690   9.505
31133WAT     H193641   0.061   4.629   9.564
31133WAT     H293642  -0.079   4.713   9.550
31134WAT      O93643   8.078   8.038   6.158
31134WAT     H193644   8.019   7.967   6.197
31134WAT     H293645   8.114   8.008   6.070
31135WAT      O93646   0.545   6.025   8.200
31135WAT     H193647   0.618   5.962   8.228
31135WAT     H293648   0.482   6.039   8.276
31136WAT      O93649   2.303   8.112   3.009
31136WAT     H193650   2.263   8.046   3.072
31136WAT     H293651   2.253   8.199   3.017
31137WAT      O93652   6.843   4.757   7.766
31137WAT     H193653   6.807   4.720   7.680
31137WAT     H293654   6.802   4.708   7.843
31138WAT      O93655   8.643   2.232   8.811
31138WAT     H193656   8.592   2.318   8.816
31138WAT     H293657   8.653   2.193   8.902
31139WAT      O93658   7.978   5.846   3.266
31139WAT     H193659   8.004   5.790   3.188
31139WAT     H293660   7.880   5.832   3.286
31140WAT      O93661   8.726   0.397   8.333
31140WAT     H193662   8.817   0.360   8.309
31140WAT     H293663   8.703   0.371   8.427
31141WAT      O93664   5.244   9.038   3.777
31141WAT     H193665   5.277   9.012   3.868
31141WAT     H293666   5.305   9.002   3.707
31142WAT      O93667   2.210   5.887   2.094
31142WAT     H193668   2.173   5.931   2.012
31142WAT     H293669   2.287   5.942   2.128
31143WAT      O93670   2.897   6.750   0.679
31143WAT     H193671   2.900   6.650   0.674
31143WAT     H293672   2.989   6.787   0.663
31144WAT      O93673   4.855   0.638   6.050
31144WAT     H193674   4.899   0.726   6.033
31144WAT     H293675   4.826   0.633   6.145
31145WAT      O93676   7.987   2.190   1.567
31145WAT     H193677   7.999   2.245   1.484
31145WAT     H293678   8.076   2.154   1.596
31146WAT      O93679   1.263   6.292   6.327
31146WAT     H193680   1.304   6.381   6.308
31146WAT     H293681   1.196   6.270   6.255
31147WAT      O93682   1.756   9.730   5.645
31147WAT     H193683   1.798   9.685   5.566
31147WAT     H293684   1.718   9.661   5.706
31148WAT      O93685   6.247   9.602   6.139
31148WAT     H193686   6.280   9.695   6.158
31148WAT     H293687   6.323   9.538   6.146
31149WAT      O93688   0.084   7.904   6.607
31149WAT     H193689   0.176   7.899   6.647
31149WAT     H293690   0.020   7.855   6.665
31150WAT      O93691   8.979   2.968   8.418
31150WAT     H193692   8.987   2.898   8.347
31150WAT     H293693   9.069   3.008   8.435
31151WAT      O93694   1.903   8.459   2.053
31151WAT     H193695   1.942   8.437   2.143
31151WAT     H293696   1.976   8.491   1.993
31152WAT      O93697   1.761   8.554   7.551
31152WAT     H193698   1.851   8.592   7.531
31152WAT     H293699   1.706   8.550   7.468
31153WAT      O93700   8.811   7.312   4.424
31153WAT     H193701   8.841   7.266   4.340
31153WAT     H293702   8.776   7.403   4.401
31154WAT      O93703   9.376   8.946   9.234
31154WAT     H193704   9.296   8.956   9.175
31154WAT     H293705   9.456   8.923   9.179
31155WAT      O93706   4.916   0.471   8.690
31155WAT     H193707   4.874   0.422   8.613
31155WAT     H293708   4.859   0.459   8.771
31156WAT      O93709   1.589   5.014   4.348
31156WAT     H193710   1.581   5.060   4.260
31156WAT     H293711   1.564   5.077   4.422
31157WAT      O93712   1.200   4.011   2.453
31157WAT     H193713   1.251   4.002   2.539
31157WAT     H293714   1.262   4.041   2.380
31158WAT      O93715   1.426   5.353   7.487
31158WAT     H193716   1.516   5.329   7.450
31158WAT     H293717   1.411   5.451   7.475
31159WAT      O93718   5.713   1.931   8.541
31159WAT     H193719   5.810   1.910   8.527
31159WAT     H293720   5.680   1.987   8.466
31160WAT      O93721   7.719   3.689   7.893
31160WAT     H193722   7.681   3.760   7.834
31160WAT     H293723   7.662   3.680   7.975
31161WAT      O93724   3.146   6.086   7.966
31161WAT     H193725   3.162   6.161   7.901
31161WAT     H293726   3.122   6.003   7.915
31162WAT      O93727   1.823   1.493   5.323
31162WAT     H193728   1.889   1.565   5.345
31162WAT     H293729   1.867   1.424   5.265
31163WAT      O93730   0.191   6.290   0.393
31163WAT     H193731   0.099   6.330   0.396
31163WAT     H293732   0.244   6.322   0.471
31164WAT      O93733   2.971   1.520   3.520
31164WAT     H193734   2.881   1.564   3.521
31164WAT     H293735   2.988   1.481   3.429
31165WAT      O93736   8.247   4.707   5.318
31165WAT     H193737   8.241   4.807   5.318
31165WAT     H293738   8.155   4.668   5.312
31166WAT      O93739   2.773   4.791   3.158
31166WAT     H193740   2.852   4.817   3.214
31166WAT     H293741   2.709   4.737   3.213
31167WAT      O93742   9.159   4.887   1.368
31167WAT     H193743   9.124   4.799   1.399
31167WAT     H293744   9.208   4.875   1.281
31168WAT      O93745   3.698   9.452   0.054
31168WAT     H193746   3.673   9.359   0.026
31168WAT     H293747   3.722   9.506  -0.027
31169WAT      O93748   9.581   9.607   2.983
31169WAT     H193749   9.670   9.571   3.010
31169WAT     H293750   9.563   9.692   3.031
31170WAT      O93751   6.799   7.659   5.641
31170WAT     H193752   6.733   7.730   5.618
31170WAT     H293753   6.825   7.667   5.737
31171WAT      O93754   7.521   2.166   3.994
31171WAT     H193755   7.615   2.199   3.995
31171WAT     H293756   7.489   2.158   3.899
31172WAT      O93757   9.493   2.999   6.250
31172WAT     H193758   9.424   2.955   6.192
31172WAT     H293759   9.527   3.081   6.204
31173WAT      O93760   8.926   7.148   6.271
31173WAT     H193761   8.924   7.244   6.242
31173WAT     H293762   9.008   7.104   6.233
31174WAT      O93763   4.286   2.702   1.653
31174WAT     H193764   4.296   2.603   1.668
31174WAT     H293765   4.203   2.719   1.601
31175WAT      O93766   1.830   9.328   2.691
31175WAT     H193767   1.837   9.356   2.595
31175WAT     H293768   1.908   9.269   2.714
31176WAT      O93769   6.329   8.977   2.571
31176WAT     H193770   6.349   8.886   2.605
31176WAT     H293771   6.233   8.983   2.543
31177WAT      O93772   9.753   1.837   4.192
31177WAT     H193773   9.795   1.793   4.271
31177WAT     H293774   9.783   1.791   4.108
31178WAT      O93775   6.403   8.511   3.326
31178WAT     H193776   6.466   8.589   3.327
31178WAT     H293777   6.381   8.488   3.231
31179WAT      O93778   5.112   0.610   1.279
31179WAT     H193779   5.015   0.600   1.302
31179WAT     H293780   5.132   0.706   1.261
31180WAT      O93781   0.191   5.084   8.991
31180WAT     H193782   0.272   5.049   9.037
31180WAT     H293783   0.120   5.105   9.058
31181WAT      O93784   8.804   6.296   8.696
31181WAT     H193785   8.763   6.237   8.766
31181WAT     H293786   8.801   6.391   8.727
31182WAT      O93787   6.248   8.930   1.630
31182WAT     H193788   6.200   8.967   1.710
31182WAT     H293789   6.333   8.886   1.660
31183WAT      O93790   8.239   3.194   1.185
31183WAT     H193791   8.238   3.180   1.086
31183WAT     H293792   8.159   3.248   1.212
31184WAT      O93793   8.593   6.713   2.470
31184WAT     H193794   8.569   6.809   2.484
31184WAT     H293795   8.589   6.665   2.557
31185WAT      O93796   9.040   6.905   7.929
31185WAT     H193797   9.082   6.889   8.018
31185WAT     H293798   9.111   6.906   7.858
31186WAT      O93799   2.152   7.620   2.283
31186WAT     H193800   2.112   7.603   2.194
31186WAT     H293801   2.101   7.570   2.353
31187WAT      O93802   1.582   3.241   3.381
31187WAT     H193803   1.507   3.236   3.315
31187WAT     H293804   1.630   3.153   3.384
31188WAT      O93805   2.688   2.755   6.222
31188WAT     H193806   2.615   2.723   6.282
31188WAT     H293807   2.690   2.698   6.139
31189WAT      O93808   5.194   4.244   1.006
31189WAT     H193809   5.140   4.311   1.057
31189WAT     H293810   5.235   4.179   1.070
31190WAT      O93811   3.757   0.172   1.054
31190WAT     H193812   3.754   0.237   0.978
31190WAT     H293813   3.689   0.100   1.039
31191WAT      O93814   1.945   4.653   4.535
31191WAT     H193815   2.028   4.658   4.590
31191WAT     H293816   1.960   4.589   4.459
31192WAT      O93817   7.634   2.909   2.433
31192WAT     H193818   7.657   2.987   2.491
31192WAT     H293819   7.542   2.922   2.395
31193WAT      O93820   2.703   7.260   5.762
31193WAT     H193821   2.788   7.219   5.794
31193WAT     H293822   2.705   7.268   5.663
31194WAT      O93823   3.232   1.798   7.435
31194WAT     H193824   3.272   1.832   7.350
31194WAT     H293825   3.304   1.780   7.502
31195WAT      O93826   7.080   6.960   8.155
31195WAT     H193827   7.119   6.961   8.247
31195WAT     H293828   6.989   7.001   8.157
31196WAT      O93829   7.966   1.073   5.622
31196WAT     H193830   8.039   1.131   5.658
31196WAT     H293831   7.885   1.129   5.605
31197WAT      O93832   6.364   1.137   6.921
31197WAT     H193833   6.375   1.208   6.852
31197WAT     H293834   6.437   1.144   6.988
31198WAT      O93835   7.976   3.217   6.048
31198WAT     H193836   8.049   3.152   6.068
31198WAT     H293837   8.015   3.307   6.029
31199WAT      O93838   1.197   2.576   2.903
31199WAT     H193839   1.219   2.517   2.981
31199WAT     H293840   1.279   2.591   2.848
31200WAT      O93841   0.857   9.428   8.323
31200WAT     H193842   0.797   9.508   8.331
31200WAT     H293843   0.952   9.456   8.341
31201WAT      O93844   6.324   5.453   5.134
31201WAT     H193845   6.254   5.466   5.064
31201WAT     H293846   6.307   5.517   5.209
31202WAT      O93847   7.321   5.306   8.515
31202WAT     H193848   7.360   5.390   8.553
31202WAT     H293849   7.360   5.227   8.564
31203WAT      O93850   1.060   6.301   1.495
31203WAT     H193851   1.068   6.401   1.497
31203WAT     H293852   1.145   6.260   1.530
31204WAT      O93853   3.191   1.391   5.857
31204WAT     H193854   3.192   1.485   5.822
31204WAT     H293855   3.152   1.330   5.788
31205WAT      O93856   6.341   3.020   8.846
31205WAT     H193857   6.328   3.110   8.805
31205WAT     H293858   6.311   3.022   8.942
31206WAT      O93859   2.679   0.808   8.767
31206WAT     H193860   2.686   0.898   8.811
31206WAT     H293861   2.585   0.793   8.737
31207WAT      O93862   4.271   4.032   6.086
31207WAT     H193863   4.271   3.957   6.020
31207WAT     H293864   4.180   4.071   6.092
31208WAT      O93865   4.011   5.684   7.190
31208WAT     H193866   4.064   5.745   7.130
31208WAT     H293867   3.923   5.664   7.147
31209WAT      O93868   8.970   3.710   9.894
31209WAT     H193869   9.013   3.628   9.856
31209WAT     H293870   9.034   3.786   9.889
31210WAT      O93871   7.627   8.745   8.524
31210WAT     H193872   7.620   8.668   8.587
31210WAT     H293873   7.710   8.797   8.543
31211WAT      O93874   4.938   0.859   2.800
31211WAT     H193875   4.890   0.775   2.826
31211WAT     H293876   4.901   0.936   2.853
31212WAT      O93877   9.013   2.876   4.135
31212WAT     H193878   8.921   2.863   4.098
31212WAT     H293879   9.075   2.905   4.062
31213WAT      O93880   7.151   6.157   9.767
31213WAT     H193881   7.195   6.075   9.730
31213WAT     H293882   7.128   6.219   9.692
31214WAT      O93883   3.816   8.535   1.268
31214WAT     H193884   3.784   8.600   1.200
31214WAT     H293885   3.769   8.448   1.255
31215WAT      O93886   9.634   5.992   7.836
31215WAT     H193887   9.580   6.072   7.811
31215WAT     H293888   9.716   5.988   7.778
31216WAT      O93889   8.958   9.698   4.462
31216WAT     H193890   8.966   9.719   4.560
31216WAT     H293891   8.879   9.638   4.448
31217WAT      O93892   2.369   7.138   6.564
31217WAT     H193893   2.371   7.099   6.656
31217WAT     H293894   2.460   7.134   6.523
31218WAT      O93895   5.402   6.278   0.284
31218WAT     H193896   5.382   6.343   0.357
31218WAT     H293897   5.394   6.185   0.320
31219WAT      O93898   1.405   7.899   2.963
31219WAT     H193899   1.349   7.978   2.986
31219WAT     H293900   1.364   7.817   3.003
31220WAT      O93901   2.483   6.493   0.803
31220WAT     H193902   2.443   6.411   0.763
31220WAT     H293903   2.494   6.563   0.732
31221WAT      O93904   8.813   3.543   6.659
31221WAT     H193905   8.886   3.578   6.601
31221WAT     H293906   8.746   3.495   6.602
31222WAT      O93907   8.069   3.596   0.143
31222WAT     H193908   8.160   3.571   0.176
31222WAT     H293909   8.027   3.516   0.100
31223WAT      O93910   1.694   5.645   5.390
31223WAT     H193911   1.669   5.709   5.317
31223WAT     H293912   1.621   5.643   5.459
31224WAT      O93913   3.654   4.151   2.601
31224WAT     H193914   3.585   4.172   2.532
31224WAT     H293915   3.710   4.233   2.617
31225WAT      O93916   7.526   9.213   1.595
31225WAT     H193917   7.617   9.253   1.580
31225WAT     H293918   7.534   9.113   1.599
31226WAT      O93919   4.491   7.271   8.403
31226WAT     H193920   4.494   7.370   8.412
31226WAT     H293921   4.584   7.235   8.394
31227WAT      O93922   6.668   0.019   4.921
31227WAT     H193923   6.673   0.056   5.013
31227WAT     H293924   6.588  -0.041   4.913
31228WAT      O93925   0.644   4.663   3.137
31228WAT     H193926   0.547   4.676   3.159
31228WAT     H293927   0.655   4.575   3.091
31229WAT      O93928   7.323   4.482   6.824
31229WAT     H193929   7.418   4.454   6.811
31229WAT     H293930   7.266   4.400   6.835
31230WAT      O93931   6.852   9.712   5.530
31230WAT     H193932   6.854   9.774   5.608
31230WAT     H293933   6.898   9.754   5.452
31231WAT      O93934   1.348   4.554   3.038
31231WAT     H193935   1.364   4.490   2.963
31231WAT     H293936   1.413   4.630   3.031
31232WAT      O93937   8.448   0.318   3.399
31232WAT     H193938   8.464   0.226   3.435
31232WAT     H293939   8.452   0.384   3.474
31233WAT      O93940   5.480   8.942   0.726
31233WAT     H193941   5.470   8.960   0.824
31233WAT     H293942   5.574   8.916   0.707
31234WAT      O93943   6.326   1.647   8.243
31234WAT     H193944   6.304   1.692   8.329
31234WAT     H293945   6.404   1.587   8.254
31235WAT      O93946   9.810   2.893   0.985
31235WAT     H193947   9.775   2.883   0.892
31235WAT     H293948   9.878   2.966   0.987
31236WAT      O93949   7.955   4.884   8.167
31236WAT     H193950   7.924   4.801   8.214
31236WAT     H293951   7.968   4.864   8.070
31237WAT      O93952   5.205   8.311   4.932
31237WAT     H193953   5.190   8.256   5.014
31237WAT     H293954   5.302   8.312   4.909
31238WAT      O93955   2.720   0.541   4.091
31238WAT     H193956   2.729   0.617   4.027
31238WAT     H293957   2.811   0.515   4.125
31239WAT      O93958   5.607   6.400   3.510
31239WAT     H193959   5.582   6.315   3.556
31239WAT     H293960   5.597   6.389   3.411
31240WAT      O93961   6.370   4.537   7.523
31240WAT     H193962   6.425   4.523   7.440
31240WAT     H293963   6.393   4.466   7.590
31241WAT      O93964   1.176   5.087   3.437
31241WAT     H193965   1.116   5.168   3.437
31241WAT     H293966   1.122   5.006   3.459
31242WAT      O93967   8.985   1.707   3.952
31242WAT     H193968   9.051   1.741   4.018
31242WAT     H293969   9.012   1.616   3.922
31243WAT      O93970   0.926   3.810   8.752
31243WAT     H193971   0.861   3.734   8.741
31243WAT     H293972   0.942   3.827   8.849
31244WAT      O93973   5.103   0.891   1.257
31244WAT     H193974   5.065   0.902   1.165
31244WAT     H293975   5.170   0.963   1.274
31245WAT      O93976   8.709   2.183   3.313
31245WAT     H193977   8.791   2.130   3.331
31245WAT     H293978   8.688   2.240   3.392
31246WAT      O93979   3.306   0.672   1.682
31246WAT     H193980   3.334   0.763   1.651
31246WAT     H293981   3.208   0.672   1.701
31247WAT      O93982   0.804   3.079   8.206
31247WAT     H193983   0.849   3.020   8.139
31247WAT     H293984   0.752   3.023   8.270
31248WAT      O93985   0.674   7.210   6.532
31248WAT     H193986   0.749   7.219   6.598
31248WAT     H293987   0.677   7.118   6.491
31249WAT      O93988   1.949   5.473   4.288
31249WAT     H193989   1.900   5.544   4.237
31249WAT     H293990   1.988   5.407   4.224
31250WAT      O93991   2.162   3.460   0.483
31250WAT     H193992   2.195   3.513   0.405
31250WAT     H293993   2.185   3.363   0.471
31251WAT      O93994   3.407   6.744   1.731
31251WAT     H193995   3.337   6.749   1.802
31251WAT     H293996   3.410   6.651   1.694
31252WAT      O93997   7.507   5.876   4.107
31252WAT     H193998   7.415   5.867   4.071
31252WAT     H293999   7.529   5.973   4.119
31253WAT      O94000   1.695   4.168   3.924
31253WAT     H194001   1.699   4.198   4.019
31253WAT     H294002   1.634   4.089   3.917
31254WAT      O94003   3.814   8.358   4.460
31254WAT     H194004   3.776   8.448   4.483
31254WAT     H294005   3.873   8.366   4.379
31255WAT      O94006   8.088   2.377   6.773
31255WAT     H194007   8.075   2.303   6.708
31255WAT     H294008   8.013   2.376   6.840
31256WAT      O94009   9.391   6.435   7.329
31256WAT     H194010   9.491   6.434   7.333
31256WAT     H294011   9.361   6.405   7.238
31257WAT      O94012   6.329   1.825   4.837
31257WAT     H194013   6.379   1.761   4.896
31257WAT     H294014   6.362   1.815   4.743
31258WAT      O94015   0.137   0.346   3.190
31258WAT     H194016   0.038   0.335   3.184
31258WAT     H294017   0.162   0.441   3.174
31259WAT      O94018   8.587   4.493   1.724
31259WAT     H194019   8.629   4.450   1.644
31259WAT     H294020   8.604   4.436   1.805
31260WAT      O94021   3.309   6.659   2.418
31260WAT     H194022   3.272   6.629   2.506
31260WAT     H294023   3.395   6.613   2.400
31261WAT      O94024   2.289   4.067   9.733
31261WAT     H194025   2.364   4.130   9.753
31261WAT     H294026   2.312   4.013   9.652
31262WAT      O94027   1.640   8.998   2.485
31262WAT     H194028   1.595   9.038   2.565
31262WAT     H294029   1.685   9.070   2.433
31263WAT      O94030   9.722   3.521   9.626
31263WAT     H194031   9.632   3.500   9.587
31263WAT     H294032   9.793   3.495   9.561
31264WAT      O94033   1.099   5.691   9.420
31264WAT     H194034   1.123   5.726   9.329
31264WAT     H294035   1.142   5.602   9.434
31265WAT      O94036   4.587   5.172   3.804
31265WAT     H194037   4.546   5.204   3.889
31265WAT     H294038   4.630   5.083   3.820
31266WAT      O94039   3.561   7.289   5.181
31266WAT     H194040   3.605   7.292   5.091
31266WAT     H294041   3.596   7.363   5.238
31267WAT      O94042   4.245   2.839   1.349
31267WAT     H194043   4.186   2.880   1.279
31267WAT     H294044   4.261   2.906   1.422
31268WAT      O94045   1.237   0.176   3.362
31268WAT     H194046   1.228   0.122   3.445
31268WAT     H294047   1.310   0.244   3.374
31269WAT      O94048   5.230   3.241   2.375
31269WAT     H194049   5.177   3.309   2.425
31269WAT     H294050   5.188   3.151   2.386
31270WAT      O94051   3.720   6.265   8.804
31270WAT     H194052   3.672   6.183   8.775
31270WAT     H294053   3.655   6.331   8.841
31271WAT      O94054   9.076   6.337   3.497
31271WAT     H194055   9.131   6.257   3.520
31271WAT     H294056   9.028   6.369   3.578
31272WAT      O94057   9.749   2.964   4.619
31272WAT     H194058   9.720   2.871   4.638
31272WAT     H294059   9.673   3.017   4.583
31273WAT      O94060   7.391   5.507   4.930
31273WAT     H194061   7.298   5.483   4.955
31273WAT     H294062   7.447   5.513   5.013
31274WAT      O94063   3.403   1.705   9.891
31274WAT     H194064   3.356   1.790   9.869
31274WAT     H294065   3.471   1.685   9.820
31275WAT      O94066   0.229   1.644   4.596
31275WAT     H194067   0.174   1.561   4.588
31275WAT     H294068   0.193   1.701   4.670
31276WAT      O94069   4.618   1.736   2.265
31276WAT     H194070   4.549   1.808   2.274
31276WAT     H294071   4.709   1.778   2.259
31277WAT      O94072   8.685   7.366   0.717
31277WAT     H194073   8.685   7.331   0.811
31277WAT     H294074   8.593   7.356   0.678
31278WAT      O94075   3.118   0.351   7.039
31278WAT     H194076   3.047   0.412   7.075
31278WAT     H294077   3.174   0.402   6.973
31279WAT      O94078   7.670   3.700   4.480
31279WAT     H194079   7.600   3.715   4.410
31279WAT     H294080   7.642   3.627   4.541
31280WAT      O94081   1.582   8.993   0.866
31280WAT     H194082   1.614   8.944   0.785
31280WAT     H294083   1.600   8.938   0.948
31281WAT      O94084   1.385   1.281   1.179
31281WAT     H194085   1.469   1.307   1.131
31281WAT     H294086   1.372   1.340   1.259
31282WAT      O94087   4.385   9.785   0.435
31282WAT     H194088   4.299   9.757   0.477
31282WAT     H294089   4.401   9.882   0.454
31283WAT      O94090   6.496   8.920   2.235
31283WAT     H194091   6.530   8.944   2.326
31283WAT     H294092   6.533   8.984   2.168
31284WAT      O94093   2.138   8.031   3.621
31284WAT     H194094   2.224   8.064   3.583
31284WAT     H294095   2.144   7.933   3.640
31285WAT      O94096   0.686   2.193   7.228
31285WAT     H194097   0.710   2.149   7.141
31285WAT     H294098   0.726   2.141   7.304
31286WAT      O94099   0.589   7.124   0.043
31286WAT     H194100   0.582   7.168   0.132
31286WAT     H294101   0.684   7.131   0.010
31287WAT      O94102   4.706   7.484   7.551
31287WAT     H194103   4.721   7.441   7.640
31287WAT     H294104   4.657   7.570   7.563
31288WAT      O94105   1.784   7.083   2.114
31288WAT     H194106   1.811   7.020   2.041
31288WAT     H294107   1.711   7.143   2.081
31289WAT      O94108   6.232   0.009   5.173
31289WAT     H194109   6.285  -0.039   5.244
31289WAT     H294110   6.295   0.059   5.114
31290WAT      O94111   3.890   5.203   1.733
31290WAT     H194112   3.933   5.182   1.644
31290WAT     H294113   3.799   5.241   1.718
31291WAT      O94114   7.220   2.645   1.656
31291WAT     H194115   7.187   2.688   1.572
31291WAT     H294116   7.300   2.695   1.690
31292WAT      O94117   6.563   9.518   5.938
31292WAT     H194118   6.537   9.472   5.853
31292WAT     H294119   6.539   9.459   6.015
31293WAT      O94120   7.916   2.701   5.827
31293WAT     H194121   7.992   2.721   5.764
31293WAT     H294122   7.925   2.759   5.908
31294WAT      O94123   9.688   9.395   6.753
31294WAT     H194124   9.673   9.446   6.668
31294WAT     H294125   9.606   9.400   6.810
31295WAT      O94126   7.763   5.393   7.015
31295WAT     H194127   7.807   5.303   7.012
31295WAT     H294128   7.831   5.463   6.993
31296WAT      O94129   0.913   0.365   2.601
31296WAT     H194130   0.987   0.383   2.666
31296WAT     H294131   0.945   0.298   2.533
31297WAT      O94132   9.848   7.639   1.509
31297WAT     H194133   9.843   7.694   1.426
31297WAT     H294134   9.778   7.568   1.506
31298WAT      O94135   2.042   2.509   4.351
31298WAT     H194136   2.037   2.412   4.378
31298WAT     H294137   1.971   2.528   4.283
31299WAT      O94138   5.319   8.493   8.909
31299WAT     H194139   5.220   8.494   8.891
31299WAT     H294140   5.354   8.586   8.902
31300WAT      O94141   3.780   6.551   5.175
31300WAT     H194142   3.734   6.623   5.123
31300WAT     H294143   3.836   6.496   5.114
31301WAT      O94144   0.121   1.706   8.293
31301WAT     H194145   0.060   1.748   8.360
31301WAT     H294146   0.075   1.629   8.249
31302WAT      O94147   3.653   8.816   7.043
31302WAT     H194148   3.624   8.740   7.101
31302WAT     H294149   3.736   8.791   6.994
31303WAT      O94150   6.283   2.703   5.074
31303WAT     H194151   6.299   2.794   5.113
31303WAT     H294152   6.353   2.640   5.108
31304WAT      O94153   0.991   5.789   7.448
31304WAT     H194154   0.924   5.714   7.445
31304WAT     H294155   0.979   5.840   7.533
31305WAT      O94156   5.684   2.574   4.007
31305WAT     H194157   5.616   2.553   4.078
31305WAT     H294158   5.707   2.671   4.010
31306WAT      O94159   6.273   5.171   8.820
31306WAT     H194160   6.364   5.131   8.821
31306WAT     H294161   6.273   5.257   8.870
31307WAT      O94162   8.611   8.541   5.522
31307WAT     H194163   8.524   8.518   5.565
31307WAT     H294164   8.599   8.548   5.423
31308WAT      O94165   7.773   6.891   4.326
31308WAT     H194166   7.739   6.945   4.250
31308WAT     H294167   7.855   6.841   4.297
31309WAT      O94168   3.178   4.373   6.616
31309WAT     H194169   3.200   4.390   6.712
31309WAT     H294170   3.262   4.374   6.562
31310WAT      O94171   1.213   1.970   3.766
31310WAT     H194172   1.152   2.022   3.706
31310WAT     H294173   1.280   2.031   3.807
31311WAT      O94174   2.923   4.343   4.954
31311WAT     H194175   2.879   4.337   5.044
31311WAT     H294176   2.856   4.321   4.883
31312WAT      O94177   6.446   5.329   3.165
31312WAT     H194178   6.372   5.297   3.107
31312WAT     H294179   6.472   5.257   3.229
31313WAT      O94180   6.810   5.084   0.836
31313WAT     H194181   6.772   5.176   0.843
31313WAT     H294182   6.861   5.075   0.751
31314WAT      O94183   2.731   3.898   7.457
31314WAT     H194184   2.648   3.869   7.411
31314WAT     H294185   2.739   3.851   7.545
31315WAT      O94186   3.975   1.659   2.869
31315WAT     H194187   3.899   1.605   2.905
31315WAT     H294188   4.060   1.633   2.914
31316WAT      O94189   1.014   8.428   5.504
31316WAT     H194190   0.969   8.416   5.416
31316WAT     H294191   1.090   8.363   5.511
31317WAT      O94192   7.782   2.848   4.325
31317WAT     H194193   7.875   2.879   4.306
31317WAT     H294194   7.768   2.845   4.424
31318WAT      O94195   2.976   3.951   9.321
31318WAT     H194196   3.022   3.862   9.332
31318WAT     H294197   2.927   3.973   9.405
31319WAT      O94198   5.729   4.887   8.154
31319WAT     H194199   5.722   4.974   8.203
31319WAT     H294200   5.672   4.819   8.200
31320WAT      O94201   2.618   5.976   0.267
31320WAT     H194202   2.609   5.969   0.366
31320WAT     H294203   2.600   5.888   0.224
31321WAT      O94204   4.141   1.301   5.056
31321WAT     H194205   4.153   1.217   5.108
31321WAT     H294206   4.144   1.281   4.958
31322WAT      O94207   3.637   8.490   9.860
31322WAT     H194208   3.620   8.507   9.957
31322WAT     H294209   3.735   8.481   9.844
31323WAT      O94210   7.863   6.134   6.064
31323WAT     H194211   7.803   6.092   6.132
31323WAT     H294212   7.835   6.229   6.049
31324WAT      O94213   1.351   4.231   9.368
31324WAT     H194214   1.316   4.141   9.344
31324WAT     H294215   1.274   4.294   9.381
31325WAT      O94216   0.609   0.517   1.622
31325WAT     H194217   0.686   0.453   1.626
31325WAT     H294218   0.561   0.517   1.710
31326WAT      O94219   7.737   0.550   3.662
31326WAT     H194220   7.810   0.589   3.718
31326WAT     H294221   7.740   0.589   3.570
31327WAT      O94222   2.495   3.363   7.179
31327WAT     H194223   2.445   3.390   7.261
31327WAT     H294224   2.447   3.395   7.098
31328WAT      O94225   6.095   1.668   9.065
31328WAT     H194226   6.151   1.718   9.131
31328WAT     H294227   6.120   1.698   8.972
31329WAT      O94228   4.706   1.929   2.561
31329WAT     H194229   4.745   1.924   2.468
31329WAT     H294230   4.680   1.837   2.590
31330WAT      O94231   7.653   3.390   1.292
31330WAT     H194232   7.674   3.392   1.194
31330WAT     H294233   7.616   3.479   1.320
31331WAT      O94234   5.288   4.755   4.727
31331WAT     H194235   5.245   4.842   4.750
31331WAT     H294236   5.387   4.764   4.732
31332WAT      O94237   8.043   2.069   7.130
31332WAT     H194238   8.051   1.971   7.145
31332WAT     H294239   8.123   2.103   7.080
31333WAT      O94240   0.285   8.609   1.964
31333WAT     H194241   0.230   8.562   1.894
31333WAT     H294242   0.319   8.542   2.029
31334WAT      O94243   6.873   8.301   7.091
31334WAT     H194244   6.792   8.244   7.079
31334WAT     H294245   6.871   8.345   7.181
31335WAT      O94246   2.679   9.372   0.076
31335WAT     H194247   2.764   9.344   0.121
31335WAT     H294248   2.661   9.311  -0.001
31336WAT      O94249   9.738   6.634   2.402
31336WAT     H194250   9.734   6.708   2.335
31336WAT     H294251   9.736   6.672   2.494
31337WAT      O94252   7.432   2.721   1.802
31337WAT     H194253   7.401   2.767   1.885
31337WAT     H294254   7.525   2.686   1.816
31338WAT      O94255   6.879   7.106   9.304
31338WAT     H194256   6.811   7.153   9.248
31338WAT     H294257   6.834   7.059   9.379
31339WAT      O94258   0.426   5.837   9.129
31339WAT     H194259   0.362   5.863   9.201
31339WAT     H294260   0.446   5.917   9.072
31340WAT      O94261   7.734   0.040   1.247
31340WAT     H194262   7.668  -0.023   1.206
31340WAT     H294263   7.720   0.132   1.210
31341WAT      O94264   1.589   0.799   8.282
31341WAT     H194265   1.619   0.790   8.188
31341WAT     H294266   1.619   0.887   8.319
31342WAT      O94267   9.294   2.719   1.446
31342WAT     H194268   9.357   2.769   1.386
31342WAT     H294269   9.297   2.622   1.424
31343WAT      O94270   2.247   1.929   1.115
31343WAT     H194271   2.318   1.863   1.139
31343WAT     H294272   2.179   1.885   1.056
31344WAT      O94273   0.836   6.304   2.935
31344WAT     H194274   0.777   6.231   2.901
31344WAT     H294275   0.781   6.387   2.950
31345WAT      O94276   0.436   9.575   5.321
31345WAT     H194277   0.497   9.522   5.380
31345WAT     H294278   0.478   9.664   5.301
31346WAT      O94279   9.097   7.196   7.556
31346WAT     H194280   9.124   7.107   7.519
31346WAT     H294281   9.038   7.181   7.636
31347WAT      O94282   7.936   0.960   9.474
31347WAT     H194283   7.992   0.891   9.519
31347WAT     H294284   7.994   1.035   9.442
31348WAT      O94285   1.657   5.115   6.715
31348WAT     H194286   1.559   5.092   6.712
31348WAT     H294287   1.698   5.098   6.626
31349WAT      O94288   4.481   0.653   0.842
31349WAT     H194289   4.568   0.611   0.866
31349WAT     H294290   4.408   0.586   0.852
31350WAT      O94291   6.142   0.236   7.540
31350WAT     H194292   6.207   0.172   7.499
31350WAT     H294293   6.156   0.239   7.639
31351WAT      O94294   2.046   9.204   0.008
31351WAT     H194295   1.962   9.205   0.063
31351WAT     H294296   2.024   9.171  -0.084
31352WAT      O94297   2.326   7.449   6.123
31352WAT     H194298   2.409   7.411   6.164
31352WAT     H294299   2.331   7.440   6.024
31353WAT      O94300   1.244   6.291   0.222
31353WAT     H194301   1.294   6.207   0.199
31353WAT     H294302   1.293   6.370   0.186
31354WAT      O94303   8.681   5.007   1.066
31354WAT     H194304   8.685   4.982   1.162
31354WAT     H294305   8.668   5.106   1.057
31355WAT      O94306   3.295   3.664   2.013
31355WAT     H194307   3.224   3.650   2.081
31355WAT     H294308   3.347   3.747   2.035
31356WAT      O94309   8.352   1.539   4.228
31356WAT     H194310   8.422   1.468   4.242
31356WAT     H294311   8.395   1.619   4.186
31357WAT      O94312   0.137   2.380   4.796
31357WAT     H194313   0.204   2.432   4.742
31357WAT     H294314   0.124   2.291   4.754
31358WAT      O94315   7.319   9.334   4.928
31358WAT     H194316   7.351   9.393   5.002
31358WAT     H294317   7.291   9.390   4.850
31359WAT      O94318   3.229   7.416   1.094
31359WAT     H194319   3.214   7.380   1.186
31359WAT     H294320   3.148   7.398   1.038
31360WAT      O94321   6.522   8.183   3.147
31360WAT     H194322   6.489   8.108   3.090
31360WAT     H294323   6.488   8.270   3.110
31361WAT      O94324   8.675   2.806   5.099
31361WAT     H194325   8.750   2.862   5.066
31361WAT     H294326   8.592   2.861   5.106
31362WAT      O94327   8.105   0.451   6.998
31362WAT     H194328   8.176   0.436   6.928
31362WAT     H294329   8.024   0.397   6.976
31363WAT      O94330   7.038   4.253   8.562
31363WAT     H194331   7.106   4.199   8.513
31363WAT     H294332   7.076   4.343   8.583
31364WAT      O94333   7.910   5.742   1.070
31364WAT     H194334   7.856   5.751   1.154
31364WAT     H294335   7.960   5.656   1.071
31365WAT      O94336   2.228   8.003   4.363
31365WAT     H194337   2.318   7.987   4.401
31365WAT     H294338   2.159   7.997   4.436
31366WAT      O94339   2.155   1.458   6.314
31366WAT     H194340   2.086   1.396   6.279
31366WAT     H294341   2.225   1.473   6.245
31367WAT      O94342   0.135   4.614   5.154
31367WAT     H194343   0.115   4.548   5.081
31367WAT     H294344   0.140   4.565   5.241
31368WAT      O94345   1.646   4.965   0.222
31368WAT     H194346   1.556   4.967   0.265
31368WAT     H294347   1.649   4.891   0.154
31369WAT      O94348   5.250   0.832   0.366
31369WAT     H194349   5.173   0.885   0.330
31369WAT     H294350   5.283   0.874   0.450
31370WAT      O94351   4.209   8.793   3.105
31370WAT     H194352   4.282   8.725   3.102
31370WAT     H294353   4.156   8.789   3.020
31371WAT      O94354   8.515   9.335   2.212
31371WAT     H194355   8.583   9.339   2.139
31371WAT     H294356   8.425   9.315   2.172
31372WAT      O94357   4.211   7.427   7.346
31372WAT     H194358   4.201   7.388   7.438
31372WAT     H294359   4.299   7.474   7.339
31373WAT      O94360   0.165   6.321   9.378
31373WAT     H194361   0.094   6.358   9.318
31373WAT     H294362   0.216   6.396   9.420
31374WAT      O94363   9.360   4.212   3.745
31374WAT     H194364   9.434   4.279   3.738
31374WAT     H294365   9.339   4.176   3.654
31375WAT      O94366   7.006   1.964   6.590
31375WAT     H194367   7.049   1.876   6.569
31375WAT     H294368   6.926   1.949   6.649
31376WAT      O94369   9.217   6.089   9.189
31376WAT     H194370   9.258   6.001   9.213
31376WAT     H294371   9.138   6.106   9.247
31377WAT      O94372   0.714   3.698   0.170
31377WAT     H194373   0.699   3.642   0.088
31377WAT     H294374   0.667   3.657   0.248
31378WAT      O94375   0.881   7.137   3.582
31378WAT     H194376   0.885   7.191   3.666
31378WAT     H294377   0.786   7.122   3.556
31379WAT      O94378   7.291   1.616   4.660
31379WAT     H194379   7.206   1.613   4.713
31379WAT     H294380   7.356   1.677   4.704
31380WAT      O94381   8.358   2.163   4.771
31380WAT     H194382   8.258   2.167   4.776
31380WAT     H294383   8.386   2.086   4.713
31381WAT      O94384   6.638   5.730   5.840
31381WAT     H194385   6.686   5.785   5.772
31381WAT     H294386   6.544   5.763   5.849
31382WAT      O94387   6.292   2.189   6.869
31382WAT     H194388   6.335   2.263   6.921
31382WAT     H294389   6.194   2.206   6.861
31383WAT      O94390   0.546   3.364   1.306
31383WAT     H194391   0.586   3.445   1.350
31383WAT     H294392   0.584   3.281   1.348
31384WAT      O94393   8.309   4.915   9.894
31384WAT     H194394   8.284   5.004   9.932
31384WAT     H294395   8.296   4.916   9.795
31385WAT      O94396   2.716   4.982   8.841
31385WAT     H194397   2.716   4.933   8.754
31385WAT     H294398   2.659   5.064   8.833
31386WAT      O94399   1.106   8.629   5.833
31386WAT     H194400   1.161   8.567   5.778
31386WAT     H294401   1.129   8.723   5.812
31387WAT      O94402   8.553   9.693   9.424
31387WAT     H194403   8.534   9.791   9.419
31387WAT     H294404   8.481   9.647   9.477
31388WAT      O94405   6.344   3.949   2.673
31388WAT     H194406   6.407   3.894   2.728
31388WAT     H294407   6.282   3.889   2.624
31389WAT      O94408   0.776   1.125   8.663
31389WAT     H194409   0.871   1.096   8.648
31389WAT     H294410   0.754   1.199   8.600
31390WAT      O94411   5.040   3.032   2.384
31390WAT     H194412   5.088   2.947   2.361
31390WAT     H294413   4.989   3.063   2.304
31391WAT      O94414   0.890   4.313   4.581
31391WAT     H194415   0.937   4.317   4.493
31391WAT     H294416   0.792   4.319   4.566
31392WAT      O94417   7.228   9.189   1.427
31392WAT     H194418   7.270   9.240   1.352
31392WAT     H294419   7.242   9.239   1.512
31393WAT      O94420   3.762   2.419   3.467
31393WAT     H194421   3.773   2.335   3.521
31393WAT     H294422   3.748   2.496   3.528
31394WAT      O94423   9.387   6.131   8.215
31394WAT     H194424   9.429   6.170   8.132
31394WAT     H294425   9.326   6.198   8.255
31395WAT      O94426   8.268   3.517   0.468
31395WAT     H194427   8.205   3.466   0.527
31395WAT     H294428   8.251   3.615   0.478
31396WAT      O94429   9.369   9.514   3.875
31396WAT     H194430   9.460   9.546   3.849
31396WAT     H294431   9.364   9.415   3.863
31397WAT      O94432   4.864   2.452   0.247
31397WAT     H194433   4.846   2.533   0.303
31397WAT     H294434   4.817   2.373   0.286
31398WAT      O94435   7.559   4.279   4.065
31398WAT     H194436   7.578   4.230   3.980
31398WAT     H294437   7.482   4.235   4.112
31399WAT      O94438   2.670   8.835   3.188
31399WAT     H194439   2.578   8.831   3.226
31399WAT     H294440   2.712   8.744   3.194
31400WAT      O94441   0.372   1.527   5.152
31400WAT     H194442   0.391   1.612   5.201
31400WAT     H294443   0.379   1.543   5.054
31401WAT      O94444   4.820   8.795   4.001
31401WAT     H194445   4.836   8.755   3.910
31401WAT     H294446   4.879   8.875   4.012
31402WAT      O94447   8.105   6.134   3.877
31402WAT     H194448   8.179   6.194   3.907
31402WAT     H294449   8.088   6.147   3.779
31403WAT      O94450   5.607   1.017   4.265
31403WAT     H194451   5.529   1.016   4.203
31403WAT     H294452   5.666   1.096   4.244
31404WAT      O94453   8.575   6.407   7.486
31404WAT     H194454   8.546   6.328   7.432
31404WAT     H294455   8.618   6.474   7.426
31405WAT      O94456   5.835   5.437   8.274
31405WAT     H194457   5.801   5.404   8.186
31405WAT     H294458   5.930   5.408   8.287
31406WAT      O94459   2.056   2.596   7.980
31406WAT     H194460   2.107   2.669   8.024
31406WAT     H294461   2.062   2.513   8.035
31407WAT      O94462   7.546   5.714   0.807
31407WAT     H194463   7.563   5.810   0.785
31407WAT     H294464   7.632   5.663   0.802
31408WAT      O94465   1.414   7.115   1.927
31408WAT     H194466   1.379   7.129   2.020
31408WAT     H294467   1.389   7.193   1.870
31409WAT      O94468   3.419   7.356   7.991
31409WAT     H194469   3.491   7.296   7.957
31409WAT     H294470   3.370   7.310   8.065
31410WAT      O94471   6.713   0.270   8.301
31410WAT     H194472   6.622   0.303   8.277
31410WAT     H294473   6.768   0.260   8.217
31411WAT      O94474   8.027   2.966   4.335
31411WAT     H194475   8.068   2.981   4.425
31411WAT     H294476   8.028   3.052   4.283
31412WAT      O94477   9.648   5.008   2.521
31412WAT     H194478   9.716   4.999   2.448
31412WAT     H294479   9.690   4.989   2.609
31413WAT      O94480   1.222   1.502   4.130
31413WAT     H194481   1.202   1.587   4.179
31413WAT     H294482   1.162   1.429   4.166
31414WAT      O94483   9.687   3.950   9.784
31414WAT     H194484   9.732   4.013   9.847
31414WAT     H294485   9.754   3.890   9.743
31415WAT      O94486   8.127   8.429   2.763
31415WAT     H194487   8.203   8.368   2.743
31415WAT     H294488   8.075   8.394   2.841
31416WAT      O94489   8.107   1.678   1.964
31416WAT     H194490   8.153   1.760   1.931
31416WAT     H294491   8.012   1.678   1.933
31417WAT      O94492   9.117   0.117   1.797
31417WAT     H194493   9.211   0.082   1.800
31417WAT     H294494   9.060   0.052   1.747
31418WAT      O94495   9.380   7.807   5.357
31418WAT     H194496   9.455   7.759   5.402
31418WAT     H294497   9.316   7.842   5.426
31419WAT      O94498   4.815   6.669   3.677
31419WAT     H194499   4.809   6.569   3.671
31419WAT     H294500   4.911   6.697   3.671
31420WAT      O94501   1.141   6.173   8.541
31420WAT     H194502   1.082   6.092   8.537
31420WAT     H294503   1.135   6.223   8.454
31421WAT      O94504   4.815   7.075   4.716
31421WAT     H194505   4.789   7.010   4.787
31421WAT     H294506   4.833   7.027   4.631
31422WAT      O94507   8.727   5.870   8.817
31422WAT     H194508   8.793   5.838   8.749
31422WAT     H294509   8.684   5.954   8.785
31423WAT      O94510   8.055   9.594   7.047
31423WAT     H194511   8.024   9.499   7.042
31423WAT     H294512   7.980   9.651   7.082
31424WAT      O94513   7.877   6.130   4.766
31424WAT     H194514   7.873   6.144   4.865
31424WAT     H294515   7.962   6.082   4.743
31425WAT      O94516   4.734   6.646   6.108
31425WAT     H194517   4.808   6.654   6.042
31425WAT     H294518   4.678   6.728   6.107
31426WAT      O94519   4.668   8.026   1.780
31426WAT     H194520   4.738   8.023   1.851
31426WAT     H294521   4.578   8.027   1.824
31427WAT      O94522   4.376   8.054   5.579
31427WAT     H194523   4.435   8.050   5.659
31427WAT     H294524   4.384   7.969   5.527
31428WAT      O94525   0.474   3.035   0.260
31428WAT     H194526   0.483   3.115   0.318
31428WAT     H294527   0.558   2.980   0.266
31429WAT      O94528   5.576   4.218   9.088
31429WAT     H194529   5.611   4.216   9.181
31429WAT     H294530   5.517   4.298   9.076
31430WAT      O94531   3.144   5.504   7.453
31430WAT     H194532   3.101   5.540   7.370
31430WAT     H294533   3.080   5.512   7.529
31431WAT      O94534   7.510   5.868   9.221
31431WAT     H194535   7.508   5.914   9.132
31431WAT     H294536   7.466   5.926   9.289
31432WAT      O94537   8.645   5.547   4.705
31432WAT     H194538   8.662   5.638   4.741
31432WAT     H294539   8.678   5.478   4.769
31433WAT      O94540   1.299   5.341   3.978
31433WAT     H194541   1.271   5.277   3.906
31433WAT     H294542   1.218   5.384   4.018
31434WAT      O94543   1.417   0.972   2.091
31434WAT     H194544   1.482   1.013   2.027
31434WAT     H294545   1.393   1.039   2.162
31435WAT      O94546   0.880   2.026   3.178
31435WAT     H194547   0.787   2.061   3.195
31435WAT     H294548   0.944   2.103   3.175
31436WAT      O94549   4.363   4.605   9.554
31436WAT     H194550   4.432   4.565   9.615
31436WAT     H294551   4.284   4.544   9.550
31437WAT      O94552   5.789   0.252   7.595
31437WAT     H194553   5.744   0.164   7.582
31437WAT     H294554   5.845   0.274   7.515
31438WAT      O94555   8.214   4.131   8.203
31438WAT     H194556   8.121   4.116   8.171
31438WAT     H294557   8.216   4.132   8.303
31439WAT      O94558   0.878   5.029   6.204
31439WAT     H194559   0.967   5.053   6.242
31439WAT     H294560   0.808   5.040   6.273
31440WAT      O94561   3.417   3.249   0.519
31440WAT     H194562   3.381   3.323   0.463
31440WAT     H294563   3.362   3.167   0.507
31441WAT      O94564   3.618   6.528   9.301
31441WAT     H194565   3.604   6.454   9.366
31441WAT     H294566   3.713   6.528   9.270
31442WAT      O94567   2.117   1.421   7.947
31442WAT     H194568   2.158   1.437   8.037
31442WAT     H294569   2.186   1.437   7.876
31443WAT      O94570   5.985   5.214   0.215
31443WAT     H194571   5.885   5.218   0.202
31443WAT     H294572   6.023   5.306   0.203
31444WAT      O94573   3.243   1.881   5.347
31444WAT     H194574   3.199   1.792   5.356
31444WAT     H294575   3.341   1.869   5.332
31445WAT      O94576   9.086   1.783   9.307
31445WAT     H194577   9.025   1.827   9.373
31445WAT     H294578   9.147   1.720   9.355
31446WAT      O94579   5.191   7.501   6.729
31446WAT     H194580   5.234   7.592   6.723
31446WAT     H294581   5.259   7.431   6.708
31447WAT      O94582   1.211   1.422   9.649
31447WAT     H194583   1.257   1.500   9.606
31447WAT     H294584   1.143   1.384   9.586
31448WAT      O94585   8.351   7.750   4.002
31448WAT     H194586   8.311   7.780   4.089
31448WAT     H294587   8.281   7.747   3.932
31449WAT      O94588   8.185   7.940   8.531
31449WAT     H194589   8.106   7.880   8.544
31449WAT     H294590   8.248   7.930   8.608
31450WAT      O94591   9.104   3.907   0.966
31450WAT     H194592   9.024   3.958   0.994
31450WAT     H294593   9.173   3.970   0.929
31451WAT      O94594   3.142   8.872   8.966
31451WAT     H194595   3.067   8.892   9.030
31451WAT     H294596   3.194   8.794   9.000
31452WAT      O94597   4.789   1.325   5.232
31452WAT     H194598   4.824   1.419   5.239
31452WAT     H294599   4.856   1.261   5.268
31453WAT      O94600   1.579   4.846   8.371
31453WAT     H194601   1.581   4.782   8.294
31453WAT     H294602   1.575   4.795   8.457
31454WAT      O94603   5.932   7.539   6.157
31454WAT     H194604   5.836   7.539   6.130
31454WAT     H294605   5.964   7.445   6.167
31455WAT      O94606   6.324   7.339   4.133
31455WAT     H194607   6.251   7.358   4.199
31455WAT     H294608   6.411   7.328   4.182
31456WAT      O94609   1.829   6.560   3.397
31456WAT     H194610   1.820   6.646   3.448
31456WAT     H294611   1.868   6.579   3.307
31457WAT      O94612   8.741   0.889   6.530
31457WAT     H194613   8.730   0.804   6.580
31457WAT     H294614   8.673   0.895   6.457
31458WAT      O94615   5.411   2.069   4.356
31458WAT     H194616   5.359   2.127   4.294
31458WAT     H294617   5.348   2.024   4.420
31459WAT      O94618   5.749   4.793   5.834
31459WAT     H194619   5.749   4.762   5.739
31459WAT     H294620   5.671   4.753   5.883
31460WAT      O94621   1.567   4.257   0.322
31460WAT     H194622   1.518   4.188   0.270
31460WAT     H294623   1.658   4.222   0.347
31461WAT      O94624   1.300   6.461   2.762
31461WAT     H194625   1.275   6.499   2.673
31461WAT     H294626   1.388   6.415   2.755
31462WAT      O94627   2.205   0.942   7.897
31462WAT     H194628   2.177   0.912   7.806
31462WAT     H294629   2.285   1.001   7.889
31463WAT      O94630   3.687   2.573   0.231
31463WAT     H194631   3.634   2.507   0.178
31463WAT     H294632   3.784   2.556   0.217
31464WAT      O94633   1.874   9.567   6.496
31464WAT     H194634   1.797   9.604   6.444
31464WAT     H294635   1.960   9.600   6.456
31465WAT      O94636   1.921   9.489   0.447
31465WAT     H194637   1.969   9.577   0.453
31465WAT     H294638   1.845   9.489   0.513
31466WAT      O94639   5.042   9.523   4.285
31466WAT     H194640   5.069   9.593   4.218
31466WAT     H294641   5.105   9.526   4.363
31467WAT      O94642   9.415   7.531   1.293
31467WAT     H194643   9.341   7.485   1.341
31467WAT     H294644   9.455   7.601   1.353
31468WAT      O94645   4.075   0.980   8.876
31468WAT     H194646   4.084   1.016   8.784
31468WAT     H294647   4.159   0.933   8.903
31469WAT      O94648   1.833   8.277   4.457
31469WAT     H194649   1.850   8.182   4.484
31469WAT     H294650   1.917   8.331   4.466
31470WAT      O94651   2.587   1.474   3.594
31470WAT     H194652   2.656   1.536   3.557
31470WAT     H294653   2.564   1.405   3.524
31471WAT      O94654   5.963   6.564   2.919
31471WAT     H194655   6.054   6.578   2.880
31471WAT     H294656   5.912   6.499   2.861
31472WAT      O94657   5.890   1.510   8.722
31472WAT     H194658   5.955   1.537   8.793
31472WAT     H294659   5.934   1.445   8.660
31473WAT      O94660   5.201   1.934   2.257
31473WAT     H194661   5.124   1.880   2.223
31473WAT     H294662   5.249   1.882   2.329
31474WAT      O94663   8.936   3.355   8.144
31474WAT     H194664   8.889   3.268   8.137
31474WAT     H294665   8.874   3.425   8.180
31475WAT      O94666   2.443   4.576   8.937
31475WAT     H194667   2.450   4.613   9.030
31475WAT     H294668   2.533   4.547   8.906
31476WAT      O94669   5.768   6.012   9.148
31476WAT     H194670   5.734   5.939   9.088
31476WAT     H294671   5.809   6.084   9.092
31477WAT      O94672   2.215   0.241   9.125
31477WAT     H194673   2.252   0.215   9.214
31477WAT     H294674   2.116   0.226   9.124
31478WAT      O94675   3.791   6.800   2.903
31478WAT     H194676   3.796   6.709   2.863
31478WAT     H294677   3.780   6.868   2.831
31479WAT      O94678   8.844   9.375   9.342
31479WAT     H194679   8.755   9.383   9.296
31479WAT     H294680   8.890   9.464   9.341
31480WAT      O94681   2.928   4.828   0.350
31480WAT     H194682   2.997   4.756   0.358
31480WAT     H294683   2.857   4.814   0.419
31481WAT      O94684   1.335   2.687   4.547
31481WAT     H194685   1.399   2.734   4.485
31481WAT     H294686   1.252   2.741   4.557
31482WAT      O94687   9.755   2.667   4.974
31482WAT     H194688   9.777   2.764   4.963
31482WAT     H294689   9.695   2.638   4.899
31483WAT      O94690   1.063   4.858   8.696
31483WAT     H194691   1.033   4.908   8.777
31483WAT     H294692   1.056   4.760   8.714
31484WAT      O94693   2.424   2.932   3.914
31484WAT     H194694   2.341   2.941   3.970
31484WAT     H294695   2.465   2.842   3.930
31485WAT      O94696   0.899   8.365   5.272
31485WAT     H194697   0.863   8.273   5.254
31485WAT     H294698   0.830   8.433   5.246
31486WAT      O94699   6.166   0.895   9.681
31486WAT     H194700   6.261   0.905   9.653
31486WAT     H294701   6.109   0.958   9.629
31487WAT      O94702   8.515   0.458   6.191
31487WAT     H194703   8.462   0.466   6.276
31487WAT     H294704   8.605   0.501   6.204
31488WAT      O94705   4.353   0.067   3.664
31488WAT     H194706   4.275   0.051   3.725
31488WAT     H294707   4.348   0.004   3.586
31489WAT      O94708   5.346   1.636   6.765
31489WAT     H194709   5.398   1.718   6.790
31489WAT     H294710   5.285   1.657   6.689
31490WAT      O94711   8.868   9.537   2.670
31490WAT     H194712   8.857   9.440   2.688
31490WAT     H294713   8.825   9.590   2.744
31491WAT      O94714   6.271   8.786   4.533
31491WAT     H194715   6.363   8.752   4.554
31491WAT     H294716   6.275   8.885   4.519
31492WAT      O94717   4.829   9.639   2.208
31492WAT     H194718   4.813   9.728   2.251
31492WAT     H294719   4.877   9.652   2.121
31493WAT      O94720   3.344   8.860   5.585
31493WAT     H194721   3.315   8.796   5.656
31493WAT     H294722   3.285   8.850   5.505
31494WAT      O94723   7.168   1.430   4.251
31494WAT     H194724   7.090   1.493   4.249
31494WAT     H294725   7.200   1.420   4.345
31495WAT      O94726   2.223   1.812   7.955
31495WAT     H194727   2.246   1.792   7.860
31495WAT     H294728   2.266   1.744   8.015
31496WAT      O94729   9.409   7.463   4.592
31496WAT     H194730   9.387   7.383   4.648
31496WAT     H294731   9.479   7.517   4.637
31497WAT      O94732   3.936   4.463   4.869
31497WAT     H194733   3.843   4.501   4.871
31497WAT     H294734   3.943   4.395   4.796
31498WAT      O94735   7.457   4.458   7.799
31498WAT     H194736   7.482   4.515   7.721
31498WAT     H294737   7.504   4.491   7.881
31499WAT      O94738   9.447   3.138   0.827
31499WAT     H194739   9.528   3.176   0.872
31499WAT     H294740   9.366   3.189   0.855
31500WAT      O94741   0.366   8.480   8.083
31500WAT     H194742   0.405   8.396   8.118
31500WAT     H294743   0.352   8.545   8.158
31501WAT      O94744   6.814   3.862   9.436
31501WAT     H194745   6.853   3.858   9.528
31501WAT     H294746   6.802   3.957   9.409
31502WAT      O94747   6.662   9.804   9.020
31502WAT     H194748   6.729   9.733   8.994
31502WAT     H294749   6.665   9.817   9.119
31503WAT      O94750   2.564   9.275   3.573
31503WAT     H194751   2.502   9.294   3.649
31503WAT     H294752   2.635   9.211   3.604
31504WAT      O94753   5.957   2.916   8.833
31504WAT     H194754   5.901   2.964   8.765
31504WAT     H294755   6.015   2.982   8.882
31505WAT      O94756   5.980   7.133   2.332
31505WAT     H194757   6.024   7.044   2.326
31505WAT     H294758   5.971   7.159   2.429
31506WAT      O94759   0.071   6.453   6.529
31506WAT     H194760   0.093   6.527   6.592
31506WAT     H294761  -0.008   6.402   6.564
31507WAT      O94762   0.285   0.500   0.571
31507WAT     H194763   0.216   0.430   0.548
31507WAT     H294764   0.366   0.455   0.609
31508WAT      O94765   7.319   2.039   1.881
31508WAT     H194766   7.238   2.087   1.847
31508WAT     H294767   7.300   2.004   1.973
31509WAT      O94768   8.155   6.902   6.291
31509WAT     H194769   8.139   6.803   6.296
31509WAT     H294770   8.175   6.937   6.383
31510WAT      O94771   0.808   5.868   4.390
31510WAT     H194772   0.781   5.843   4.297
31510WAT     H294773   0.822   5.967   4.395
31511WAT      O94774   5.773   0.800   5.527
31511WAT     H194775   5.734   0.855   5.454
31511WAT     H294776   5.868   0.778   5.505
31512WAT      O94777   9.274   1.631   9.440
31512WAT     H194778   9.364   1.587   9.441
31512WAT     H294779   9.204   1.564   9.415
31513WAT      O94780   6.394   6.496   1.159
31513WAT     H194781   6.430   6.437   1.087
31513WAT     H294782   6.304   6.463   1.188
31514WAT      O94783   5.862   3.140   6.187
31514WAT     H194784   5.786   3.181   6.138
31514WAT     H294785   5.828   3.068   6.247
31515WAT      O94786   2.573   3.809   5.146
31515WAT     H194787   2.496   3.802   5.209
31515WAT     H294788   2.539   3.830   5.055
31516WAT      O94789   5.303   5.479   2.283
31516WAT     H194790   5.271   5.573   2.270
31516WAT     H294791   5.400   5.473   2.258
31517WAT      O94792   0.717   6.264   7.766
31517WAT     H194793   0.725   6.286   7.863
31517WAT     H294794   0.786   6.196   7.741
31518WAT      O94795   3.676   7.282   3.491
31518WAT     H194796   3.606   7.221   3.528
31518WAT     H294797   3.634   7.367   3.460
31519WAT      O94798   1.531   0.148   4.737
31519WAT     H194799   1.590   0.142   4.656
31519WAT     H294800   1.576   0.104   4.814
31520WAT      O94801   8.029   9.769   1.648
31520WAT     H194802   8.108   9.802   1.700
31520WAT     H294803   7.948   9.821   1.676
31521WAT      O94804   7.652   5.389   7.279
31521WAT     H194805   7.719   5.393   7.204
31521WAT     H294806   7.560   5.380   7.241
31522WAT      O94807   2.601   5.067   1.808
31522WAT     H194808   2.678   5.079   1.744
31522WAT     H294809   2.554   5.155   1.820
31523WAT      O94810   4.280   2.858   2.761
31523WAT     H194811   4.330   2.777   2.730
31523WAT     H294812   4.345   2.924   2.800
31524WAT      O94813   6.487   9.197   1.670
31524WAT     H194814   6.564   9.228   1.615
31524WAT     H294815   6.405   9.189   1.612
31525WAT      O94816   4.031   1.077   0.728
31525WAT     H194817   4.045   1.157   0.787
31525WAT     H294818   3.983   1.006   0.780
31526WAT      O94819   0.295   7.728   3.092
31526WAT     H194820   0.333   7.722   3.184
31526WAT     H294821   0.235   7.808   3.086
31527WAT      O94822   1.364   3.332   6.589
31527WAT     H194823   1.382   3.418   6.637
31527WAT     H294824   1.265   3.317   6.586
31528WAT      O94825   0.267   8.989   4.651
31528WAT     H194826   0.293   9.011   4.745
31528WAT     H294827   0.328   8.920   4.615
31529WAT      O94828   2.903   6.342   0.039
31529WAT     H194829   2.975   6.299   0.094
31529WAT     H294830   2.856   6.273  -0.015
31530WAT      O94831   8.773   6.878   7.976
31530WAT     H194832   8.871   6.865   7.960
31530WAT     H294833   8.759   6.907   8.071
31531WAT      O94834   9.185   3.110   3.580
31531WAT     H194835   9.229   3.171   3.646
31531WAT     H294836   9.253   3.079   3.514
31532WAT      O94837   4.019   3.292   3.045
31532WAT     H194838   3.991   3.381   3.008
31532WAT     H294839   4.061   3.238   2.972
31533WAT      O94840   7.326   3.698   4.144
31533WAT     H194841   7.266   3.778   4.140
31533WAT     H294842   7.319   3.656   4.235
31534WAT      O94843   5.144   5.036   6.481
31534WAT     H194844   5.218   5.029   6.415
31534WAT     H294845   5.084   5.112   6.455
31535WAT      O94846   2.339   4.651   6.496
31535WAT     H194847   2.415   4.624   6.555
31535WAT     H294848   2.359   4.740   6.454
31536WAT      O94849   1.884   3.623   6.378
31536WAT     H194850   1.973   3.629   6.333
31536WAT     H294851   1.827   3.700   6.350
31537WAT      O94852   4.437   8.660   4.564
31537WAT     H194853   4.425   8.745   4.616
31537WAT     H294854   4.386   8.666   4.479
31538WAT      O94855   1.847   3.778   2.023
31538WAT     H194856   1.919   3.841   2.051
31538WAT     H294857   1.783   3.764   2.098
31539WAT      O94858   6.053   0.996   0.339
31539WAT     H194859   6.048   1.089   0.374
31539WAT     H294860   5.965   0.971   0.297
31540WAT      O94861   3.301   1.507   0.365
31540WAT     H194862   3.230   1.451   0.408
31540WAT     H294863   3.383   1.451   0.350
31541WAT      O94864   2.718   4.786   0.546
31541WAT     H194865   2.733   4.864   0.607
31541WAT     H294866   2.632   4.798   0.497
31542WAT      O94867   4.996   4.346   2.179
31542WAT     H194868   4.973   4.269   2.239
31542WAT     H294869   5.081   4.326   2.131
31543WAT      O94870   4.975   3.831   2.241
31543WAT     H194871   4.931   3.912   2.278
31543WAT     H294872   5.065   3.856   2.204
31544WAT      O94873   7.678   6.450   2.531
31544WAT     H194874   7.720   6.374   2.579
31544WAT     H294875   7.633   6.511   2.597
31545WAT      O94876   9.027   4.549   0.886
31545WAT     H194877   9.122   4.524   0.904
31545WAT     H294878   8.966   4.476   0.916
31546WAT      O94879   7.060   5.918   6.599
31546WAT     H194880   6.998   5.908   6.677
31546WAT     H294881   7.009   5.951   6.520
31547WAT      O94882   2.613   9.757   1.051
31547WAT     H194883   2.546   9.683   1.054
31547WAT     H294884   2.684   9.740   1.119
31548WAT      O94885   5.598   2.289   3.451
31548WAT     H194886   5.674   2.306   3.513
31548WAT     H294887   5.518   2.258   3.503
31549WAT      O94888   4.441   9.207   3.510
31549WAT     H194889   4.508   9.146   3.466
31549WAT     H294890   4.485   9.255   3.585
31550WAT      O94891   3.264   2.084   9.243
31550WAT     H194892   3.342   2.022   9.237
31550WAT     H294893   3.295   2.173   9.277
31551WAT      O94894   2.545   8.158   0.262
31551WAT     H194895   2.601   8.194   0.337
31551WAT     H294896   2.510   8.234   0.208
31552WAT      O94897   2.426   2.928   1.096
31552WAT     H194898   2.450   3.013   1.141
31552WAT     H294899   2.431   2.852   1.161
31553WAT      O94900   2.267   9.475   9.679
31553WAT     H194901   2.233   9.467   9.773
31553WAT     H294902   2.220   9.408   9.621
31554WAT      O94903   9.277   9.738   8.811
31554WAT     H194904   9.304   9.771   8.720
31554WAT     H294905   9.273   9.816   8.874
31555WAT      O94906   4.211   5.210   7.191
31555WAT     H194907   4.225   5.309   7.202
31555WAT     H294908   4.198   5.168   7.281
31556WAT      O94909   6.042   3.090   8.193
31556WAT     H194910   5.977   3.165   8.210
31556WAT     H294911   6.054   3.038   8.277
31557WAT      O94912   5.028   0.340   3.634
31557WAT     H194913   5.028   0.242   3.649
31557WAT     H294914   5.110   0.380   3.674
31558WAT      O94915   5.309   1.295   9.410
31558WAT     H194916   5.289   1.238   9.330
31558WAT     H294917   5.394   1.347   9.393
31559WAT      O94918   4.279   0.586   0.379
31559WAT     H194919   4.282   0.507   0.319
31559WAT     H294920   4.331   0.661   0.338
31560WAT      O94921   3.104   6.884   8.940
31560WAT     H194922   3.120   6.874   9.038
31560WAT     H294923   3.008   6.867   8.920
31561WAT      O94924   8.311   1.482   7.256
31561WAT     H194925   8.325   1.509   7.351
31561WAT     H294926   8.367   1.539   7.196
31562WAT      O94927   4.002   6.103   1.289
31562WAT     H194928   4.081   6.045   1.270
31562WAT     H294929   3.918   6.051   1.274
31563WAT      O94930   5.502   0.221   5.076
31563WAT     H194931   5.411   0.212   5.036
31563WAT     H294932   5.571   0.201   5.007
31564WAT      O94933   6.951   4.219   6.434
31564WAT     H194934   6.943   4.285   6.508
31564WAT     H294935   7.025   4.155   6.454
31565WAT      O94936   3.844   8.061   3.499
31565WAT     H194937   3.936   8.056   3.538
31565WAT     H294938   3.810   7.968   3.482
31566WAT      O94939   2.814   0.589   0.179
31566WAT     H194940   2.846   0.523   0.247
31566WAT     H294941   2.887   0.605   0.112
31567WAT      O94942   5.468   7.723   8.745
31567WAT     H194943   5.493   7.762   8.834
31567WAT     H294944   5.388   7.664   8.757
31568WAT      O94945   5.476   8.498   4.668
31568WAT     H194946   5.503   8.414   4.715
31568WAT     H294947   5.382   8.490   4.636
31569WAT      O94948   6.498   4.231   2.487
31569WAT     H194949   6.520   4.210   2.582
31569WAT     H294950   6.477   4.329   2.479
31570WAT      O94951   5.709   7.175   6.590
31570WAT     H194952   5.744   7.243   6.525
31570WAT     H294953   5.628   7.131   6.551
31571WAT      O94954   1.449   5.885   4.037
31571WAT     H194955   1.427   5.791   4.066
31571WAT     H294956   1.478   5.884   3.942
31572WAT      O94957   8.232   1.599   7.785
31572WAT     H194958   8.323   1.560   7.797
31572WAT     H294959   8.178   1.539   7.726
31573WAT      O94960   8.169   8.056   1.564
31573WAT     H194961   8.163   8.135   1.625
31573WAT     H294962   8.242   8.071   1.497
31574WAT      O94963   0.373   9.564   2.861
31574WAT     H194964   0.345   9.639   2.802
31574WAT     H294965   0.467   9.578   2.890
31575WAT      O94966   6.805   1.905   6.775
31575WAT     H194967   6.841   1.968   6.843
31575WAT     H294968   6.740   1.952   6.716
31576WAT      O94969   0.978   9.740   8.807
31576WAT     H194970   1.060   9.694   8.838
31576WAT     H294971   0.904   9.674   8.796
31577WAT      O94972   8.422   7.770   6.635
31577WAT     H194973   8.482   7.787   6.713
31577WAT     H294974   8.359   7.695   6.656
31578WAT      O94975   1.959   4.709   1.876
31578WAT     H194976   1.977   4.797   1.832
31578WAT     H294977   2.019   4.700   1.955
31579WAT      O94978   7.850   3.698   5.578
31579WAT     H194979   7.850   3.698   5.478
31579WAT     H294980   7.929   3.646   5.612
31580WAT      O94981   2.607   0.069   4.501
31580WAT     H194982   2.613   0.073   4.401
31580WAT     H294983   2.597  -0.026   4.530
31581WAT      O94984   9.386   4.061   9.079
31581WAT     H194985   9.366   3.963   9.080
31581WAT     H294986   9.476   4.076   9.036
31582WAT      O94987   7.888   1.309   0.438
31582WAT     H194988   7.832   1.374   0.387
31582WAT     H294989   7.922   1.239   0.376
31583WAT      O94990   7.350   4.982   0.720
31583WAT     H194991   7.365   5.066   0.668
31583WAT     H294992   7.259   4.946   0.699
31584WAT      O94993   9.587   9.571   9.532
31584WAT     H194994   9.628   9.656   9.564
31584WAT     H294995   9.514   9.593   9.466
31585WAT      O94996   6.484   7.217   7.263
31585WAT     H194997   6.469   7.287   7.334
31585WAT     H294998   6.424   7.139   7.281
31586WAT      O94999   3.821   3.646   9.437
31586WAT     H195000   3.831   3.724   9.499
31586WAT     H295001   3.795   3.679   9.346
31587WAT      O95002   4.932   0.673   2.366
31587WAT     H195003   4.948   0.753   2.423
31587WAT     H295004   4.933   0.590   2.423
31588WAT      O95005   2.583   2.546   2.775
31588WAT     H195006   2.681   2.532   2.763
31588WAT     H295007   2.548   2.603   2.701
31589WAT      O95008   0.002   9.375   3.999
31589WAT     H195009  -0.041   9.443   4.059
31589WAT     H295010   0.101   9.381   4.007
31590WAT      O95011   4.147   4.061   3.516
31590WAT     H195012   4.177   4.050   3.611
31590WAT     H295013   4.088   4.141   3.509
31591WAT      O95014   7.703   7.242   1.640
31591WAT     H195015   7.723   7.269   1.735
31591WAT     H295016   7.787   7.246   1.586
31592WAT      O95017   1.317   4.064   7.739
31592WAT     H195018   1.365   4.082   7.653
31592WAT     H295019   1.354   3.981   7.781
31593WAT      O95020   4.781   8.358   2.389
31593WAT     H195021   4.792   8.281   2.452
31593WAT     H295022   4.752   8.439   2.440
31594WAT      O95023   1.668   4.099   8.471
31594WAT     H195024   1.738   4.089   8.400
31594WAT     H295025   1.587   4.142   8.431
31595WAT      O95026   8.737   9.534   7.252
31595WAT     H195027   8.644   9.565   7.234
31595WAT     H295028   8.736   9.439   7.282
31596WAT      O95029   2.520   8.438   5.909
31596WAT     H195030   2.480   8.352   5.940
31596WAT     H295031   2.521   8.440   5.809
31597WAT      O95032   1.738   9.318   1.689
31597WAT     H195033   1.791   9.235   1.672
31597WAT     H295034   1.651   9.313   1.639
31598WAT      O95035   1.772   3.067   8.024
31598WAT     H195036   1.715   3.000   7.977
31598WAT     H295037   1.763   3.156   7.979
31599WAT      O95038   6.229   2.845   1.821
31599WAT     H195039   6.224   2.839   1.920
31599WAT     H295040   6.275   2.930   1.794
31600WAT      O95041   9.211   6.028   3.851
31600WAT     H195042   9.232   6.097   3.782
31600WAT     H295043   9.294   5.977   3.873
31601WAT      O95044   0.473   3.854   0.122
31601WAT     H195045   0.426   3.808   0.046
31601WAT     H295046   0.544   3.794   0.157
31602WAT      O95047   2.835   2.919   8.345
31602WAT     H195048   2.889   2.899   8.427
31602WAT     H295049   2.873   3.000   8.299
31603WAT      O95050   3.124   9.407   1.184
31603WAT     H195051   3.090   9.327   1.233
31603WAT     H295052   3.140   9.384   1.088
31604WAT      O95053   5.525   9.352   8.726
31604WAT     H195054   5.603   9.400   8.766
31604WAT     H295055   5.485   9.408   8.654
31605WAT      O95056   4.720   3.898   4.329
31605WAT     H195057   4.640   3.893   4.389
31605WAT     H295058   4.802   3.869   4.379
31606WAT      O95059   7.529   8.470   5.669
31606WAT     H195060   7.505   8.562   5.638
31606WAT     H295061   7.543   8.470   5.768
31607WAT      O95062   0.732   4.808   6.629
31607WAT     H195063   0.650   4.750   6.636
31607WAT     H295064   0.720   4.872   6.553
31608WAT      O95065   7.917   9.190   6.777
31608WAT     H195066   7.953   9.119   6.716
31608WAT     H295067   7.819   9.175   6.790
31609WAT      O95068   8.910   5.081   1.647
31609WAT     H195069   8.961   5.156   1.690
31609WAT     H295070   8.929   5.080   1.549
31610WAT      O95071   9.111   5.708   2.755
31610WAT     H195072   9.194   5.653   2.766
31610WAT     H295073   9.034   5.662   2.798
31611WAT      O95074   3.850   2.718   1.181
31611WAT     H195075   3.829   2.624   1.206
31611WAT     H295076   3.804   2.781   1.243
31612WAT      O95077   3.865   6.967   8.392
31612WAT     H195078   3.834   7.018   8.472
31612WAT     H295079   3.844   7.020   8.309
31613WAT      O95080   4.668   7.106   9.046
31613WAT     H195081   4.696   7.128   8.953
31613WAT     H295082   4.730   7.150   9.111
31614WAT      O95083   1.051   0.232   7.464
31614WAT     H195084   1.016   0.179   7.387
31614WAT     H295085   0.998   0.316   7.473
31615WAT      O95086   9.680   3.342   8.025
31615WAT     H195087   9.586   3.312   8.016
31615WAT     H295088   9.735   3.268   8.065
31616WAT      O95089   4.375   5.253   9.308
31616WAT     H195090   4.474   5.265   9.321
31616WAT     H295091   4.352   5.156   9.313
31617WAT      O95092   8.384   4.979   2.825
31617WAT     H195093   8.372   4.919   2.904
31617WAT     H295094   8.480   4.981   2.798
31618WAT      O95095   1.406   9.047   7.476
31618WAT     H195096   1.443   8.955   7.465
31618WAT     H295097   1.321   9.042   7.528
31619WAT      O95098   0.992   4.987   1.239
31619WAT     H195099   0.909   4.978   1.185
31619WAT     H295100   1.072   4.978   1.178
31620WAT      O95101   4.100   2.464   4.579
31620WAT     H195102   4.029   2.422   4.635
31620WAT     H295103   4.137   2.544   4.626
31621WAT      O95104   0.666   7.828   7.458
31621WAT     H195105   0.730   7.803   7.531
31621WAT     H295106   0.717   7.867   7.382
31622WAT      O95107   9.504   3.079   4.549
31622WAT     H195108   9.448   3.118   4.475
31622WAT     H295109   9.451   3.078   4.633
31623WAT      O95110   8.597   9.231   5.055
31623WAT     H195111   8.547   9.266   4.976
31623WAT     H295112   8.534   9.182   5.115
31624WAT      O95113   0.521   9.097   8.873
31624WAT     H195114   0.531   9.006   8.834
31624WAT     H295115   0.538   9.166   8.803
31625WAT      O95116   0.106   4.827   6.529
31625WAT     H195117   0.071   4.785   6.613
31625WAT     H295118   0.173   4.766   6.487
31626WAT      O95119   0.493   9.410   1.139
31626WAT     H195120   0.487   9.503   1.103
31626WAT     H295121   0.435   9.402   1.220
31627WAT      O95122   9.766   0.519   8.925
31627WAT     H195123   9.734   0.536   8.832
31627WAT     H295124   9.756   0.603   8.979
31628WAT      O95125   8.222   4.774   2.164
31628WAT     H195126   8.310   4.784   2.210
31628WAT     H295127   8.151   4.755   2.232
31629WAT      O95128   8.590   4.926   7.104
31629WAT     H195129   8.515   4.987   7.131
31629WAT     H295130   8.590   4.914   7.005
31630WAT      O95131   8.141   9.788   4.721
31630WAT     H195132   8.091   9.723   4.778
31630WAT     H295133   8.235   9.795   4.753
31631WAT      O95134   0.083   4.828   2.429
31631WAT     H195135   0.153   4.767   2.392
31631WAT     H295136   0.004   4.775   2.459
31632WAT      O95137   6.494   4.042   9.564
31632WAT     H195138   6.582   4.000   9.584
31632WAT     H295139   6.487   4.060   9.466
31633WAT      O95140   3.160   6.659   3.514
31633WAT     H195141   3.150   6.575   3.568
31633WAT     H295142   3.251   6.662   3.473
31634WAT      O95143   5.889   7.357   7.629
31634WAT     H195144   5.951   7.419   7.677
31634WAT     H295145   5.907   7.361   7.531
31635WAT      O95146   9.674   9.728   0.247
31635WAT     H195147   9.606   9.666   0.287
31635WAT     H295148   9.764   9.685   0.249
31636WAT      O95149   1.749   9.360   4.477
31636WAT     H195150   1.795   9.278   4.509
31636WAT     H295151   1.789   9.388   4.389
31637WAT      O95152   5.782   4.646   3.358
31637WAT     H195153   5.682   4.644   3.368
31637WAT     H295154   5.814   4.741   3.365
31638WAT      O95155   3.692   8.680   4.095
31638WAT     H195156   3.658   8.750   4.031
31638WAT     H295157   3.691   8.591   4.050
31639WAT      O95158   4.075   6.494   9.228
31639WAT     H195159   4.048   6.575   9.175
31639WAT     H295160   3.997   6.432   9.236
31640WAT      O95161   6.969   0.074   2.789
31640WAT     H195162   6.958   0.020   2.873
31640WAT     H295163   7.019   0.158   2.810
31641WAT      O95164   8.478   3.880   4.087
31641WAT     H195165   8.460   3.783   4.102
31641WAT     H295166   8.566   3.891   4.041
31642WAT      O95167   0.687   7.605   1.461
31642WAT     H195168   0.651   7.587   1.552
31642WAT     H295169   0.768   7.550   1.445
31643WAT      O95170   0.660   2.609   0.324
31643WAT     H195171   0.677   2.517   0.358
31643WAT     H295172   0.738   2.667   0.346
31644WAT      O95173   0.613   1.960   4.289
31644WAT     H195174   0.640   1.913   4.205
31644WAT     H295175   0.631   1.900   4.367
31645WAT      O95176   2.706   9.361   7.016
31645WAT     H195177   2.751   9.387   7.101
31645WAT     H295178   2.697   9.262   7.013
31646WAT      O95179   1.162   3.709   5.543
31646WAT     H195180   1.177   3.668   5.453
31646WAT     H295181   1.065   3.724   5.557
31647WAT      O95182   3.625   2.170   7.864
31647WAT     H195183   3.563   2.220   7.924
31647WAT     H295184   3.649   2.082   7.906
31648WAT      O95185   7.701   9.738   9.570
31648WAT     H195186   7.757   9.819   9.550
31648WAT     H295187   7.761   9.661   9.594
31649WAT      O95188   1.316   8.985   1.733
31649WAT     H195189   1.370   9.004   1.651
31649WAT     H295190   1.363   9.020   1.813
31650WAT      O95191   4.993   9.452   6.163
31650WAT     H195192   4.922   9.480   6.228
31650WAT     H295193   5.050   9.381   6.205
31651WAT      O95194   3.511   5.070   5.973
31651WAT     H195195   3.497   5.156   5.925
31651WAT     H295196   3.451   5.066   6.053
31652WAT      O95197   8.538   4.089   7.699
31652WAT     H195198   8.617   4.145   7.725
31652WAT     H295199   8.526   4.016   7.766
31653WAT      O95200   0.385   4.046   5.806
31653WAT     H195201   0.364   4.090   5.894
31653WAT     H295202   0.484   4.037   5.796
31654WAT      O95203   4.857   1.044   5.838
31654WAT     H195204   4.933   1.088   5.790
31654WAT     H295205   4.777   1.041   5.779
31655WAT      O95206   1.216   6.913   2.033
31655WAT     H195207   1.294   6.890   1.974
31655WAT     H295208   1.241   6.990   2.092
31656WAT      O95209   4.228   0.877   1.480
31656WAT     H195210   4.328   0.884   1.473
31656WAT     H295211   4.200   0.785   1.453
31657WAT      O95212   3.310   0.664   3.292
31657WAT     H195213   3.338   0.670   3.197
31657WAT     H295214   3.227   0.607   3.299
31658WAT      O95215   7.250   6.463   4.431
31658WAT     H195216   7.211   6.545   4.390
31658WAT     H295217   7.324   6.428   4.374
31659WAT      O95218   1.446   2.822   5.996
31659WAT     H195219   1.386   2.743   5.994
31659WAT     H295220   1.453   2.856   6.090
31660WAT      O95221   0.722   4.719   4.427
31660WAT     H195222   0.652   4.696   4.495
31660WAT     H295223   0.808   4.676   4.453
31661WAT      O95224   1.988   8.183   5.001
31661WAT     H195225   2.082   8.189   4.968
31661WAT     H295226   1.927   8.158   4.926
31662WAT      O95227   5.301   2.629   3.964
31662WAT     H195228   5.310   2.701   4.032
31662WAT     H295229   5.306   2.540   4.009
31663WAT      O95230   2.685   6.248   0.234
31663WAT     H195231   2.663   6.150   0.233
31663WAT     H295232   2.771   6.263   0.185
31664WAT      O95233   9.432   0.026   9.767
31664WAT     H195234   9.508  -0.034   9.792
31664WAT     H295235   9.443   0.058   9.673
31665WAT      O95236   0.624   6.477   1.690
31665WAT     H195237   0.700   6.542   1.686
31665WAT     H295238   0.582   6.482   1.781
31666WAT      O95239   5.030   6.095   9.703
31666WAT     H195240   5.027   6.154   9.621
31666WAT     H295241   5.057   6.150   9.782
31667WAT      O95242   1.652   0.603   9.204
31667WAT     H195243   1.590   0.532   9.170
31667WAT     H295244   1.747   0.571   9.193
31668WAT      O95245   0.331   8.154   6.169
31668WAT     H195246   0.303   8.134   6.075
31668WAT     H295247   0.430   8.163   6.173
31669WAT      O95248   2.677   3.440   5.893
31669WAT     H195249   2.613   3.366   5.874
31669WAT     H295250   2.771   3.408   5.878
31670WAT      O95251   4.293   0.849   6.922
31670WAT     H195252   4.251   0.848   7.013
31670WAT     H295253   4.308   0.944   6.893
31671WAT      O95254   7.109   8.074   5.676
31671WAT     H195255   7.037   8.089   5.608
31671WAT     H295256   7.145   8.163   5.707
31672WAT      O95257   5.724   2.366   5.899
31672WAT     H195258   5.726   2.303   5.976
31672WAT     H295259   5.684   2.320   5.819
31673WAT      O95260   7.184   0.783   8.119
31673WAT     H195261   7.137   0.818   8.038
31673WAT     H295262   7.116   0.754   8.187
31674WAT      O95263   9.450   7.652   9.512
31674WAT     H195264   9.509   7.654   9.594
31674WAT     H295265   9.436   7.746   9.480
31675WAT      O95266   5.452   5.194   7.369
31675WAT     H195267   5.434   5.215   7.465
31675WAT     H295268   5.504   5.109   7.363
31676WAT      O95269   1.656   4.306   4.162
31676WAT     H195270   1.571   4.316   4.214
31676WAT     H295271   1.680   4.393   4.119
31677WAT      O95272   8.734   5.858   4.424
31677WAT     H195273   8.668   5.866   4.349
31677WAT     H295274   8.694   5.898   4.507
31678WAT      O95275   9.414   9.018   2.603
31678WAT     H195276   9.384   9.114   2.598
31678WAT     H295277   9.445   8.989   2.513
31679WAT      O95278   2.554   6.688   6.011
31679WAT     H195279   2.571   6.743   5.930
31679WAT     H295280   2.591   6.596   5.997
31680WAT      O95281   3.861   3.791   3.783
31680WAT     H195282   3.890   3.886   3.772
31680WAT     H295283   3.775   3.776   3.734
31681WAT      O95284   2.255   3.823   8.858
31681WAT     H195285   2.232   3.814   8.761
31681WAT     H295286   2.198   3.762   8.912
31682WAT      O95287   7.538   0.020   3.422
31682WAT     H195288   7.608  -0.051   3.421
31682WAT     H295289   7.516   0.045   3.516
31683WAT      O95290   5.454   3.683   2.116
31683WAT     H195291   5.461   3.611   2.186
31683WAT     H295292   5.541   3.730   2.108
31684WAT      O95293   5.118   7.102   4.433
31684WAT     H195294   5.129   7.157   4.351
31684WAT     H295295   5.151   7.153   4.513
31685WAT      O95296   0.148   8.292   0.895
31685WAT     H195297   0.232   8.335   0.930
31685WAT     H295298   0.151   8.288   0.795
31686WAT      O95299   0.724   5.545   7.139
31686WAT     H195300   0.817   5.576   7.116
31686WAT     H295301   0.658   5.591   7.080
31687WAT      O95302   5.780   3.478   0.018
31687WAT     H195303   5.835   3.412  -0.032
31687WAT     H295304   5.816   3.570   0.003
31688WAT      O95305   6.691   3.543   5.025
31688WAT     H195306   6.639   3.620   4.988
31688WAT     H295307   6.629   3.478   5.068
31689WAT      O95308   5.827   9.115   6.498
31689WAT     H195309   5.787   9.135   6.587
31689WAT     H295310   5.908   9.057   6.511
31690WAT      O95311   2.428   8.714   8.577
31690WAT     H195312   2.499   8.659   8.533
31690WAT     H295313   2.451   8.730   8.673
31691WAT      O95314   7.269   8.198   6.719
31691WAT     H195315   7.259   8.142   6.801
31691WAT     H295316   7.346   8.164   6.665
31692WAT      O95317   6.307   3.439   7.099
31692WAT     H195318   6.337   3.378   7.173
31692WAT     H295319   6.359   3.420   7.016
31693WAT      O95320   2.912   7.605   1.222
31693WAT     H195321   2.916   7.568   1.314
31693WAT     H295322   2.867   7.540   1.161
31694WAT      O95323   8.976   1.308   8.801
31694WAT     H195324   9.025   1.327   8.886
31694WAT     H295325   8.977   1.389   8.743
31695WAT      O95326   6.661   5.352   4.206
31695WAT     H195327   6.692   5.314   4.293
31695WAT     H295328   6.561   5.356   4.205
31696WAT      O95329   3.387   4.589   6.029
31696WAT     H195330   3.394   4.491   6.011
31696WAT     H295331   3.290   4.615   6.035
31697WAT      O95332   0.531   3.430   3.915
31697WAT     H195333   0.598   3.503   3.898
31697WAT     H295334   0.475   3.455   3.994
31698WAT      O95335   8.082   2.462   8.909
31698WAT     H195336   8.043   2.490   8.821
31698WAT     H295337   8.008   2.434   8.971
31699WAT      O95338   6.855   0.869   5.064
31699WAT     H195339   6.848   0.824   4.975
31699WAT     H295340   6.786   0.832   5.127
31700WAT      O95341   6.736   4.101   4.843
31700WAT     H195342   6.657   4.108   4.903
31700WAT     H295343   6.734   4.013   4.796
31701WAT      O95344   5.483   1.021   1.045
31701WAT     H195345   5.536   1.093   1.002
31701WAT     H295346   5.535   0.935   1.044
31702WAT      O95347   5.941   8.752   3.563
31702WAT     H195348   5.900   8.664   3.590
31702WAT     H295349   5.886   8.793   3.490
31703WAT      O95350   7.120   5.415   4.947
31703WAT     H195351   7.081   5.325   4.925
31703WAT     H295352   7.046   5.478   4.970
31704WAT      O95353   4.513   1.009   1.477
31704WAT     H195354   4.583   0.988   1.545
31704WAT     H295355   4.524   1.103   1.445
31705WAT      O95356   2.334   4.255   6.996
31705WAT     H195357   2.348   4.248   6.897
31705WAT     H295358   2.294   4.170   7.030
31706WAT      O95359   7.227   6.470   9.160
31706WAT     H195360   7.197   6.543   9.221
31706WAT     H295361   7.327   6.468   9.156
31707WAT      O95362   2.273   3.161   5.486
31707WAT     H195363   2.344   3.114   5.538
31707WAT     H295364   2.259   3.115   5.398
31708WAT      O95365   6.131   0.483   0.223
31708WAT     H195366   6.209   0.531   0.262
31708WAT     H295367   6.067   0.549   0.184
31709WAT      O95368   6.014   0.700   9.353
31709WAT     H195369   6.059   0.668   9.436
31709WAT     H295370   5.951   0.775   9.376
31710WAT      O95371   8.181   3.331   4.519
31710WAT     H195372   8.089   3.365   4.500
31710WAT     H295373   8.237   3.406   4.553
31711WAT      O95374   3.938   7.019   7.429
31711WAT     H195375   3.950   6.945   7.364
31711WAT     H295376   3.914   7.103   7.380
31712WAT      O95377   4.944   4.992   9.014
31712WAT     H195378   4.907   5.017   8.925
31712WAT     H295379   4.944   4.893   9.024
31713WAT      O95380   5.705   7.165   4.855
31713WAT     H195381   5.788   7.109   4.844
31713WAT     H295382   5.697   7.195   4.950
31714WAT      O95383   4.521   5.002   0.295
31714WAT     H195384   4.511   5.100   0.312
31714WAT     H295385   4.514   4.952   0.382
31715WAT      O95386   8.064   3.995   4.480
31715WAT     H195387   7.989   3.931   4.498
31715WAT     H295388   8.149   3.958   4.518
31716WAT      O95389   2.935   6.049   4.371
31716WAT     H195390   2.860   6.053   4.437
31716WAT     H295391   2.945   5.956   4.337
31717WAT      O95392   4.933   5.308   2.814
31717WAT     H195393   5.020   5.352   2.791
31717WAT     H295394   4.861   5.345   2.756
31718WAT      O95395   2.200   7.023   1.429
31718WAT     H195396   2.213   7.021   1.330
31718WAT     H295397   2.125   6.961   1.454
31719WAT      O95398   4.996   6.854   9.288
31719WAT     H195399   4.916   6.800   9.261
31719WAT     H295400   5.033   6.902   9.208
31720WAT      O95401   7.965   0.508   8.519
31720WAT     H195402   7.901   0.558   8.461
31720WAT     H295403   8.020   0.572   8.572
31721WAT      O95404   3.456   0.316   9.389
31721WAT     H195405   3.373   0.350   9.431
31721WAT     H295406   3.460   0.347   9.294
31722WAT      O95407   1.171   5.655   4.328
31722WAT     H195408   1.154   5.752   4.311
31722WAT     H295409   1.131   5.630   4.417
31723WAT      O95410   9.309   5.318   4.226
31723WAT     H195411   9.376   5.377   4.182
31723WAT     H295412   9.314   5.226   4.185
31724WAT      O95413   5.473   9.410   9.847
31724WAT     H195414   5.505   9.371   9.760
31724WAT     H295415   5.442   9.504   9.832
31725WAT      O95416   9.032   6.067   9.859
31725WAT     H195417   9.006   6.161   9.838
31725WAT     H295418   9.131   6.059   9.858
31726WAT      O95419   2.598   1.516   5.267
31726WAT     H195420   2.678   1.510   5.328
31726WAT     H295421   2.604   1.600   5.212
31727WAT      O95422   6.094   9.410   7.402
31727WAT     H195423   6.026   9.441   7.468
31727WAT     H295424   6.184   9.407   7.445
31728WAT      O95425   1.724   5.673   3.419
31728WAT     H195426   1.674   5.693   3.334
31728WAT     H295427   1.766   5.583   3.412
31729WAT      O95428   3.155   8.996   4.804
31729WAT     H195429   3.245   9.007   4.846
31729WAT     H295430   3.089   8.964   4.873
31730WAT      O95431   6.118   5.653   6.713
31730WAT     H195432   6.062   5.648   6.631
31730WAT     H295433   6.062   5.680   6.791
31731WAT      O95434   3.133   7.675   5.595
31731WAT     H195435   3.183   7.736   5.534
31731WAT     H295436   3.145   7.705   5.689
31732WAT      O95437   9.738   9.674   3.757
31732WAT     H195438   9.810   9.742   3.770
31732WAT     H295439   9.779   9.586   3.734
31733WAT      O95440   6.675   2.009   6.156
31733WAT     H195441   6.744   2.029   6.086
31733WAT     H295442   6.715   1.952   6.228
31734WAT      O95443   6.933   8.005   2.793
31734WAT     H195444   6.989   7.996   2.875
31734WAT     H295445   6.903   7.915   2.762
31735WAT      O95446   7.160   9.338   8.328
31735WAT     H195447   7.240   9.292   8.369
31735WAT     H295448   7.126   9.283   8.252
31736WAT      O95449   4.243   3.089   5.643
31736WAT     H195450   4.324   3.048   5.600
31736WAT     H295451   4.192   3.019   5.692
31737WAT      O95452   1.753   9.127   4.743
31737WAT     H195453   1.843   9.158   4.775
31737WAT     H295454   1.687   9.202   4.751
31738WAT      O95455   5.481   0.334   8.176
31738WAT     H195456   5.473   0.369   8.269
31738WAT     H295457   5.391   0.333   8.132
31739WAT      O95458   0.219   1.872   6.007
31739WAT     H195459   0.277   1.807   5.958
31739WAT     H295460   0.244   1.873   6.104
31740WAT      O95461   7.745   7.865   9.232
31740WAT     H195462   7.802   7.786   9.212
31740WAT     H295463   7.762   7.895   9.326
31741WAT      O95464   7.230   5.606   3.791
31741WAT     H195465   7.244   5.650   3.880
31741WAT     H295466   7.140   5.565   3.788
31742WAT      O95467   2.974   2.345   6.728
31742WAT     H195468   3.044   2.346   6.800
31742WAT     H295469   2.886   2.370   6.768
31743WAT      O95470   8.007   6.417   6.772
31743WAT     H195471   7.981   6.355   6.697
31743WAT     H295472   7.996   6.370   6.859
31744WAT      O95473   1.439   4.949   0.420
31744WAT     H195474   1.419   4.859   0.459
31744WAT     H295475   1.360   5.009   0.433
31745WAT      O95476   2.282   9.419   5.635
31745WAT     H195477   2.276   9.424   5.535
31745WAT     H295478   2.262   9.326   5.665
31746WAT      O95479   0.812   4.272   3.917
31746WAT     H195480   0.718   4.239   3.903
31746WAT     H295481   0.810   4.359   3.966
31747WAT      O95482   5.030   6.850   6.820
31747WAT     H195483   4.960   6.889   6.880
31747WAT     H295484   4.986   6.787   6.755
31748WAT      O95485   0.205   5.646   1.145
31748WAT     H195486   0.297   5.608   1.155
31748WAT     H295487   0.194   5.684   1.053
31749WAT      O95488   7.400   7.873   9.724
31749WAT     H195489   7.301   7.888   9.727
31749WAT     H295490   7.446   7.955   9.690
31750WAT      O95491   0.447   0.841   2.918
31750WAT     H195492   0.360   0.824   2.965
31750WAT     H295493   0.516   0.870   2.985
31751WAT      O95494   0.741   8.787   0.277
31751WAT     H195495   0.774   8.879   0.259
31751WAT     H295496   0.770   8.725   0.204
31752WAT      O95497   1.319   8.231   1.482
31752WAT     H195498   1.219   8.227   1.480
31752WAT     H295499   1.349   8.326   1.477
31753WAT      O95500   1.671   1.686   2.310
31753WAT     H195501   1.693   1.589   2.295
31753WAT     H295502   1.653   1.729   2.221
31754WAT      O95503   8.403   8.292   3.697
31754WAT     H195504   8.488   8.320   3.651
31754WAT     H295505   8.412   8.198   3.729
31755WAT      O95506   3.341   1.300   8.768
31755WAT     H195507   3.261   1.354   8.795
31755WAT     H295508   3.390   1.270   8.850
31756WAT      O95509   8.576   7.651   2.168
31756WAT     H195510   8.583   7.736   2.115
31756WAT     H295511   8.668   7.619   2.191
31757WAT      O95512   7.396   4.988   5.396
31757WAT     H195513   7.381   5.072   5.449
31757WAT     H295514   7.309   4.954   5.363
31758WAT      O95515   5.854   3.858   8.614
31758WAT     H195516   5.936   3.892   8.567
31758WAT     H295517   5.872   3.853   8.712
31759WAT      O95518   6.415   7.869   0.294
31759WAT     H195519   6.342   7.844   0.358
31759WAT     H295520   6.459   7.953   0.326
31760WAT      O95521   0.247   1.561   9.721
31760WAT     H195522   0.228   1.600   9.631
31760WAT     H295523   0.334   1.511   9.718
31761WAT      O95524   5.925   5.625   3.447
31761WAT     H195525   5.851   5.692   3.447
31761WAT     H295526   5.998   5.656   3.508
31762WAT      O95527   4.983   4.506   9.223
31762WAT     H195528   4.931   4.432   9.266
31762WAT     H295529   5.048   4.467   9.158
31763WAT      O95530   7.246   1.389   4.498
31763WAT     H195531   7.329   1.334   4.490
31763WAT     H295532   7.256   1.452   4.575
31764WAT      O95533   0.504   5.155   5.271
31764WAT     H195534   0.582   5.211   5.244
31764WAT     H295535   0.441   5.209   5.327
31765WAT      O95536   0.805   9.284   8.614
31765WAT     H195537   0.804   9.306   8.517
31765WAT     H295538   0.851   9.196   8.627
31766WAT      O95539   3.943   7.533   9.695
31766WAT     H195540   4.041   7.555   9.689
31766WAT     H295541   3.897   7.599   9.754
31767WAT      O95542   3.401   0.938   1.638
31767WAT     H195543   3.387   1.034   1.615
31767WAT     H295544   3.498   0.915   1.630
31768WAT      O95545   1.749   6.001   6.139
31768WAT     H195546   1.657   5.994   6.177
31768WAT     H295547   1.743   6.013   6.040
31769WAT      O95548   1.331   1.052   9.577
31769WAT     H195549   1.368   1.132   9.529
31769WAT     H295550   1.349   1.061   9.675
31770WAT      O95551   8.913   5.531   6.979
31770WAT     H195552   8.877   5.476   6.904
31770WAT     H295553   8.935   5.623   6.945
31771WAT      O95554   2.992   8.879   5.735
31771WAT     H195555   2.973   8.917   5.825
31771WAT     H295556   3.065   8.811   5.741
31772WAT      O95557   8.181   4.574   6.738
31772WAT     H195558   8.266   4.523   6.721
31772WAT     H295559   8.158   4.567   6.835
31773WAT      O95560   2.533   7.922   0.850
31773WAT     H195561   2.469   7.963   0.915
31773WAT     H295562   2.616   7.894   0.897
31774WAT      O95563   3.292   9.572   7.524
31774WAT     H195564   3.354   9.495   7.504
31774WAT     H295565   3.252   9.559   7.615
31775WAT      O95566   0.916   5.957   7.710
31775WAT     H195567   0.857   6.016   7.655
31775WAT     H295568   0.876   5.866   7.716
31776WAT      O95569   4.165   7.169   0.447
31776WAT     H195570   4.114   7.193   0.530
31776WAT     H295571   4.123   7.216   0.368
31777WAT      O95572   6.844   5.543   2.552
31777WAT     H195573   6.780   5.579   2.483
31777WAT     H295574   6.843   5.443   2.548
31778WAT      O95575   1.780   7.274   1.739
31778WAT     H195576   1.878   7.294   1.740
31778WAT     H295577   1.745   7.273   1.833
31779WAT      O95578   6.033   6.917   1.906
31779WAT     H195579   6.131   6.934   1.910
31779WAT     H295580   5.985   7.002   1.883
31780WAT      O95581   0.016   3.193   8.637
31780WAT     H195582   0.032   3.095   8.648
31780WAT     H295583  -0.082   3.212   8.648
31781WAT      O95584   5.110   7.683   9.818
31781WAT     H195585   5.171   7.705   9.743
31781WAT     H295586   5.026   7.737   9.809
31782WAT      O95587   5.850   3.568   4.303
31782WAT     H195588   5.798   3.489   4.336
31782WAT     H295589   5.805   3.606   4.222
31783WAT      O95590   7.919   9.250   0.425
31783WAT     H195591   7.972   9.208   0.498
31783WAT     H295592   7.982   9.287   0.356
31784WAT      O95593   1.019   0.871   8.086
31784WAT     H195594   1.082   0.793   8.091
31784WAT     H295595   1.040   0.936   8.158
31785WAT      O95596   1.729   3.666   2.310
31785WAT     H195597   1.763   3.645   2.401
31785WAT     H295598   1.673   3.590   2.277
31786WAT      O95599   3.307   1.153   7.362
31786WAT     H195600   3.399   1.115   7.353
31786WAT     H295601   3.255   1.134   7.278
31787WAT      O95602   3.621   6.148   3.039
31787WAT     H195603   3.559   6.188   3.106
31787WAT     H295604   3.663   6.220   2.985
31788WAT      O95605   2.356   2.002   2.404
31788WAT     H195606   2.382   1.906   2.400
31788WAT     H295607   2.439   2.059   2.404
31789WAT      O95608   0.501   6.409   7.328
31789WAT     H195609   0.506   6.463   7.244
31789WAT     H295610   0.420   6.352   7.326
31790WAT      O95611   1.722   2.139   0.203
31790WAT     H195612   1.646   2.136   0.139
31790WAT     H295613   1.703   2.205   0.276
31791WAT      O95614   3.447   2.048   5.993
31791WAT     H195615   3.437   2.098   5.907
31791WAT     H295616   3.439   1.950   5.976
31792WAT      O95617   8.074   2.816   1.631
31792WAT     H195618   8.019   2.899   1.620
31792WAT     H295619   8.124   2.820   1.718
31793WAT      O95620   1.173   1.782   4.541
31793WAT     H195621   1.092   1.840   4.554
31793WAT     H295622   1.253   1.840   4.526
31794WAT      O95623   5.556   0.117   0.905
31794WAT     H195624   5.548   0.045   0.836
31794WAT     H295625   5.637   0.173   0.885
31795WAT      O95626   7.183   7.991   3.940
31795WAT     H195627   7.213   7.905   3.981
31795WAT     H295628   7.095   8.017   3.980
31796WAT      O95629   7.288   7.501   5.415
31796WAT     H195630   7.259   7.566   5.485
31796WAT     H295631   7.208   7.472   5.362
31797WAT      O95632   2.753   7.767   3.150
31797WAT     H195633   2.789   7.851   3.109
31797WAT     H295634   2.796   7.688   3.108
31798WAT      O95635   7.040   4.421   4.099
31798WAT     H195636   7.124   4.472   4.120
31798WAT     H295637   6.980   4.423   4.178
31799WAT      O95638   3.904   4.057   3.785
31799WAT     H195639   3.885   4.061   3.883
31799WAT     H295640   4.002   4.062   3.770
31800WAT      O95641   5.601   2.954   0.460
31800WAT     H195642   5.549   2.923   0.380
31800WAT     H295643   5.662   3.029   0.434
31801WAT      O95644   7.596   7.184   0.641
31801WAT     H195645   7.619   7.254   0.709
31801WAT     H295646   7.631   7.095   0.671
31802WAT      O95647   4.294   2.845   2.459
31802WAT     H195648   4.393   2.840   2.446
31802WAT     H295649   4.274   2.847   2.557
31803WAT      O95650   3.280   0.197   9.805
31803WAT     H195651   3.329   0.112   9.785
31803WAT     H295652   3.311   0.232   9.894
31804WAT      O95653   3.601   0.848   0.434
31804WAT     H195654   3.693   0.826   0.403
31804WAT     H295655   3.535   0.789   0.387
31805WAT      O95656   3.554   6.810   8.972
31805WAT     H195657   3.574   6.882   9.039
31805WAT     H295658   3.460   6.778   8.984
31806WAT      O95659   7.739   8.076   6.742
31806WAT     H195660   7.827   8.078   6.694
31806WAT     H295661   7.719   8.168   6.778
31807WAT      O95662   3.292   2.016   2.501
31807WAT     H195663   3.199   2.052   2.513
31807WAT     H295664   3.355   2.067   2.560
31808WAT      O95665   4.575   2.619   4.516
31808WAT     H195666   4.577   2.572   4.604
31808WAT     H295667   4.486   2.663   4.504
31809WAT      O95668   1.346   2.799   9.583
31809WAT     H195669   1.275   2.853   9.538
31809WAT     H295670   1.435   2.843   9.569
31810WAT      O95671   8.065   0.442   2.773
31810WAT     H195672   8.006   0.468   2.849
31810WAT     H295673   8.049   0.346   2.749
31811WAT      O95674   3.584   3.972   0.790
31811WAT     H195675   3.491   3.997   0.763
31811WAT     H295676   3.603   4.006   0.882
31812WAT      O95677   4.418   8.708   7.277
31812WAT     H195678   4.401   8.728   7.180
31812WAT     H295679   4.492   8.641   7.284
31813WAT      O95680   5.995   4.642   0.781
31813WAT     H195681   5.956   4.582   0.711
31813WAT     H295682   5.920   4.686   0.832
31814WAT      O95683   5.007   5.787   0.583
31814WAT     H195684   5.012   5.688   0.572
31814WAT     H295685   4.948   5.826   0.511
31815WAT      O95686   2.228   2.764   0.730
31815WAT     H195687   2.254   2.857   0.759
31815WAT     H295688   2.250   2.699   0.803
31816WAT      O95689   4.436   5.178   8.570
31816WAT     H195690   4.509   5.235   8.532
31816WAT     H295691   4.355   5.234   8.588
31817WAT      O95692   0.936   4.786   1.402
31817WAT     H195693   0.946   4.855   1.330
31817WAT     H295694   0.922   4.696   1.361
31818WAT      O95695   6.331   5.741   5.914
31818WAT     H195696   6.288   5.805   5.979
31818WAT     H295697   6.270   5.663   5.901
31819WAT      O95698   7.029   4.018   5.978
31819WAT     H195699   7.113   3.992   6.026
31819WAT     H295700   6.969   4.068   6.040
31820WAT      O95701   3.744   0.328   3.399
31820WAT     H195702   3.681   0.361   3.329
31820WAT     H295703   3.693   0.303   3.481
31821WAT      O95704   8.146   8.846   3.870
31821WAT     H195705   8.233   8.896   3.864
31821WAT     H295706   8.127   8.802   3.782
31822WAT      O95707   3.392   7.046   4.774
31822WAT     H195708   3.369   7.142   4.791
31822WAT     H295709   3.320   7.004   4.719
31823WAT      O95710   3.967   2.098   6.936
31823WAT     H195711   3.994   2.182   6.890
31823WAT     H295712   4.007   2.096   7.028
31824WAT      O95713   3.242   0.086   1.069
31824WAT     H195714   3.291   0.041   0.995
31824WAT     H295715   3.194   0.018   1.124
31825WAT      O95716   0.925   4.377   7.644
31825WAT     H195717   1.012   4.427   7.641
31825WAT     H295718   0.918   4.328   7.731
31826WAT      O95719   2.161   4.955   7.399
31826WAT     H195720   2.078   4.968   7.345
31826WAT     H295721   2.182   4.857   7.404
31827WAT      O95722   9.113   9.529   8.834
31827WAT     H195723   9.157   9.464   8.895
31827WAT     H295724   9.174   9.607   8.819
31828WAT      O95725   7.495   2.197   6.481
31828WAT     H195726   7.580   2.236   6.516
31828WAT     H295727   7.484   2.220   6.385
31829WAT      O95728   6.122   2.112   2.089
31829WAT     H195729   6.027   2.083   2.076
31829WAT     H295730   6.181   2.032   2.086
31830WAT      O95731   8.080   0.023   4.442
31830WAT     H195732   8.165   0.004   4.393
31830WAT     H295733   8.085  -0.016   4.534
31831WAT      O95734   3.452   3.362   2.076
31831WAT     H195735   3.488   3.440   2.025
31831WAT     H295736   3.492   3.362   2.168
31832WAT      O95737   4.988   5.772   8.292
31832WAT     H195738   5.066   5.806   8.239
31832WAT     H295739   4.904   5.816   8.260
31833WAT      O95740   7.386   4.096   4.972
31833WAT     H195741   7.430   4.012   5.005
31833WAT     H295742   7.329   4.134   5.045
31834WAT      O95743   0.534   5.094   8.505
31834WAT     H195744   0.567   5.187   8.519
31834WAT     H295745   0.464   5.094   8.433
31835WAT      O95746   1.385   5.110   3.671
31835WAT     H195747   1.348   5.108   3.578
31835WAT     H295748   1.333   5.047   3.729
31836WAT      O95749   2.141   3.410   3.162
31836WAT     H195750   2.105   3.477   3.227
31836WAT     H295751   2.171   3.328   3.211
31837WAT      O95752   0.938   9.266   5.762
31837WAT     H195753   0.839   9.253   5.760
31837WAT     H295754   0.973   9.268   5.668
31838WAT      O95755   7.253   8.669   9.049
31838WAT     H195756   7.350   8.644   9.049
31838WAT     H295757   7.233   8.723   8.967
31839WAT      O95758   0.196   1.102   9.186
31839WAT     H195759   0.166   1.031   9.249
31839WAT     H295760   0.117   1.138   9.136
31840WAT      O95761   0.980   0.479   5.339
31840WAT     H195762   0.897   0.429   5.314
31840WAT     H295763   0.955   0.568   5.375
31841WAT      O95764   0.436   0.831   4.235
31841WAT     H195765   0.478   0.768   4.300
31841WAT     H295766   0.409   0.780   4.153
31842WAT      O95767   8.321   3.307   7.567
31842WAT     H195768   8.249   3.366   7.604
31842WAT     H295769   8.353   3.244   7.637
31843WAT      O95770   1.883   9.388   1.346
31843WAT     H195771   1.952   9.408   1.417
31843WAT     H295772   1.811   9.457   1.350
31844WAT      O95773   5.470   0.045   6.444
31844WAT     H195774   5.433   0.119   6.388
31844WAT     H295775   5.416  -0.037   6.431
31845WAT      O95776   6.921   4.731   8.979
31845WAT     H195777   6.916   4.731   9.079
31845WAT     H295778   6.941   4.640   8.946
31846WAT      O95779   3.674   9.415   2.609
31846WAT     H195780   3.596   9.387   2.665
31846WAT     H295781   3.695   9.342   2.544
31847WAT      O95782   0.617   7.142   4.286
31847WAT     H195783   0.535   7.193   4.313
31847WAT     H295784   0.612   7.121   4.189
31848WAT      O95785   9.441   3.064   5.681
31848WAT     H195786   9.405   3.081   5.772
31848WAT     H295787   9.367   3.035   5.620
31849WAT      O95788   3.660   6.901   2.170
31849WAT     H195789   3.719   6.888   2.250
31849WAT     H295790   3.698   6.851   2.092
31850WAT      O95791   6.870   2.940   9.113
31850WAT     H195792   6.774   2.966   9.124
31850WAT     H295793   6.899   2.957   9.019
31851WAT      O95794   5.742   5.700   7.297
31851WAT     H195795   5.714   5.791   7.266
31851WAT     H295796   5.723   5.633   7.226
31852WAT      O95797   7.631   7.342   5.268
31852WAT     H195798   7.694   7.417   5.289
31852WAT     H295799   7.660   7.297   5.183
31853WAT      O95800   2.817   7.680   6.411
31853WAT     H195801   2.906   7.680   6.366
31853WAT     H295802   2.777   7.772   6.405
31854WAT      O95803   4.032   4.458   8.444
31854WAT     H195804   4.027   4.442   8.346
31854WAT     H295805   3.948   4.500   8.476
31855WAT      O95806   5.599   7.464   7.195
31855WAT     H195807   5.505   7.493   7.213
31855WAT     H295808   5.598   7.377   7.146
31856WAT      O95809   7.155   5.503   9.450
31856WAT     H195810   7.231   5.551   9.493
31856WAT     H295811   7.178   5.484   9.354
31857WAT      O95812   3.068   6.479   2.008
31857WAT     H195813   3.145   6.538   1.984
31857WAT     H295814   3.045   6.491   2.105
31858WAT      O95815   5.275   3.827   3.796
31858WAT     H195816   5.344   3.889   3.834
31858WAT     H295817   5.272   3.838   3.696
31859WAT      O95818   5.787   9.495   3.071
31859WAT     H195819   5.866   9.483   3.011
31859WAT     H295820   5.788   9.425   3.142
31860WAT      O95821   9.022   9.132   0.564
31860WAT     H195822   8.958   9.200   0.599
31860WAT     H295823   9.012   9.047   0.616
31861WAT      O95824   4.966   2.932   6.961
31861WAT     H195825   4.933   2.977   7.044
31861WAT     H295826   4.944   2.834   6.964
31862WAT      O95827   6.438   2.276   2.287
31862WAT     H195828   6.503   2.203   2.266
31862WAT     H295829   6.353   2.236   2.321
31863WAT      O95830   0.515   1.083   6.044
31863WAT     H195831   0.479   1.043   5.960
31863WAT     H295832   0.476   1.174   6.057
31864WAT      O95833   7.169   5.972   8.070
31864WAT     H195834   7.126   5.985   8.159
31864WAT     H295835   7.178   6.060   8.024
31865WAT      O95836   7.116   2.866   7.921
31865WAT     H195837   7.060   2.940   7.959
31865WAT     H295838   7.057   2.789   7.896
31866WAT      O95839   0.025   8.844   0.435
31866WAT     H195840  -0.035   8.780   0.483
31866WAT     H295841   0.112   8.852   0.484
31867WAT      O95842   9.272   9.277   2.524
31867WAT     H195843   9.243   9.240   2.436
31867WAT     H295844   9.371   9.290   2.524
31868WAT      O95845   9.030   7.231   2.196
31868WAT     H195846   9.043   7.232   2.295
31868WAT     H295847   8.934   7.210   2.176
31869WAT      O95848   3.315   8.368   0.129
31869WAT     H195849   3.270   8.437   0.072
31869WAT     H295850   3.394   8.332   0.080
31870WAT      O95851   3.887   2.592   6.883
31870WAT     H195852   3.908   2.690   6.879
31870WAT     H295853   3.930   2.552   6.964
31871WAT      O95854   6.010   1.510   2.236
31871WAT     H195855   5.972   1.485   2.147
31871WAT     H295856   6.102   1.472   2.244
31872WAT      O95857   8.054   3.750   3.735
31872WAT     H195858   8.130   3.709   3.786
31872WAT     H295859   8.064   3.850   3.736
31873WAT      O95860   1.067   6.447   4.372
31873WAT     H195861   1.162   6.425   4.348
31873WAT     H295862   1.060   6.464   4.470
31874WAT      O95863   0.321   6.553   3.207
31874WAT     H195864   0.233   6.545   3.254
31874WAT     H295865   0.342   6.469   3.158
31875WAT      O95866   3.689   5.457   2.605
31875WAT     H195867   3.730   5.468   2.695
31875WAT     H295868   3.589   5.465   2.612
31876WAT      O95869   0.130   2.340   3.915
31876WAT     H195870   0.195   2.266   3.898
31876WAT     H295871   0.037   2.305   3.905
31877WAT      O95872   9.445   7.725   3.481
31877WAT     H195873   9.394   7.799   3.437
31877WAT     H295874   9.384   7.646   3.494
31878WAT      O95875   7.821   1.845   1.315
31878WAT     H195876   7.729   1.805   1.312
31878WAT     H295877   7.827   1.919   1.248
31879WAT      O95878   0.982   9.813   1.875
31879WAT     H195879   0.964   9.715   1.873
31879WAT     H295880   0.923   9.860   1.810
31880WAT      O95881   6.734   7.124   8.500
31880WAT     H195882   6.770   7.164   8.584
31880WAT     H295883   6.640   7.155   8.485
31881WAT      O95884   3.319   5.551   4.223
31881WAT     H195885   3.300   5.553   4.321
31881WAT     H295886   3.292   5.462   4.185
31882WAT      O95887   0.108   9.055   2.644
31882WAT     H195888   0.041   9.053   2.570
31882WAT     H295889   0.087   8.984   2.711
31883WAT      O95890   6.562   8.693   0.628
31883WAT     H195891   6.550   8.603   0.585
31883WAT     H295892   6.508   8.697   0.711
31884WAT      O95893   1.649   6.210   0.441
31884WAT     H195894   1.744   6.187   0.423
31884WAT     H295895   1.602   6.131   0.481
31885WAT      O95896   4.960   1.096   0.752
31885WAT     H195897   4.876   1.050   0.781
31885WAT     H295898   5.012   1.125   0.833
31886WAT      O95899   1.318   4.705   5.020
31886WAT     H195900   1.323   4.749   5.109
31886WAT     H295901   1.226   4.714   4.983
31887WAT      O95902   4.117   2.794   5.297
31887WAT     H195903   4.018   2.808   5.288
31887WAT     H295904   4.138   2.765   5.390
31888WAT      O95905   3.051   6.898   0.059
31888WAT     H195906   3.102   6.812   0.052
31888WAT     H295907   2.955   6.878   0.076
31889WAT      O95908   5.384   8.030   8.773
31889WAT     H195909   5.434   7.997   8.854
31889WAT     H295910   5.289   8.049   8.798
31890WAT      O95911   8.750   9.561   8.317
31890WAT     H195912   8.755   9.473   8.364
31890WAT     H295913   8.770   9.548   8.220
31891WAT      O95914   6.136   2.959   6.819
31891WAT     H195915   6.202   3.019   6.774
31891WAT     H295916   6.183   2.880   6.857
31892WAT      O95917   3.257   8.506   0.832
31892WAT     H195918   3.261   8.507   0.931
31892WAT     H295919   3.171   8.465   0.802
31893WAT      O95920   0.182   4.358   6.824
31893WAT     H195921   0.269   4.309   6.815
31893WAT     H295922   0.191   4.428   6.895
31894WAT      O95923   5.274   4.496   2.407
31894WAT     H195924   5.222   4.578   2.384
31894WAT     H295925   5.245   4.463   2.497
31895WAT      O95926   4.881   4.988   6.191
31895WAT     H195927   4.924   5.078   6.200
31895WAT     H295928   4.804   4.994   6.127
31896WAT      O95929   1.935   4.484   0.434
31896WAT     H195930   1.853   4.506   0.488
31896WAT     H295931   2.017   4.501   0.489
31897WAT      O95932   3.662   7.211   4.657
31897WAT     H195933   3.620   7.292   4.615
31897WAT     H295934   3.592   7.155   4.701
31898WAT      O95935   3.495   2.273   0.789
31898WAT     H195936   3.412   2.218   0.793
31898WAT     H295937   3.575   2.213   0.795
31899WAT      O95938   5.923   0.485   5.591
31899WAT     H195939   5.891   0.416   5.527
31899WAT     H295940   5.959   0.564   5.540
   9.88928    9.84380    9.89279 
